INSANE! Membrane UpperLeaflet>loPI:POPI:DPPI:PYPI:ERGO=20.0:5.0:3.0:2.0:10.0 LowerLeaflet>PSPI:POPI:POPS:YOPS:POPE:YOPE:POPC:YOPC:ERGO=6.0:14.0:21.0:9.0:9.0:21.0:12.0:48.0:60.0
48947
    1loPI    C1    1  13.353   8.962  10.542  0.2913 -0.0091 -0.0784
    1loPI    C2    2  13.377   8.579  10.654  0.0103  0.0321  0.1336
    1loPI    C3    3  13.687   8.824  10.713  0.0485 -0.0687  0.3647
    1loPI   PO4    4  13.316   8.952  10.266 -0.0909  0.3471 -0.4023
    1loPI   GL1    5  13.021   8.974   9.977  0.1792  0.0167 -0.1092
    1loPI   GL2    6  12.852   9.212   9.930  0.0021 -0.0397 -0.1226
    1loPI   C1A    7  13.010   8.838   9.589 -0.5082  0.2777  0.0661
    1loPI   C2A    8  12.949   8.889   9.206  0.1857  0.0142 -0.0081
    1loPI   C3A    9  12.744   9.109   9.021  0.2432  0.1094 -0.0654
    1loPI   C4A   10  12.447   9.231   8.734 -0.1645  0.2741  0.2150
    1loPI   C5A   11  12.085   9.224   8.684 -0.1980  0.2472 -0.1337
    1loPI   C6A   12  11.667   9.095   8.568 -0.1205  0.1354 -0.2896
    1loPI   C1B   13  12.742   9.360   9.471  0.0404 -0.2437  0.0461
    1loPI   C2B   14  12.592   9.578   9.147  0.4316  0.1595  0.0835
    1loPI   C3B   15  12.391   9.768   8.751  0.2751 -0.2582  0.4642
    1loPI   C4B   16  12.120   9.726   8.356  0.0723  0.0820  0.0103
    2loPI    C1   17  14.150  12.333  10.632  0.0841 -0.2522  0.0734
    2loPI    C2   18  14.081  12.000  10.842 -0.1552 -0.1129  0.2201
    2loPI    C3   19  13.857  12.325  10.903 -0.0702  0.0060 -0.0819
    2loPI   PO4   20  14.126  12.223  10.375 -0.1012  0.2571 -0.2144
    2loPI   GL1   21  14.433  11.900  10.123 -0.0883 -0.0761 -0.1442
    2loPI   GL2   22  14.310  12.197   9.929 -0.1454 -0.0311 -0.1477
    2loPI   C1A   23  14.445  11.708   9.800 -0.1306  0.2051  0.0160
    2loPI   C2A   24  14.284  11.426   9.492 -0.0419  0.2199 -0.0373
    2loPI   C3A   25  14.249  11.303   9.020  0.3926  0.0283  0.1877
    2loPI   C4A   26  14.544  11.073   8.697 -0.1443  0.3164  0.0014
    2loPI   C5A   27  14.730  10.778   8.431  0.1664  0.1322 -0.1216
    2loPI   C6A   28  15.131  10.841   8.104 -0.1308  0.1334  0.0403
    2loPI   C1B   29  14.186  12.009   9.479 -0.0742  0.2989  0.2457
    2loPI   C2B   30  14.133  11.849   9.074  0.4462 -0.0854 -0.1004
    2loPI   C3B   31  13.804  11.896   8.697 -0.1506  0.0485 -0.0684
    2loPI   C4B   32  13.991  11.733   8.401 -0.0297  0.1501 -0.0341
    3loPI    C1   33   9.040   8.355  10.603  0.0589 -0.0982  0.0791
    3loPI    C2   34   8.855   8.235  10.937  0.0178 -0.4365 -0.0609
    3loPI    C3   35   9.195   8.058  10.822  0.3649  0.0865  0.1194
    3loPI   PO4   36   8.834   8.294  10.427  0.1336  0.0871  0.3422
    3loPI   GL1   37   8.961   8.067   9.900  0.1973 -0.3154  0.0359
    3loPI   GL2   38   9.230   7.914   9.866  0.1199 -0.0295  0.3024
    3loPI   C1A   39   8.788   8.154   9.510  0.2770 -0.0360  0.2038
    3loPI   C2A   40   8.621   8.245   9.189  0.0466  0.0534 -0.0002
    3loPI   C3A   41   8.339   8.336   8.746  0.0361 -0.0432  0.3823
    3loPI   C4A   42   8.393   8.485   8.323  0.0745  0.1038 -0.0706
    3loPI   C5A   43   8.506   8.553   7.878 -0.1833  0.0231 -0.0588
    3loPI   C6A   44   8.748   8.491   7.510  0.0669 -0.0067  0.1677
    3loPI   C1B   45   9.412   8.044   9.578  0.0153 -0.0495 -0.4276
    3loPI   C2B   46   9.660   8.141   9.191  0.1446  0.1513 -0.3047
    3loPI   C3B   47   9.890   8.092   8.838  0.1957  0.0225 -0.2511
    3loPI   C4B   48   9.832   8.260   8.376 -0.2172  0.4388  0.2631
    4loPI    C1   49  17.742   9.731  10.081 -0.0481 -0.1083 -0.1429
    4loPI    C2   50  17.452   9.558  10.296 -0.0716 -0.0389 -0.1186
    4loPI    C3   51  17.829   9.427  10.327 -0.0383  0.1096  0.1281
    4loPI   PO4   52  17.631   9.749   9.807  0.3311 -0.0555  0.0607
    4loPI   GL1   53  17.935   9.669   9.447 -0.1256 -0.3713  0.3262
    4loPI   GL2   54  18.144   9.682   9.134 -0.0556 -0.1183 -0.3030
    4loPI   C1A   55  17.541   9.446   9.281  0.2569  0.2249  0.0873
    4loPI   C2A   56  17.212   9.168   9.103 -0.0111 -0.1912 -0.1335
    4loPI   C3A   57  16.804   9.056   8.896  0.0572  0.2799  0.1141
    4loPI   C4A   58  16.552   8.912   8.602 -0.1674 -0.2259 -0.1047
    4loPI   C5A   59  16.386   8.804   8.184 -0.0003  0.1503 -0.3490
    4loPI   C6A   60  16.307   8.852   7.803  0.2276  0.0221  0.1552
    4loPI   C1B   61  18.556   9.547   8.924 -0.1949  0.0340 -0.4039
    4loPI   C2B   62  18.547   9.245   8.558 -0.0295 -0.0291 -0.2180
    4loPI   C3B   63  18.204   9.086   8.325  0.1479 -0.0016 -0.2023
    4loPI   C4B   64  18.065   8.720   8.098 -0.1911  0.1686  0.0674
    5loPI    C1   65  13.771   7.211  10.432 -0.3407  0.2502  0.0036
    5loPI    C2   66  13.672   6.837  10.533 -0.5202  0.2525 -0.1572
    5loPI    C3   67  13.881   7.064  10.787 -0.1216 -0.0660 -0.1901
    5loPI   PO4   68  13.829   7.140  10.183  0.1682 -0.2413 -0.4354
    5loPI   GL1   69  13.814   6.974   9.732  0.0349 -0.0109 -0.3381
    5loPI   GL2   70  13.553   6.816   9.718 -0.2739 -0.2779  0.4958
    5loPI   C1A   71  14.064   6.890   9.279 -0.0334 -0.0740 -0.3206
    5loPI   C2A   72  14.267   6.952   9.017 -0.0450 -0.2526  0.2343
    5loPI   C3A   73  14.351   7.167   8.667  0.1333  0.0186  0.0348
    5loPI   C4A   74  14.196   7.466   8.348 -0.2257  0.4296  0.0692
    5loPI   C5A   75  14.157   7.292   7.910  0.1228 -0.0184  0.2363
    5loPI   C6A   76  14.390   7.198   7.516  0.0372  0.0346 -0.0521
    5loPI   C1B   77  13.563   6.904   9.249  0.0810  0.3058 -0.2116
    5loPI   C2B   78  13.695   7.010   8.868 -0.0302  0.1646  0.2834
    5loPI   C3B   79  13.883   6.869   8.517  0.0602  0.0726 -0.1943
    5loPI   C4B   80  14.249   6.935   8.223 -0.0401  0.2955 -0.3492
    6loPI    C1   81   6.089  17.824   9.795 -0.0129 -0.1292  0.1372
    6loPI    C2   82   5.749  17.623   9.858 -0.0713 -0.0777 -0.0084
    6loPI    C3   83   6.089  17.501  10.031 -0.1463 -0.1805  0.0677
    6loPI   PO4   84   6.124  17.882   9.586  0.2010 -0.2729 -0.1380
    6loPI   GL1   85   6.289  18.148   9.216 -0.2600  0.0793  0.0235
    6loPI   GL2   86   6.494  18.028   8.979  0.0070  0.1055 -0.0033
    6loPI   C1A   87   6.343  18.452   8.780  0.0848 -0.3067 -0.2927
    6loPI   C2A   88   6.605  18.584   8.387  0.0023  0.1853  0.2091
    6loPI   C3A   89   6.846  18.885   8.113 -0.0761  0.2123 -0.2042
    6loPI   C4A   90   6.810  19.165   7.783 -0.2471  0.1123  0.0521
    6loPI   C5A   91   6.785  19.109   7.386  0.1385  0.2860  0.0975
    6loPI   C6A   92   7.021  19.257   7.023  0.0047  0.2756  0.0642
    6loPI   C1B   93   6.680  18.080   8.599  0.1935  0.0083  0.0643
    6loPI   C2B   94   6.995  18.256   8.379  0.1957  0.1602  0.1002
    6loPI   C3B   95   7.082  18.463   7.942  0.0086  0.1925  0.1576
    6loPI   C4B   96   6.810  18.627   7.697  0.2296  0.3262  0.1648
    7loPI    C1   97   8.938  15.552  10.106  0.0079 -0.1791  0.2092
    7loPI    C2   98   8.568  15.547  10.258 -0.0422 -0.2804  0.0857
    7loPI    C3   99   8.884  15.495  10.498 -0.0956  0.0163  0.2243
    7loPI   PO4  100   8.884  15.524   9.824 -0.2190 -0.1993  0.5067
    7loPI   GL1  101   9.159  15.394   9.623  0.1599  0.2495 -0.0132
    7loPI   GL2  102   9.497  15.196   9.570 -0.2098  0.0290 -0.2189
    7loPI   C1A  103   8.991  15.195   9.239  0.2234  0.1599 -0.2175
    7loPI   C2A  104   8.881  14.979   8.764  0.0162  0.0141 -0.0187
    7loPI   C3A  105   8.907  14.945   8.422  0.0735 -0.0227  0.2714
    7loPI   C4A  106   9.013  14.800   7.972  0.1308 -0.3279  0.1027
    7loPI   C5A  107   8.743  14.643   7.602  0.0599  0.0976 -0.1577
    7loPI   C6A  108   8.963  14.224   7.449  0.2736 -0.4061  0.0233
    7loPI   C1B  109   9.634  15.016   9.159 -0.0438 -0.0345  0.2647
    7loPI   C2B  110   9.738  14.869   8.784 -0.1464  0.2445  0.0768
    7loPI   C3B  111   9.783  14.709   8.363 -0.1502  0.2479 -0.3056
    7loPI   C4B  112   9.623  14.854   7.984  0.1246  0.0846 -0.2066
    8loPI    C1  113  17.184  10.625  10.452  0.0177 -0.2205  0.1596
    8loPI    C2  114  16.969  10.951  10.540  0.2499 -0.0588  0.1371
    8loPI    C3  115  16.814  10.587  10.601 -0.0723  0.0537  0.0136
    8loPI   PO4  116  17.210  10.646  10.127  0.0976  0.0482  0.1241
    8loPI   GL1  117  17.177  10.289   9.853 -0.0406 -0.1874 -0.0851
    8loPI   GL2  118  17.313  10.107   9.688  0.1085  0.1151 -0.1389
    8loPI   C1A  119  17.091  10.464   9.455  0.0054  0.2846 -0.1608
    8loPI   C2A  120  16.899  10.632   9.105 -0.1145 -0.2582 -0.2873
    8loPI   C3A  121  17.054  10.575   8.710  0.1557  0.0172 -0.3204
    8loPI   C4A  122  17.112  10.670   8.223  0.1433  0.2623 -0.2516
    8loPI   C5A  123  17.268  10.800   7.767  0.0998 -0.1241  0.2084
    8loPI   C6A  124  17.135  10.772   7.373 -0.2272  0.0163 -0.4396
    8loPI   C1B  125  17.101   9.938   9.413 -0.0186 -0.1469  0.0422
    8loPI   C2B  126  17.120   9.698   9.100 -0.0229  0.0758  0.1502
    8loPI   C3B  127  16.984   9.643   8.752 -0.2999  0.3542  0.1754
    8loPI   C4B  128  17.073   9.634   8.322  0.1083 -0.1841  0.0384
    9loPI    C1  129  17.814  17.430  10.992 -0.0858 -0.1408 -0.0852
    9loPI    C2  130  17.773  17.604  11.350  0.2052 -0.1247 -0.0578
    9loPI    C3  131  18.100  17.673  11.130  0.0697 -0.2059 -0.2882
    9loPI   PO4  132  17.600  17.500  10.887 -0.0816  0.1828 -0.0070
    9loPI   GL1  133  17.573  17.389  10.477  0.0175 -0.0317 -0.0612
    9loPI   GL2  134  17.464  17.141  10.272  0.1584  0.0809  0.3132
    9loPI   C1A  135  17.580  17.510  10.011 -0.0516 -0.5558 -0.5843
    9loPI   C2A  136  17.439  17.460   9.751 -0.1193  0.3610 -0.1154
    9loPI   C3A  137  17.293  17.210   9.343 -0.3342  0.0373 -0.2801
    9loPI   C4A  138  17.305  16.972   8.906  0.2772 -0.0294  0.0993
    9loPI   C5A  139  17.564  16.788   8.653  0.4579 -0.1062  0.2305
    9loPI   C6A  140  17.775  16.450   8.559  0.1532 -0.0782  0.0290
    9loPI   C1B  141  17.576  16.973   9.847 -0.0200 -0.2941 -0.1071
    9loPI   C2B  142  17.488  16.763   9.504  0.3419  0.0542 -0.1813
    9loPI   C3B  143  17.658  16.577   9.152 -0.4540 -0.0376  0.2508
    9loPI   C4B  144  17.815  16.170   8.963  0.2573 -0.1308  0.3163
   10loPI    C1  145  13.565  10.910  10.477  0.0357  0.1151  0.0353
   10loPI    C2  146  13.706  10.953  10.849  0.3823 -0.0102 -0.0767
   10loPI    C3  147  13.749  10.604  10.658  0.0600  0.0016 -0.1774
   10loPI   PO4  148  13.714  11.259  10.432 -0.2326 -0.0569  0.2476
   10loPI   GL1  149  13.908  11.335  10.084 -0.0453 -0.2823  0.3304
   10loPI   GL2  150  13.606  11.625  10.124 -0.3488  0.1009  0.0597
   10loPI   C1A  151  13.776  11.289   9.688  0.3988 -0.0002  0.2013
   10loPI   C2A  152  13.812  10.994   9.307 -0.1755 -0.1759  0.1602
   10loPI   C3A  153  13.736  10.677   9.061  0.1353  0.1118  0.0281
   10loPI   C4A  154  13.756  10.408   8.797  0.0489 -0.1374  0.2578
   10loPI   C5A  155  13.835  10.340   8.360  0.1352 -0.0532  0.0865
   10loPI   C6A  156  14.195  10.365   8.075 -0.3468 -0.0102 -0.1646
   10loPI   C1B  157  13.874  11.751   9.826 -0.1231  0.2392  0.0994
   10loPI   C2B  158  13.718  11.688   9.393 -0.1961  0.3407  0.1001
   10loPI   C3B  159  13.637  11.443   9.051  0.0211 -0.0158  0.0006
   10loPI   C4B  160  13.794  11.059   8.795  0.3669 -0.1564  0.1345
   11loPI    C1  161  15.773   4.634  10.255  0.4685 -0.0476 -0.1348
   11loPI    C2  162  15.968   4.741  10.588 -0.0115 -0.2126  0.2099
   11loPI    C3  163  15.879   5.016  10.311  0.3068 -0.0554  0.2596
   11loPI   PO4  164  15.876   4.294  10.113  0.1489 -0.0141  0.3308
   11loPI   GL1  165  16.278   4.161   9.869  0.4426 -0.2289 -0.0316
   11loPI   GL2  166  16.541   3.976  10.057  0.3703  0.1860  0.3132
   11loPI   C1A  167  16.178   4.358   9.495  0.1661 -0.0944  0.3743
   11loPI   C2A  168  15.882   4.080   9.166 -0.0767 -0.3025  0.3230
   11loPI   C3A  169  16.072   4.032   8.832  0.0234 -0.0874  0.2697
   11loPI   C4A  170  16.056   3.866   8.447 -0.0280 -0.1512 -0.2509
   11loPI   C5A  171  15.982   3.626   8.131  0.3288  0.2775 -0.1316
   11loPI   C6A  172  15.820   3.788   7.840 -0.1714 -0.0397  0.0089
   11loPI   C1B  173  16.664   3.951   9.672  0.0205  0.0493  0.1525
   11loPI   C2B  174  16.687   4.107   9.360  0.0248 -0.1721  0.1513
   11loPI   C3B  175  16.561   4.131   8.894 -0.3101 -0.0747  0.3872
   11loPI   C4B  176  16.576   3.858   8.588 -0.0823 -0.0713  0.0394
   12loPI    C1  177   1.354   9.527  10.073 -0.0507  0.0136  0.0176
   12loPI    C2  178   1.094   9.767   9.885 -0.1025  0.0025  0.0751
   12loPI    C3  179   1.298   9.902  10.201 -0.1669 -0.0439  0.1370
   12loPI   PO4  180   1.528   9.431   9.778 -0.0610 -0.2035  0.2685
   12loPI   GL1  181   1.856   9.386   9.420  0.3638 -0.3483  0.3851
   12loPI   GL2  182   2.018   9.059   9.322  0.0637 -0.2065 -0.1484
   12loPI   C1A  183   1.630   9.149   8.993  0.0781  0.1836 -0.1261
   12loPI   C2A  184   1.727   8.680   8.745  0.0374 -0.3472 -0.3222
   12loPI   C3A  185   1.841   8.372   8.530  0.1144 -0.0681 -0.0842
   12loPI   C4A  186   1.896   8.298   8.127 -0.3082 -0.2661  0.3156
   12loPI   C5A  187   1.806   8.390   7.709  0.1518  0.0323 -0.1166
   12loPI   C6A  188   1.556   8.442   7.335  0.0647 -0.0775  0.1458
   12loPI   C1B  189   2.120   8.954   8.872 -0.1731 -0.1251 -0.2531
   12loPI   C2B  190   2.214   8.837   8.530 -0.4623 -0.1040  0.1025
   12loPI   C3B  191   2.439   8.883   8.054 -0.1934  0.2305 -0.0011
   12loPI   C4B  192   2.770   9.111   7.742  0.0495 -0.0381  0.3208
   13loPI    C1  193   2.817   6.218  10.004  0.0199  0.0086 -0.1763
   13loPI    C2  194   3.129   5.983  10.093 -0.2147 -0.2992 -0.1522
   13loPI    C3  195   2.769   5.822  10.025 -0.3550  0.0468 -0.2529
   13loPI   PO4  196   2.884   6.451   9.741  0.1681 -0.4602  0.2167
   13loPI   GL1  197   2.792   6.455   9.260 -0.1991 -0.0452 -0.3574
   13loPI   GL2  198   2.668   6.204   9.118  0.1320  0.0879  0.4148
   13loPI   C1A  199   3.024   6.658   8.941 -0.0036 -0.0425 -0.1889
   13loPI   C2A  200   3.289   6.568   8.568  0.0899  0.3005 -0.1747
   13loPI   C3A  201   3.446   6.554   8.130  0.2451 -0.2022  0.3328
   13loPI   C4A  202   3.855   6.625   7.843 -0.1526 -0.0399 -0.1122
   13loPI   C5A  203   3.885   6.279   7.583 -0.1976  0.0487  0.0273
   13loPI   C6A  204   4.020   6.303   7.236  0.1154  0.3488  0.1096
   13loPI   C1B  205   2.781   6.288   8.665  0.3390 -0.1090  0.2159
   13loPI   C2B  206   2.784   6.508   8.304 -0.0928  0.0673  0.1618
   13loPI   C3B  207   2.583   6.869   8.078 -0.1633 -0.1324  0.1577
   13loPI   C4B  208   2.702   7.102   7.701 -0.2007 -0.3271  0.1309
   14loPI    C1  209  11.875   7.153  10.589 -0.1097 -0.0948  0.0402
   14loPI    C2  210  12.230   6.970  10.563 -0.1392 -0.1337 -0.0991
   14loPI    C3  211  12.190   7.301  10.785 -0.0869 -0.2983  0.1604
   14loPI   PO4  212  11.824   7.142  10.342 -0.0799  0.0609  0.0338
   14loPI   GL1  213  12.012   6.790  10.079  0.2361  0.3650  0.1661
   14loPI   GL2  214  12.138   7.114   9.987  0.2157  0.0149 -0.0936
   14loPI   C1A  215  11.906   6.673   9.684  0.1401  0.2842 -0.0065
   14loPI   C2A  216  11.949   6.403   9.336  0.2089  0.2042 -0.3446
   14loPI   C3A  217  11.809   6.296   8.891  0.1668 -0.1913 -0.0828
   14loPI   C4A  218  11.582   6.178   8.560 -0.1749  0.1070 -0.0995
   14loPI   C5A  219  11.360   6.346   8.253 -0.2928 -0.0403  0.1411
   14loPI   C6A  220  11.046   6.563   7.938  0.0531  0.0386 -0.3310
   14loPI   C1B  221  12.130   7.096   9.582  0.2375 -0.1122  0.3537
   14loPI   C2B  222  12.059   6.935   9.163 -0.0600  0.1355  0.0473
   14loPI   C3B  223  12.079   6.791   8.735  0.0878  0.1423 -0.2109
   14loPI   C4B  224  11.856   6.827   8.354 -0.3277  0.4353 -0.1679
   15loPI    C1  225   2.956   0.856   9.466  0.0849 -0.1497  0.0741
   15loPI    C2  226   2.963   0.716   9.840 -0.1519 -0.1542  0.0784
   15loPI    C3  227   2.688   0.582   9.582 -0.2846  0.1865  0.0373
   15loPI   PO4  228   3.142   0.785   9.375  0.0158  0.1672 -0.0951
   15loPI   GL1  229   3.479   0.855   9.113 -0.0053 -0.1134 -0.0485
   15loPI   GL2  230   3.790   1.013   9.124  0.0352 -0.2180 -0.1481
   15loPI   C1A  231   3.547   0.671   8.744  0.0909 -0.6350  0.4802
   15loPI   C2A  232   3.866   0.790   8.302  0.1714 -0.2230 -0.1258
   15loPI   C3A  233   4.320   0.899   8.406 -0.2973  0.1092  0.1816
   15loPI   C4A  234   4.609   1.035   8.106  0.0731  0.1250  0.2882
   15loPI   C5A  235   4.910   0.956   7.773  0.0223 -0.0272  0.2530
   15loPI   C6A  236   5.325   1.071   7.795  0.1037 -0.1694 -0.0017
   15loPI   C1B  237   3.771   1.202   8.677 -0.3717  0.0788 -0.1788
   15loPI   C2B  238   3.749   1.525   8.346 -0.1066  0.0679 -0.0076
   15loPI   C3B  239   4.147   1.477   8.176 -0.0929 -0.0473 -0.1177
   15loPI   C4B  240   4.492   1.566   7.897  0.0200 -0.2412 -0.0409
   16loPI    C1  241  16.834   6.022   9.761 -0.3734 -0.3384  0.0580
   16loPI    C2  242  17.021   5.875  10.082 -0.2768 -0.3479 -0.0019
   16loPI    C3  243  16.658   6.040  10.119 -0.0267  0.1779  0.2144
   16loPI   PO4  244  16.877   5.807   9.593 -0.0321  0.1531  0.1723
   16loPI   GL1  245  17.168   5.662   9.321  0.0922 -0.1072 -0.0369
   16loPI   GL2  246  17.317   5.880   9.213  0.0143  0.0343 -0.1719
   16loPI   C1A  247  16.901   5.471   9.010 -0.1533 -0.0903  0.0539
   16loPI   C2A  248  16.823   5.387   8.563  0.0002  0.3060 -0.1422
   16loPI   C3A  249  16.763   5.312   8.126  0.0323  0.0635 -0.2268
   16loPI   C4A  250  16.882   5.244   7.759 -0.1862 -0.0768 -0.0012
   16loPI   C5A  251  16.666   5.435   7.435  0.1980  0.1268  0.0014
   16loPI   C6A  252  16.527   5.789   7.150 -0.0784 -0.2654 -0.3732
   16loPI   C1B  253  17.147   5.794   8.770  0.2826  0.2606  0.1207
   16loPI   C2B  254  17.085   5.757   8.367  0.0564  0.1364  0.0229
   16loPI   C3B  255  17.160   5.669   8.020  0.0712  0.1190 -0.2648
   16loPI   C4B  256  17.055   5.711   7.658 -0.2400  0.2414  0.3151
   17loPI    C1  257  14.198  16.872  10.045  0.0456  0.1205 -0.0707
   17loPI    C2  258  13.962  16.709  10.324  0.0162 -0.2153 -0.2862
   17loPI    C3  259  13.962  17.105  10.268 -0.2366 -0.1787 -0.0487
   17loPI   PO4  260  14.178  16.649   9.879 -0.0806  0.2863  0.0246
   17loPI   GL1  261  14.224  16.474   9.535 -0.0300  0.1752  0.2347
   17loPI   GL2  262  14.551  16.612   9.492  0.0460 -0.0607 -0.1241
   17loPI   C1A  263  14.134  16.754   9.162  0.1126 -0.2398  0.1046
   17loPI   C2A  264  14.228  16.444   8.773 -0.2036 -0.0277 -0.0598
   17loPI   C3A  265  14.086  16.365   8.447  0.2476  0.1215  0.1184
   17loPI   C4A  266  13.841  16.112   8.351 -0.1521  0.0734  0.2531
   17loPI   C5A  267  14.073  15.868   8.062 -0.0068  0.0654  0.1448
   17loPI   C6A  268  14.315  15.823   7.684  0.0905 -0.0023  0.2818
   17loPI   C1B  269  14.783  16.616   9.066 -0.3414  0.1682 -0.0049
   17loPI   C2B  270  14.704  16.202   8.725 -0.0220 -0.0498  0.0218
   17loPI   C3B  271  14.688  16.203   8.264 -0.3007  0.2572 -0.2620
   17loPI   C4B  272  14.358  16.348   8.002 -0.2512  0.2342 -0.1789
   18loPI    C1  273   7.446   5.391   9.956 -0.1434 -0.0588  0.1921
   18loPI    C2  274   7.405   5.718  10.183  0.0775  0.1291 -0.0328
   18loPI    C3  275   7.770   5.582  10.093 -0.0128 -0.1496  0.0133
   18loPI   PO4  276   7.390   5.324   9.793 -0.1393 -0.0838 -0.0824
   18loPI   GL1  277   7.493   5.142   9.388 -0.0389  0.2707 -0.0109
   18loPI   GL2  278   7.667   5.350   9.343  0.4602 -0.2704 -0.0242
   18loPI   C1A  279   7.340   5.135   8.993 -0.4941 -0.0093  0.0776
   18loPI   C2A  280   7.357   5.241   8.552  0.5372 -0.3727 -0.1064
   18loPI   C3A  281   7.298   5.185   8.170  0.1995 -0.1548 -0.0740
   18loPI   C4A  282   7.512   4.868   7.777  0.2301  0.1192 -0.3449
   18loPI   C5A  283   7.853   4.670   7.571  0.3731 -0.2413  0.0176
   18loPI   C6A  284   7.945   4.751   7.170 -0.1898 -0.4223 -0.2843
   18loPI   C1B  285   7.794   5.154   8.899  0.2428 -0.0750  0.1704
   18loPI   C2B  286   7.764   4.889   8.623 -0.0533  0.0113 -0.2049
   18loPI   C3B  287   7.826   5.116   8.235  0.2321 -0.1724  0.1453
   18loPI   C4B  288   7.805   5.270   7.800  0.1777  0.0989  0.0830
   19loPI    C1  289  12.958   1.587  10.512  0.1273 -0.0862 -0.0107
   19loPI    C2  290  13.248   1.592  10.787 -0.0248  0.1255  0.1495
   19loPI    C3  291  12.877   1.486  10.890 -0.0042 -0.1619 -0.0585
   19loPI   PO4  292  13.048   1.529  10.264  0.2297 -0.1640 -0.0217
   19loPI   GL1  293  13.201   1.649   9.858 -0.1794  0.0513 -0.0752
   19loPI   GL2  294  13.366   1.321   9.711 -0.2240 -0.0539  0.0587
   19loPI   C1A  295  13.230   1.901   9.432 -0.1355 -0.2789 -0.1370
   19loPI   C2A  296  13.339   2.180   9.091  0.0550 -0.1763 -0.0730
   19loPI   C3A  297  13.313   2.435   8.757 -0.1452  0.1045 -0.1311
   19loPI   C4A  298  13.618   2.528   8.574 -0.1998 -0.1783 -0.2444
   19loPI   C5A  299  13.940   2.497   8.354  0.1461 -0.1483  0.0028
   19loPI   C6A  300  14.154   2.396   7.950  0.0193 -0.0609 -0.1088
   19loPI   C1B  301  13.411   1.404   9.274 -0.0900 -0.2950  0.3243
   19loPI   C2B  302  13.485   1.335   8.797  0.3448  0.2300 -0.0492
   19loPI   C3B  303  13.757   1.132   8.538 -0.0357  0.0579 -0.1537
   19loPI   C4B  304  13.799   0.830   8.315 -0.0852  0.2218 -0.1733
   20loPI    C1  305   2.688   4.803  10.042  0.1362  0.2344 -0.2435
   20loPI    C2  306   3.057   4.694  10.151 -0.0674 -0.1622  0.0747
   20loPI    C3  307   2.766   4.718  10.425 -0.2973  0.0784 -0.1843
   20loPI   PO4  308   2.663   4.630   9.787 -0.0632 -0.0653  0.0511
   20loPI   GL1  309   2.564   4.802   9.375  0.1507 -0.0547  0.0727
   20loPI   GL2  310   2.837   4.614   9.234 -0.0027 -0.0341 -0.0006
   20loPI   C1A  311   2.233   4.703   8.982 -0.0057 -0.0639  0.0179
   20loPI   C2A  312   2.152   4.851   8.493 -0.1062 -0.2560 -0.2312
   20loPI   C3A  313   2.387   5.128   8.241 -0.1396 -0.1828  0.4547
   20loPI   C4A  314   2.483   5.521   8.130  0.1256  0.0432  0.0379
   20loPI   C5A  315   2.539   5.766   7.727  0.0464 -0.0084  0.3354
   20loPI   C6A  316   2.387   5.691   7.348 -0.1140  0.0440  0.0559
   20loPI   C1B  317   2.974   4.583   8.847  0.0406  0.0018  0.0759
   20loPI   C2B  318   3.096   4.683   8.443 -0.0995  0.2776 -0.1358
   20loPI   C3B  319   3.163   4.559   8.077  0.1595 -0.0053 -0.0524
   20loPI   C4B  320   3.354   4.649   7.650  0.1151  0.1729 -0.1251
   21loPI    C1  321  13.824   9.138  10.347 -0.0775 -0.0235 -0.1339
   21loPI    C2  322  13.958   8.998   9.997 -0.1990 -0.0645 -0.1644
   21loPI    C3  323  14.094   8.843  10.339  0.3439  0.3532 -0.1780
   21loPI   PO4  324  13.739   9.344  10.295  0.0748  0.0422 -0.3033
   21loPI   GL1  325  13.502   9.270   9.853  0.1819  0.1916 -0.0831
   21loPI   GL2  326  13.566   8.901   9.758  0.0706  0.1596  0.1577
   21loPI   C1A  327  13.241   9.354   9.618 -0.0830  0.0667 -0.0281
   21loPI   C2A  328  13.084   9.417   9.177 -0.0676 -0.0006 -0.0401
   21loPI   C3A  329  13.054   9.598   8.793 -0.2511 -0.0217 -0.0826
   21loPI   C4A  330  12.810   9.542   8.510  0.0868 -0.3016  0.0604
   21loPI   C5A  331  12.520   9.349   8.244 -0.1345  0.2558  0.2308
   21loPI   C6A  332  12.428   9.340   7.838  0.2038  0.0272  0.1766
   21loPI   C1B  333  13.474   9.030   9.359  0.0368  0.0456  0.2019
   21loPI   C2B  334  13.347   9.043   8.915  0.2374 -0.1056  0.1623
   21loPI   C3B  335  13.075   9.113   8.583 -0.0342 -0.0223 -0.2137
   21loPI   C4B  336  13.210   9.463   8.135 -0.3914  0.2673  0.0917
   22loPI    C1  337   0.380  17.770  10.594  0.0483 -0.0794  0.0211
   22loPI    C2  338   0.563  18.024  10.843 -0.0736 -0.0612  0.0926
   22loPI    C3  339   0.346  17.722  10.990  0.0599 -0.1998  0.0080
   22loPI   PO4  340   0.184  17.904  10.409  0.0996 -0.0949  0.1573
   22loPI   GL1  341  -0.070  17.889  10.068  0.0706  0.3477  0.1069
   22loPI   GL2  342  -0.384  18.056   9.918 -0.3819 -0.0135  0.0376
   22loPI   C1A  343  -0.341  17.556   9.885  0.3009  0.3302 -0.0838
   22loPI   C2A  344  -0.316  17.301   9.481  0.2017 -0.0015 -0.1364
   22loPI   C3A  345  -0.506  17.287   9.100  0.2373 -0.3779 -0.2145
   22loPI   C4A  346  -0.620  17.169   8.620  0.0352 -0.1677  0.0590
   22loPI   C5A  347  -0.799  17.354   8.308  0.0499  0.0888 -0.2945
   22loPI   C6A  348  -0.830  17.177   7.928 -0.0217  0.1465  0.0768
   22loPI   C1B  349  -0.141  18.280   9.637 -0.2707 -0.0672  0.1101
   22loPI   C2B  350   0.036  18.605   9.444 -0.0319  0.3546 -0.0544
   22loPI   C3B  351   0.063  18.595   8.992  0.0984  0.1731  0.1626
   22loPI   C4B  352   0.242  18.784   8.606  0.1434 -0.0509  0.0332
   23loPI    C1  353  16.689  17.956  10.981  0.1345  0.0790  0.1297
   23loPI    C2  354  16.425  17.793  11.233 -0.0583  0.2086  0.0144
   23loPI    C3  355  16.795  17.643  11.207 -0.1389 -0.0159  0.1305
   23loPI   PO4  356  16.543  17.955  10.772  0.0816 -0.1673 -0.2559
   23loPI   GL1  357  16.510  18.217  10.455 -0.0045 -0.5895  0.0615
   23loPI   GL2  358  16.362  18.498  10.260  0.2925  0.3431  0.2870
   23loPI   C1A  359  16.772  18.138  10.089 -0.2283 -0.3023  0.1163
   23loPI   C2A  360  16.856  18.156   9.740  0.2882 -0.0475 -0.2537
   23loPI   C3A  361  16.927  18.209   9.275 -0.0543  0.0558 -0.2897
   23loPI   C4A  362  17.078  18.185   8.876  0.0953  0.1374  0.1463
   23loPI   C5A  363  16.769  18.292   8.489  0.0638  0.1588 -0.5279
   23loPI   C6A  364  16.705  18.692   8.408  0.3167  0.1419 -0.0515
   23loPI   C1B  365  16.396  18.461   9.742 -0.0242 -0.0012 -0.3317
   23loPI   C2B  366  16.373  18.485   9.318 -0.0509 -0.0578  0.0399
   23loPI   C3B  367  16.124  18.700   9.000  0.1266  0.1404 -0.0442
   23loPI   C4B  368  16.028  18.737   8.559 -0.2228 -0.1185  0.1019
   24loPI    C1  369  12.371   8.453  10.798  0.0779 -0.2300  0.0084
   24loPI    C2  370  12.423   8.492  11.193  0.1464 -0.1259 -0.0105
   24loPI    C3  371  12.157   8.229  11.051 -0.0148 -0.0292  0.1099
   24loPI   PO4  372  12.360   8.707  10.671 -0.2064  0.1751 -0.1877
   24loPI   GL1  373  12.310   8.612  10.258 -0.1350  0.0974  0.3462
   24loPI   GL2  374  12.080   8.392  10.176  0.0436 -0.0118 -0.0796
   24loPI   C1A  375  12.568   8.814   9.904  0.0611 -0.1829  0.1409
   24loPI   C2A  376  12.462   8.882   9.520  0.2653 -0.0502 -0.0815
   24loPI   C3A  377  12.214   8.856   9.151 -0.2481 -0.0596  0.2407
   24loPI   C4A  378  11.892   8.681   8.852 -0.1964 -0.2230 -0.1409
   24loPI   C5A  379  11.988   8.378   8.597  0.1183  0.1200  0.1167
   24loPI   C6A  380  11.780   8.058   8.281 -0.1189  0.2753  0.2309
   24loPI   C1B  381  12.378   8.354   9.799  0.2491  0.0890  0.1382
   24loPI   C2B  382  12.375   8.384   9.415  0.0117 -0.0364  0.0302
   24loPI   C3B  383  12.353   8.406   8.909  0.1847  0.1850  0.0385
   24loPI   C4B  384  12.293   8.761   8.584  0.0137  0.0263 -0.0397
   25loPI    C1  385   5.346   7.215  10.147 -0.0935 -0.1382 -0.3309
   25loPI    C2  386   5.259   7.475  10.438  0.3010 -0.0223 -0.3101
   25loPI    C3  387   5.101   7.107  10.444  0.1319  0.0515 -0.0716
   25loPI   PO4  388   5.440   7.404   9.872 -0.0985  0.0343  0.3324
   25loPI   GL1  389   5.629   7.427   9.482  0.2593 -0.2781  0.0915
   25loPI   GL2  390   5.871   7.350   9.609 -0.0129  0.0090  0.1051
   25loPI   C1A  391   5.547   7.556   9.013 -0.1031 -0.1388  0.0622
   25loPI   C2A  392   5.652   7.744   8.611 -0.0332  0.0437 -0.1673
   25loPI   C3A  393   5.762   7.579   8.173  0.0111 -0.2238  0.0119
   25loPI   C4A  394   6.174   7.607   7.922  0.0504  0.0133 -0.0305
   25loPI   C5A  395   6.329   7.730   7.556 -0.1746  0.0557 -0.1718
   25loPI   C6A  396   6.550   7.623   7.234 -0.2049  0.1644  0.0897
   25loPI   C1B  397   6.228   7.386   9.267  0.4838 -0.2014  0.0456
   25loPI   C2B  398   6.418   7.403   8.831 -0.0014 -0.1210  0.3863
   25loPI   C3B  399   6.936   7.394   8.653  0.1079  0.2968 -0.0455
   25loPI   C4B  400   7.344   7.514   8.568 -0.2538  0.0423  0.2764
   26loPI    C1  401  16.793   6.546   9.820 -0.0321  0.0477  0.1167
   26loPI    C2  402  16.685   6.915   9.927  0.0439  0.1300 -0.0848
   26loPI    C3  403  17.070   6.832   9.860  0.0134  0.0441 -0.1544
   26loPI   PO4  404  16.638   6.453   9.566  0.0044  0.3022  0.2419
   26loPI   GL1  405  16.588   6.440   9.134 -0.0777 -0.1366  0.0416
   26loPI   GL2  406  16.883   6.577   8.982  0.0392  0.2018 -0.0249
   26loPI   C1A  407  16.322   6.512   8.783  0.1838 -0.3202 -0.2557
   26loPI   C2A  408  16.371   6.325   8.428 -0.1615  0.0112 -0.0009
   26loPI   C3A  409  16.515   6.404   8.130  0.2343  0.2915  0.2899
   26loPI   C4A  410  16.709   6.539   7.756 -0.1042 -0.2243  0.1324
   26loPI   C5A  411  16.821   6.597   7.324 -0.2297  0.2609  0.2073
   26loPI   C6A  412  16.863   7.000   7.027 -0.1561  0.1974 -0.1060
   26loPI   C1B  413  16.812   6.428   8.539 -0.3618 -0.0372  0.2211
   26loPI   C2B  414  17.029   6.315   8.194  0.1368  0.1608  0.3624
   26loPI   C3B  415  16.814   5.994   7.969 -0.0243 -0.1044 -0.3872
   26loPI   C4B  416  16.539   5.740   7.767  0.1920  0.2518  0.1374
   27loPI    C1  417   5.701  15.719   9.787  0.0759  0.0344  0.1511
   27loPI    C2  418   5.896  15.850  10.112 -0.0160 -0.0334  0.2340
   27loPI    C3  419   5.503  15.775  10.130 -0.0414  0.0577  0.0802
   27loPI   PO4  420   5.786  15.888   9.520  0.1283 -0.0636 -0.2583
   27loPI   GL1  421   5.808  15.752   9.055  0.3132 -0.1671 -0.0539
   27loPI   GL2  422   6.118  15.628   9.031 -0.2236 -0.0560 -0.1794
   27loPI   C1A  423   5.643  15.882   8.690 -0.0952  0.1343 -0.0689
   27loPI   C2A  424   5.546  16.016   8.374 -0.2765 -0.2139  0.0804
   27loPI   C3A  425   5.353  16.189   8.061 -0.2662 -0.2359 -0.1749
   27loPI   C4A  426   5.202  16.266   7.639 -0.1006 -0.4540 -0.0765
   27loPI   C5A  427   5.252  16.717   7.537 -0.2019  0.0090 -0.1240
   27loPI   C6A  428   5.362  17.175   7.752 -0.0287 -0.4559 -0.0595
   27loPI   C1B  429   6.203  15.664   8.564  0.1460 -0.0228  0.0095
   27loPI   C2B  430   6.166  15.759   8.128  0.0452 -0.1742 -0.1112
   27loPI   C3B  431   6.284  15.875   7.821 -0.0254  0.3089 -0.0165
   27loPI   C4B  432   6.534  15.982   7.471 -0.2164 -0.0950 -0.3717
   28loPI    C1  433  10.910   6.030  10.430  0.0141 -0.0615 -0.1613
   28loPI    C2  434  11.288   6.121  10.335  0.0781 -0.1206  0.0324
   28loPI    C3  435  11.178   6.098  10.719 -0.1477 -0.0017 -0.0235
   28loPI   PO4  436  10.643   6.160  10.261  0.1346 -0.1586 -0.0001
   28loPI   GL1  437  10.532   6.414  10.082 -0.1403 -0.0517 -0.0555
   28loPI   GL2  438  10.472   6.154   9.747 -0.0512 -0.1948  0.1918
   28loPI   C1A  439  10.469   6.632   9.633 -0.2629  0.0344  0.0098
   28loPI   C2A  440  10.863   6.828   9.442  0.1470  0.3831 -0.1223
   28loPI   C3A  441  11.141   6.977   9.299 -0.3731  0.0056 -0.1070
   28loPI   C4A  442  11.240   7.055   8.878  0.2856  0.0890 -0.0066
   28loPI   C5A  443  11.134   7.267   8.531 -0.1455 -0.1183 -0.0969
   28loPI   C6A  444  10.961   7.277   8.092 -0.2835  0.1334  0.3911
   28loPI   C1B  445  10.641   6.297   9.289 -0.0376 -0.0645  0.0022
   28loPI   C2B  446  10.729   6.450   8.787  0.0686 -0.3733 -0.5040
   28loPI   C3B  447  10.666   6.510   8.348 -0.0844  0.2091 -0.1782
   28loPI   C4B  448  10.698   6.858   8.332  0.0929  0.3024  0.4283
   29loPI    C1  449   6.105  14.408   9.827  0.0417  0.0687  0.2140
   29loPI    C2  450   6.313  14.343  10.162 -0.0823  0.1775  0.3134
   29loPI    C3  451   5.974  14.555  10.176 -0.1540  0.0762  0.1388
   29loPI   PO4  452   6.191  14.564   9.619  0.2184  0.1970 -0.2373
   29loPI   GL1  453   6.074  14.609   9.189  0.0239  0.1496  0.0668
   29loPI   GL2  454   6.177  14.400   9.144  0.1343  0.0582 -0.0613
   29loPI   C1A  455   5.868  14.527   8.777  0.2261 -0.3351 -0.0175
   29loPI   C2A  456   5.738  14.466   8.342 -0.0816  0.0701 -0.0693
   29loPI   C3A  457   5.869  14.159   8.129 -0.0987  0.1171  0.3082
   29loPI   C4A  458   6.103  13.786   7.959 -0.3411  0.1990  0.0140
   29loPI   C5A  459   6.470  13.749   7.584 -0.0126  0.2193  0.1221
   29loPI   C6A  460   6.855  13.492   7.464 -0.1747 -0.1032  0.0264
   29loPI   C1B  461   6.317  14.390   8.714 -0.0157  0.0364 -0.1511
   29loPI   C2B  462   6.209  14.552   8.355 -0.3137  0.1708 -0.0692
   29loPI   C3B  463   6.047  14.623   7.968 -0.1499 -0.0169  0.0662
   29loPI   C4B  464   5.630  14.576   7.883  0.1391  0.6281  0.0960
   30loPI    C1  465  12.189  12.688  10.905  0.1099  0.0656  0.2023
   30loPI    C2  466  12.359  12.351  11.038  0.1206 -0.0709 -0.1467
   30loPI    C3  467  12.088  12.540  11.263  0.1356 -0.2959  0.0646
   30loPI   PO4  468  12.088  12.615  10.682 -0.0346 -0.0156  0.0321
   30loPI   GL1  469  12.098  12.287  10.458  0.2388  0.3119 -0.0356
   30loPI   GL2  470  11.841  12.328  10.267  0.1581 -0.0199  0.0332
   30loPI   C1A  471  12.095  12.043  10.000  0.2685  0.0808 -0.0823
   30loPI   C2A  472  11.905  11.998   9.661 -0.0180  0.2711  0.3060
   30loPI   C3A  473  11.986  11.947   9.269 -0.1344 -0.0705 -0.0989
   30loPI   C4A  474  12.157  11.852   8.893  0.0378 -0.1397 -0.0806
   30loPI   C5A  475  11.853  11.853   8.529 -0.0971 -0.0297 -0.0364
   30loPI   C6A  476  11.966  12.026   8.117  0.0861  0.0295 -0.2804
   30loPI   C1B  477  11.627  12.464   9.926  0.0833 -0.0771 -0.0478
   30loPI   C2B  478  11.675  12.727   9.543  0.1177  0.3366  0.0639
   30loPI   C3B  479  11.700  12.642   9.118  0.1666  0.0304  0.1472
   30loPI   C4B  480  11.694  12.384   8.704 -0.0936 -0.1701 -0.1350
   31loPI    C1  481   2.556  10.201   9.826  0.2026  0.0571 -0.0577
   31loPI    C2  482   2.176  10.148   9.941  0.1808  0.1585 -0.0822
   31loPI    C3  483   2.473   9.973  10.144  0.1218  0.0869 -0.0571
   31loPI   PO4  484   2.575  10.120   9.545  0.0984  0.3137 -0.1255
   31loPI   GL1  485   2.627  10.113   9.206 -0.1187 -0.0877  0.0867
   31loPI   GL2  486   2.889  10.363   9.096 -0.1478  0.1366  0.4338
   31loPI   C1A  487   2.530  10.242   8.760 -0.2665  0.0776  0.2444
   31loPI   C2A  488   2.494  10.434   8.421 -0.0048  0.1885 -0.0414
   31loPI   C3A  489   2.352  10.593   8.166  0.2348  0.1079 -0.1461
   31loPI   C4A  490   2.233  10.822   7.951  0.0663  0.1462 -0.2113
   31loPI   C5A  491   2.315  10.834   7.584 -0.0542  0.2244 -0.0534
   31loPI   C6A  492   2.499  10.567   7.300  0.1610 -0.1057 -0.0384
   31loPI   C1B  493   3.034  10.462   8.777  0.0456  0.1206 -0.0048
   31loPI   C2B  494   3.048  10.320   8.411  0.0478  0.1170 -0.1952
   31loPI   C3B  495   2.833  10.233   8.063 -0.0627 -0.1743 -0.0329
   31loPI   C4B  496   2.545  10.375   7.746 -0.1006 -0.1846  0.0047
   32loPI    C1  497   0.610   8.102   9.442 -0.0214  0.0678 -0.0692
   32loPI    C2  498   0.620   8.500   9.474  0.0181  0.0461  0.2154
   32loPI    C3  499   0.876   8.276   9.684  0.0101 -0.1300  0.0409
   32loPI   PO4  500   0.286   8.082   9.505  0.0485 -0.1213 -0.0095
   32loPI   GL1  501   0.013   8.159   9.201 -0.1720  0.0071  0.4618
   32loPI   GL2  502   0.353   8.296   9.082  0.2973  0.0095 -0.1498
   32loPI   C1A  503  -0.032   8.231   8.765 -0.0283 -0.0364  0.0497
   32loPI   C2A  504  -0.006   8.154   8.341 -0.2384  0.3402  0.0275
   32loPI   C3A  505  -0.054   7.989   8.054  0.1726 -0.0311  0.2723
   32loPI   C4A  506  -0.249   8.087   7.573 -0.2339 -0.1252  0.0803
   32loPI   C5A  507  -0.017   8.282   7.268  0.0682  0.3897 -0.1819
   32loPI   C6A  508   0.060   8.611   7.423  0.0181  0.1581 -0.2904
   32loPI   C1B  509   0.527   8.719   8.819 -0.0110 -0.4152  0.0716
   32loPI   C2B  510   0.787   8.752   8.530 -0.1422 -0.1215 -0.0996
   32loPI   C3B  511   0.987   8.645   8.254 -0.4048  0.0371  0.3877
   32loPI   C4B  512   1.031   8.709   7.865  0.3012  0.2021 -0.1701
   33loPI    C1  513  12.959   4.769   9.890  0.0245  0.0292  0.0629
   33loPI    C2  514  12.725   4.965   9.632  0.0828  0.0403  0.0185
   33loPI    C3  515  12.661   4.999  10.025 -0.0833 -0.0737  0.0020
   33loPI   PO4  516  13.135   4.676   9.699  0.1180  0.0598  0.3643
   33loPI   GL1  517  13.239   4.903   9.409  0.1130 -0.0013 -0.2889
   33loPI   GL2  518  13.433   5.127   9.574  0.0662  0.0295 -0.1377
   33loPI   C1A  519  13.176   4.911   8.965 -0.0957  0.3151 -0.2882
   33loPI   C2A  520  12.880   4.751   8.759 -0.1768 -0.0743  0.0010
   33loPI   C3A  521  12.764   4.614   8.337 -0.1929 -0.3558 -0.0226
   33loPI   C4A  522  12.850   4.706   7.912  0.0525  0.1589 -0.0226
   33loPI   C5A  523  13.156   5.019   7.724 -0.1315 -0.1740 -0.0130
   33loPI   C6A  524  13.073   5.378   7.610  0.3181 -0.1096 -0.3038
   33loPI   C1B  525  13.728   5.142   9.227  0.3771  0.0162 -0.0526
   33loPI   C2B  526  13.785   5.072   8.848  0.0284 -0.1724  0.1673
   33loPI   C3B  527  13.467   5.186   8.483  0.3249  0.0599 -0.2703
   33loPI   C4B  528  13.243   4.849   8.317  0.0267 -0.0523 -0.1058
   34loPI    C1  529   6.917  15.559   9.597  0.3170  0.0457 -0.1034
   34loPI    C2  530   6.848  15.950   9.545  0.3575  0.0551 -0.0875
   34loPI    C3  531   7.195  15.790   9.425  0.3090  0.0084 -0.1670
   34loPI   PO4  532   6.712  15.445   9.548 -0.4423  0.1385  0.1537
   34loPI   GL1  533   6.457  15.273   9.204  0.2481 -0.3855  0.0824
   34loPI   GL2  534   6.409  14.957   9.252 -0.2896 -0.1144 -0.0004
   34loPI   C1A  535   6.647  15.353   8.773 -0.0093 -0.1214 -0.1649
   34loPI   C2A  536   6.722  15.360   8.390  0.0171 -0.0388 -0.1952
   34loPI   C3A  537   6.785  15.202   8.057  0.1116 -0.0257  0.1786
   34loPI   C4A  538   6.775  14.986   7.682  0.0186 -0.0942  0.1226
   34loPI   C5A  539   6.802  14.565   7.490 -0.2964  0.2861  0.1368
   34loPI   C6A  540   6.569  14.287   7.675  0.1353 -0.4227 -0.1372
   34loPI   C1B  541   6.591  14.774   8.842  0.1044 -0.2342  0.2149
   34loPI   C2B  542   6.573  14.853   8.407  0.1246  0.2136  0.1173
   34loPI   C3B  543   6.582  14.635   7.974  0.0134 -0.1045 -0.0124
   34loPI   C4B  544   6.372  14.747   7.587 -0.0166 -0.4183 -0.0156
   35loPI    C1  545   4.906   5.769   9.727  0.1710 -0.2847 -0.2487
   35loPI    C2  546   4.559   5.773   9.926  0.2486 -0.2868 -0.1124
   35loPI    C3  547   4.851   5.524  10.039  0.4463  0.0060  0.0357
   35loPI   PO4  548   4.873   5.781   9.500  0.1370 -0.1400 -0.1674
   35loPI   GL1  549   5.185   5.933   9.176  0.1365  0.1972 -0.1605
   35loPI   GL2  550   5.214   5.851   8.901  0.0552  0.1770 -0.3272
   35loPI   C1A  551   5.295   6.336   9.165 -0.0816 -0.0654  0.1963
   35loPI   C2A  552   5.474   6.680   9.247  0.0487  0.0044  0.2865
   35loPI   C3A  553   5.735   7.088   9.147  0.1284  0.1185  0.1086
   35loPI   C4A  554   5.992   7.233   8.799 -0.0137 -0.0098 -0.0363
   35loPI   C5A  555   6.041   7.120   8.367  0.2637 -0.1336  0.0650
   35loPI   C6A  556   6.117   7.121   7.886  0.2638 -0.4858  0.2291
   35loPI   C1B  557   5.355   5.951   8.507 -0.0038  0.3394 -0.0446
   35loPI   C2B  558   5.215   6.050   8.240 -0.3236  0.1471  0.0545
   35loPI   C3B  559   5.075   6.049   7.795 -0.0825 -0.1411  0.0858
   35loPI   C4B  560   5.114   5.716   7.552 -0.2762  0.2575 -0.2635
   36loPI    C1  561  11.193   7.017  10.674  0.1565 -0.1298 -0.1685
   36loPI    C2  562  11.458   7.301  10.770  0.0798 -0.0570 -0.1714
   36loPI    C3  563  11.445   6.961  10.980  0.0663  0.0068 -0.0682
   36loPI   PO4  564  11.210   7.008  10.406  0.2580 -0.5405 -0.2252
   36loPI   GL1  565  11.336   7.247   9.983  0.1036 -0.0055  0.2021
   36loPI   GL2  566  11.647   7.131   9.820 -0.0772  0.2426  0.1194
   36loPI   C1A  567  11.061   7.250   9.666 -0.2076 -0.0138 -0.1487
   36loPI   C2A  568  10.706   7.307   9.298 -0.3637 -0.1513 -0.2129
   36loPI   C3A  569  10.594   7.230   8.915 -0.2188  0.3300  0.2781
   36loPI   C4A  570  10.560   7.367   8.508  0.0882 -0.0600  0.2101
   36loPI   C5A  571  10.798   7.616   8.472  0.0219  0.0540 -0.1443
   36loPI   C6A  572  11.242   7.869   8.637  0.0948 -0.3236 -0.3325
   36loPI   C1B  573  11.634   7.171   9.381 -0.1509  0.0663 -0.0970
   36loPI   C2B  574  11.325   7.458   9.189 -0.1404  0.2710 -0.3747
   36loPI   C3B  575  10.980   7.601   8.960 -0.2189  0.2049 -0.1178
   36loPI   C4B  576  10.544   7.788   8.869 -0.0355 -0.0151 -0.1162
   37loPI    C1  577  17.536  13.709  10.252  0.1324 -0.0045 -0.2603
   37loPI    C2  578  17.770  13.532  10.524  0.0907  0.1356 -0.1321
   37loPI    C3  579  17.394  13.630  10.617 -0.0439 -0.1501 -0.3588
   37loPI   PO4  580  17.662  13.766  10.067 -0.5540 -0.1207 -0.0834
   37loPI   GL1  581  17.432  13.985   9.683  0.2574  0.1196 -0.1208
   37loPI   GL2  582  17.141  14.037   9.629  0.1376  0.0831 -0.0947
   37loPI   C1A  583  17.535  14.008   9.290 -0.1843 -0.1836 -0.1443
   37loPI   C2A  584  17.505  14.113   8.840 -0.0639  0.1331  0.3007
   37loPI   C3A  585  17.858  14.225   8.598  0.0339 -0.0027 -0.3495
   37loPI   C4A  586  18.051  14.082   8.307 -0.2019  0.0276  0.0500
   37loPI   C5A  587  18.081  13.810   8.240  0.0725  0.0794 -0.0807
   37loPI   C6A  588  17.935  13.520   7.932 -0.1280 -0.1018  0.0276
   37loPI   C1B  589  17.226  14.344   9.230  0.1433  0.0232 -0.2269
   37loPI   C2B  590  17.074  14.493   8.882 -0.1816  0.0905 -0.1284
   37loPI   C3B  591  16.844  14.440   8.492  0.0944 -0.1796  0.0396
   37loPI   C4B  592  16.590  14.399   8.096  0.0193  0.0663 -0.1303
   38loPI    C1  593   8.311   1.449  10.193  0.1860  0.0100  0.1008
   38loPI    C2  594   8.184   1.828  10.210  0.0789 -0.0130 -0.1358
   38loPI    C3  595   7.961   1.536  10.367  0.1224  0.0117 -0.0266
   38loPI   PO4  596   8.444   1.477   9.942  0.2046  0.2027  0.0113
   38loPI   GL1  597   8.337   1.172   9.591 -0.0612 -0.0779  0.2942
   38loPI   GL2  598   8.615   1.373   9.377 -0.2224  0.1174 -0.3321
   38loPI   C1A  599   8.260   1.033   9.127 -0.0325  0.5216 -0.1557
   38loPI   C2A  600   8.299   0.783   8.813 -0.2445  0.2412  0.1227
   38loPI   C3A  601   8.555   0.541   8.604 -0.1426  0.0810 -0.0812
   38loPI   C4A  602   8.630   0.340   8.171 -0.1226 -0.1277  0.0454
   38loPI   C5A  603   8.492  -0.094   7.900  0.2132  0.3777 -0.2185
   38loPI   C6A  604   8.112  -0.392   8.077 -0.4143 -0.1252  0.3212
   38loPI   C1B  605   8.625   1.385   8.939  0.0413  0.0282 -0.1437
   38loPI   C2B  606   8.387   1.206   8.543 -0.0473  0.1074 -0.0031
   38loPI   C3B  607   8.378   0.881   8.289  0.0119 -0.3304  0.0187
   38loPI   C4B  608   8.564   0.788   7.961  0.0605  0.1836  0.2762
   39loPI    C1  609   5.125  15.413   9.693 -0.0008 -0.0435 -0.0138
   39loPI    C2  610   5.504  15.294   9.649  0.0950  0.2280  0.0568
   39loPI    C3  611   5.328  15.271  10.007 -0.0004 -0.0220 -0.0044
   39loPI   PO4  612   5.044  15.308   9.443 -0.3279  0.4300  0.0647
   39loPI   GL1  613   5.120  15.366   8.918 -0.2617 -0.3399 -0.1094
   39loPI   GL2  614   4.736  15.485   8.810  0.2932  0.3028 -0.4250
   39loPI   C1A  615   5.158  15.215   8.458 -0.0131  0.0709  0.3078
   39loPI   C2A  616   5.204  15.230   8.045  0.1551 -0.0133  0.1751
   39loPI   C3A  617   5.095  15.261   7.628 -0.1063 -0.1153 -0.0992
   39loPI   C4A  618   4.650  15.252   7.537  0.1607 -0.0261  0.0844
   39loPI   C5A  619   4.389  15.537   7.546 -0.0567 -0.1075 -0.1128
   39loPI   C6A  620   4.092  15.735   7.346  0.0725 -0.4280  0.1776
   39loPI   C1B  621   4.705  15.490   8.398  0.0764  0.2310 -0.0140
   39loPI   C2B  622   4.729  15.494   7.988  0.1164  0.0622  0.0413
   39loPI   C3B  623   4.797  15.766   7.612  0.1205 -0.2096  0.1343
   39loPI   C4B  624   4.653  16.106   7.292  0.1394 -0.0223  0.2259
   40loPI    C1  625  12.406   6.323  10.396  0.0189 -0.0237 -0.1200
   40loPI    C2  626  12.075   6.488  10.548  0.0590 -0.0487 -0.0049
   40loPI    C3  627  12.389   6.414  10.785  0.1286 -0.0713 -0.1037
   40loPI   PO4  628  12.351   6.322  10.086 -0.0978  0.0504 -0.3005
   40loPI   GL1  629  12.605   6.446   9.815  0.3831  0.1247 -0.0428
   40loPI   GL2  630  12.363   6.512   9.595  0.4285 -0.2229 -0.0046
   40loPI   C1A  631  12.820   6.196   9.472 -0.0223  0.0204  0.2299
   40loPI   C2A  632  12.883   6.010   9.071  0.2024 -0.2053  0.0179
   40loPI   C3A  633  12.628   6.006   8.695 -0.0127  0.0180 -0.0896
   40loPI   C4A  634  12.507   6.034   8.304 -0.1160  0.0490 -0.0494
   40loPI   C5A  635  12.586   6.294   8.031  0.0060 -0.0199 -0.0207
   40loPI   C6A  636  12.630   6.347   7.658  0.0023 -0.0032  0.2868
   40loPI   C1B  637  12.421   6.454   9.078  0.0345  0.0396  0.1509
   40loPI   C2B  638  12.492   6.497   8.668 -0.0489 -0.2951 -0.1730
   40loPI   C3B  639  12.788   6.579   8.422 -0.3168 -0.1886  0.0315
   40loPI   C4B  640  12.838   6.821   8.016 -0.2120 -0.0147  0.1659
   41loPI    C1  641   4.857   9.443  10.066 -0.2193  0.0677  0.0544
   41loPI    C2  642   4.698   9.243  10.374 -0.2027  0.0048  0.0223
   41loPI    C3  643   4.742   9.641  10.394 -0.2732  0.0103  0.0703
   41loPI   PO4  644   4.831   9.106   9.920 -0.0523 -0.1760  0.1744
   41loPI   GL1  645   4.839   8.887   9.550 -0.4063  0.1559  0.0767
   41loPI   GL2  646   4.837   8.680   9.550 -0.5332  0.1278 -0.1703
   41loPI   C1A  647   4.904   8.943   9.102 -0.1507 -0.0430  0.0781
   41loPI   C2A  648   5.077   9.111   8.773  0.4501  0.1516 -0.0360
   41loPI   C3A  649   5.229   9.134   8.519  0.0573  0.1316 -0.0074
   41loPI   C4A  650   5.493   9.004   8.185  0.1079 -0.2171 -0.3294
   41loPI   C5A  651   5.448   8.741   7.807 -0.1607 -0.0681 -0.2705
   41loPI   C6A  652   5.408   8.750   7.495  0.5167 -0.1697  0.1997
   41loPI   C1B  653   4.773   8.469   9.190 -0.0417  0.2443  0.0370
   41loPI   C2B  654   4.825   8.235   8.795 -0.0816  0.1244 -0.2603
   41loPI   C3B  655   4.946   8.090   8.335 -0.2059 -0.2896 -0.3650
   41loPI   C4B  656   5.012   8.147   7.927 -0.0395 -0.1031  0.1549
   42loPI    C1  657  14.293   9.274  10.473  0.0463 -0.2169  0.0564
   42loPI    C2  658  14.632   9.405  10.640 -0.0349  0.0168  0.0404
   42loPI    C3  659  14.349   9.236  10.867  0.0374 -0.0605  0.0732
   42loPI   PO4  660  14.393   9.231  10.101 -0.1709 -0.0123  0.0660
   42loPI   GL1  661  14.498   9.437   9.657  0.0321 -0.1275 -0.0311
   42loPI   GL2  662  14.437   9.100   9.648  0.0634 -0.0996  0.0575
   42loPI   C1A  663  14.437   9.480   9.252  0.2885 -0.0578  0.2510
   42loPI   C2A  664  14.326   9.771   8.986  0.0617  0.0760 -0.1429
   42loPI   C3A  665  14.421   9.663   8.548 -0.0513 -0.4139  0.1552
   42loPI   C4A  666  14.608   9.736   8.213  0.1921 -0.2789 -0.2465
   42loPI   C5A  667  14.950   9.925   8.024  0.0756 -0.0471  0.0908
   42loPI   C6A  668  15.335  10.210   8.016 -0.1758 -0.1056 -0.2155
   42loPI   C1B  669  14.288   9.012   9.260 -0.0604  0.0165  0.0947
   42loPI   C2B  670  14.225   9.251   8.810 -0.0002 -0.2007 -0.3468
   42loPI   C3B  671  14.105   9.371   8.354  0.2384 -0.1653  0.1354
   42loPI   C4B  672  14.142   9.895   8.166 -0.0045 -0.1116 -0.0122
   43loPI    C1  673   2.274  14.874   9.852 -0.0330  0.0398 -0.1466
   43loPI    C2  674   2.077  14.719  10.164 -0.2194 -0.0331 -0.2987
   43loPI    C3  675   2.129  15.114  10.137  0.2547 -0.0602  0.0886
   43loPI   PO4  676   2.355  14.675   9.743 -0.0985  0.1382  0.2275
   43loPI   GL1  677   2.107  14.380   9.379 -0.2596 -0.0388  0.4223
   43loPI   GL2  678   1.871  14.695   9.380  0.0291 -0.2135 -0.1359
   43loPI   C1A  679   1.948  14.326   8.924 -0.1173 -0.1393  0.3310
   43loPI   C2A  680   1.998  14.466   8.475  0.0853  0.3392 -0.1384
   43loPI   C3A  681   1.857  14.553   8.018 -0.0920 -0.0844 -0.2690
   43loPI   C4A  682   1.670  14.552   7.625  0.1056  0.0598 -0.2467
   43loPI   C5A  683   1.424  14.410   7.330  0.0816 -0.0463 -0.2698
   43loPI   C6A  684   1.562  14.051   7.013 -0.2202  0.0853  0.0639
   43loPI   C1B  685   1.538  14.812   9.105 -0.2325  0.0364  0.1262
   43loPI   C2B  686   1.675  14.822   8.668 -0.0264  0.0929  0.3452
   43loPI   C3B  687   1.512  14.788   8.323 -0.2558  0.0114  0.1827
   43loPI   C4B  688   1.949  14.991   8.204 -0.1627 -0.2565 -0.1921
   44loPI    C1  689  18.152   2.017  10.417  0.1407  0.1824 -0.0721
   44loPI    C2  690  18.321   1.811  10.118  0.1006  0.0896 -0.0316
   44loPI    C3  691  18.485   1.805  10.483  0.0476  0.0548 -0.0084
   44loPI   PO4  692  18.079   2.218  10.289  0.2754  0.1748  0.1865
   44loPI   GL1  693  18.010   2.185   9.811 -0.0587 -0.1047 -0.1250
   44loPI   GL2  694  17.997   2.554   9.754 -0.1316 -0.2181  0.2037
   44loPI   C1A  695  17.821   2.338   9.361  0.0244 -0.1653 -0.0896
   44loPI   C2A  696  17.614   2.227   8.968 -0.0590 -0.2133  0.1888
   44loPI   C3A  697  17.293   2.425   8.743 -0.1649  0.1574 -0.0504
   44loPI   C4A  698  17.352   2.644   8.356  0.0501 -0.4748  0.0210
   44loPI   C5A  699  17.297   2.688   8.020 -0.1608  0.0586  0.0918
   44loPI   C6A  700  17.024   3.059   7.837 -0.5109  0.2936 -0.0135
   44loPI   C1B  701  17.906   2.877   9.482 -0.0021 -0.2143 -0.0644
   44loPI   C2B  702  17.863   2.787   9.071  0.3114  0.0074  0.0751
   44loPI   C3B  703  17.861   2.688   8.613  0.0400  0.0892 -0.0402
   44loPI   C4B  704  17.799   2.722   8.165  0.1357  0.0364 -0.0117
   45loPI    C1  705   4.345   7.358  10.072  0.0536  0.1591 -0.0381
   45loPI    C2  706   3.951   7.300  10.107  0.1045 -0.1950 -0.0095
   45loPI    C3  707   4.169   7.387  10.430  0.0305  0.1556 -0.0491
   45loPI   PO4  708   4.464   7.513   9.949  0.2479  0.1330  0.0335
   45loPI   GL1  709   4.467   7.951   9.699  0.2951  0.4746  0.0726
   45loPI   GL2  710   4.790   8.041   9.616  0.2364 -0.1503  0.1139
   45loPI   C1A  711   4.399   7.948   9.218 -0.1184  0.0339  0.0379
   45loPI   C2A  712   4.242   8.160   8.907  0.3138 -0.3288 -0.0118
   45loPI   C3A  713   4.497   8.178   8.464 -0.1057  0.0325  0.0670
   45loPI   C4A  714   4.545   8.077   8.073  0.1072  0.2036 -0.0479
   45loPI   C5A  715   4.736   7.772   7.782 -0.4869  0.2904  0.1021
   45loPI   C6A  716   4.613   7.491   7.555 -0.3752  0.1691  0.1813
   45loPI   C1B  717   4.915   7.960   9.193 -0.1941  0.1179  0.1267
   45loPI   C2B  718   5.210   7.889   8.797  0.0402 -0.2288  0.5309
   45loPI   C3B  719   5.402   8.145   8.535 -0.1389 -0.0868 -0.0621
   45loPI   C4B  720   5.561   8.272   8.146 -0.1343 -0.4332  0.1447
   46loPI    C1  721   6.113   5.639   9.651  0.1257 -0.0031 -0.0000
   46loPI    C2  722   5.907   5.947   9.802 -0.3272 -0.2846 -0.0247
   46loPI    C3  723   5.968   5.620  10.024 -0.2052 -0.3404 -0.1394
   46loPI   PO4  724   6.008   5.525   9.469  0.2233 -0.3073 -0.0520
   46loPI   GL1  725   5.802   5.673   9.204 -0.1953 -0.2401  0.0312
   46loPI   GL2  726   5.643   5.601   8.872  0.1482  0.0362  0.4091
   46loPI   C1A  727   5.761   6.072   9.034 -0.1555 -0.2127  0.2818
   46loPI   C2A  728   5.565   6.312   8.775 -0.2437 -0.0115 -0.0986
   46loPI   C3A  729   5.526   6.780   8.767  0.0636 -0.1326 -0.0885
   46loPI   C4A  730   5.373   7.120   8.707  0.1668 -0.1751 -0.0777
   46loPI   C5A  731   5.344   7.457   8.434  0.2844  0.1433 -0.0185
   46loPI   C6A  732   5.286   7.764   8.225 -0.1485  0.0489 -0.3684
   46loPI   C1B  733   6.036   5.611   8.765 -0.2535 -0.0357 -0.1491
   46loPI   C2B  734   6.255   5.479   8.477  0.1445 -0.3252 -0.0994
   46loPI   C3B  735   6.316   5.237   7.997  0.0407 -0.1181  0.0295
   46loPI   C4B  736   6.219   5.460   7.572 -0.3595 -0.0151 -0.3384
   47loPI    C1  737  14.141   8.196  10.345 -0.0349 -0.3839  0.1886
   47loPI    C2  738  13.902   8.403  10.590 -0.0622  0.0384 -0.1816
   47loPI    C3  739  14.250   8.257  10.725 -0.1630  0.1003  0.1534
   47loPI   PO4  740  14.115   8.350  10.120  0.0399  0.0226  0.2341
   47loPI   GL1  741  13.955   8.390   9.798 -0.2193  0.1218 -0.2229
   47loPI   GL2  742  14.289   8.327   9.687 -0.1596  0.0703  0.1529
   47loPI   C1A  743  13.859   8.707   9.396  0.0836 -0.0977  0.2857
   47loPI   C2A  744  13.836   8.887   8.939  0.0419  0.1340  0.2148
   47loPI   C3A  745  13.760   9.053   8.531  0.1101 -0.0364 -0.0949
   47loPI   C4A  746  13.569   9.082   8.286  0.0627  0.0143 -0.0570
   47loPI   C5A  747  13.546   9.025   7.881 -0.0814 -0.1306  0.1508
   47loPI   C6A  748  13.835   9.107   7.491 -0.1314  0.1084 -0.0219
   47loPI   C1B  749  14.183   8.332   9.332  0.2338  0.0531  0.0488
   47loPI   C2B  750  14.006   8.426   8.985  0.3275  0.2382 -0.0590
   47loPI   C3B  751  13.805   8.369   8.615 -0.1352 -0.1371  0.0015
   47loPI   C4B  752  13.764   8.600   8.263 -0.1428 -0.1956 -0.1699
   48loPI    C1  753  11.646  18.604  10.156 -0.2003  0.0829 -0.3059
   48loPI    C2  754  11.955  18.856  10.126 -0.1590  0.0554 -0.1216
   48loPI    C3  755  12.003  18.469  10.037 -0.0963  0.0186  0.0690
   48loPI   PO4  756  11.447  18.652  10.076  0.0528 -0.2846  0.1878
   48loPI   GL1  757  11.203  18.697   9.751 -0.1236 -0.1575  0.2124
   48loPI   GL2  758  10.840  18.687   9.787 -0.0558 -0.4053 -0.1308
   48loPI   C1A  759  11.211  18.870   9.427 -0.0823  0.1898 -0.0632
   48loPI   C2A  760  11.015  19.010   9.129 -0.1006  0.1865  0.2709
   48loPI   C3A  761  10.701  19.122   8.952  0.2923  0.1598  0.0411
   48loPI   C4A  762  10.467  19.324   8.607  0.0972 -0.0575 -0.1340
   48loPI   C5A  763  10.128  19.516   8.438 -0.1095  0.3451 -0.3855
   48loPI   C6A  764   9.765  19.445   8.254 -0.0079 -0.0112 -0.1743
   48loPI   C1B  765  10.651  18.933   9.423 -0.0735  0.0756  0.0589
   48loPI   C2B  766  10.343  19.117   9.373 -0.2610 -0.1067 -0.0192
   48loPI   C3B  767  10.313  19.374   9.057  0.2293  0.1820 -0.0684
   48loPI   C4B  768   9.918  19.370   8.867 -0.0942 -0.0226  0.0621
   49loPI    C1  769  15.400   1.083  10.877  0.0796  0.0177  0.2502
   49loPI    C2  770  15.098   0.829  10.941 -0.0128  0.0054 -0.1974
   49loPI    C3  771  15.212   1.081  11.230 -0.2271 -0.2199  0.0908
   49loPI   PO4  772  15.211   1.179  10.602  0.2424  0.1334  0.2510
   49loPI   GL1  773  15.138   0.957  10.253 -0.1253 -0.2405 -0.1209
   49loPI   GL2  774  15.176   1.181  10.125 -0.0564 -0.0642 -0.1899
   49loPI   C1A  775  15.078   0.529  10.132 -0.1828 -0.3303  0.1417
   49loPI   C2A  776  15.148   0.284   9.721  0.1410 -0.1399  0.0912
   49loPI   C3A  777  15.173   0.139   9.304  0.0927  0.1925 -0.0036
   49loPI   C4A  778  15.390   0.230   8.945 -0.0041 -0.1477 -0.4070
   49loPI   C5A  779  15.487   0.071   8.554 -0.4550  0.0074  0.1674
   49loPI   C6A  780  15.448  -0.093   8.231 -0.0456 -0.1122  0.1128
   49loPI   C1B  781  15.086   1.303   9.610 -0.0784  0.1897 -0.1929
   49loPI   C2B  782  14.908   1.107   9.230  0.2314  0.2124  0.0166
   49loPI   C3B  783  15.200   1.124   8.875 -0.0416 -0.3714 -0.4425
   49loPI   C4B  784  15.343   1.285   8.457  0.2195  0.2409 -0.0261
   50loPI    C1  785   6.104   2.818   9.791 -0.0984 -0.0656  0.0246
   50loPI    C2  786   5.968   2.509  10.005  0.1804 -0.0576  0.2182
   50loPI    C3  787   5.980   2.875  10.167 -0.1025  0.0488  0.0063
   50loPI   PO4  788   6.315   2.726   9.678 -0.0719  0.0866  0.1947
   50loPI   GL1  789   6.539   2.549   9.313 -0.0853 -0.3020 -0.2581
   50loPI   GL2  790   6.259   2.538   9.068  0.2199 -0.2619 -0.1750
   50loPI   C1A  791   6.634   2.939   9.041  0.1820  0.3368 -0.1523
   50loPI   C2A  792   6.495   3.086   8.599  0.1418 -0.1780  0.2381
   50loPI   C3A  793   6.430   3.277   8.261 -0.2820 -0.1558 -0.0761
   50loPI   C4A  794   6.486   3.331   7.693  0.0561 -0.0586 -0.1409
   50loPI   C5A  795   6.402   3.418   7.255 -0.1056 -0.2400 -0.0977
   50loPI   C6A  796   6.063   3.727   7.060  0.0183  0.2204  0.1576
   50loPI   C1B  797   6.354   2.555   8.678 -0.2312 -0.0440 -0.2376
   50loPI   C2B  798   6.342   2.681   8.305  0.1508 -0.0953 -0.0344
   50loPI   C3B  799   6.150   2.534   7.927 -0.0144 -0.2551  0.2243
   50loPI   C4B  800   6.066   2.397   7.504  0.0448  0.2925  0.4194
   51loPI    C1  801  15.216  16.656  10.595 -0.1321 -0.3023  0.3729
   51loPI    C2  802  15.251  17.033  10.723  0.0160 -0.1918  0.0179
   51loPI    C3  803  15.548  16.773  10.784  0.0684 -0.1511 -0.0624
   51loPI   PO4  804  14.981  16.782  10.297  0.1223 -0.1479  0.3117
   51loPI   GL1  805  15.035  17.170  10.016  0.1648 -0.4320  0.1160
   51loPI   GL2  806  14.727  17.224   9.977  0.2820 -0.1710 -0.1072
   51loPI   C1A  807  15.324  17.463   9.784 -0.1479  0.0486 -0.1743
   51loPI   C2A  808  15.364  17.513   9.286  0.0012 -0.0186  0.1936
   51loPI   C3A  809  15.331  17.486   8.884 -0.0213  0.0578 -0.0436
   51loPI   C4A  810  15.327  17.288   8.522  0.0683 -0.2074  0.3336
   51loPI   C5A  811  15.095  17.102   8.191  0.0762 -0.0871  0.0652
   51loPI   C6A  812  14.772  17.074   8.145  0.1084  0.1842  0.2191
   51loPI   C1B  813  14.599  17.186   9.657  0.1152  0.0015  0.1996
   51loPI   C2B  814  14.583  17.127   9.205  0.1206  0.0304 -0.1186
   51loPI   C3B  815  14.538  17.022   8.779 -0.0279 -0.0322  0.2174
   51loPI   C4B  816  14.507  16.687   8.426  0.2158  0.0974  0.2622
   52loPI    C1  817  12.680  13.522  10.472  0.1353  0.0211 -0.1024
   52loPI    C2  818  13.062  13.548  10.358  0.1500  0.1903 -0.0178
   52loPI    C3  819  12.956  13.655  10.728  0.0541 -0.0664  0.0316
   52loPI   PO4  820  12.603  13.453  10.221 -0.0755  0.2812 -0.3626
   52loPI   GL1  821  12.595  13.428   9.835  0.1477 -0.0024  0.3214
   52loPI   GL2  822  12.854  13.149   9.876 -0.1205 -0.1862 -0.2476
   52loPI   C1A  823  12.633  13.572   9.382  0.1511 -0.4345 -0.2844
   52loPI   C2A  824  12.434  13.541   9.034  0.0976  0.0612  0.0268
   52loPI   C3A  825  12.062  13.408   8.832  0.0272 -0.2815  0.1260
   52loPI   C4A  826  11.795  13.091   8.728  0.0454  0.0084 -0.0829
   52loPI   C5A  827  11.611  12.844   8.398 -0.0580  0.2926  0.2183
   52loPI   C6A  828  11.370  12.846   7.956  0.4021  0.1373 -0.0658
   52loPI   C1B  829  12.735  13.114   9.535 -0.0115  0.0650  0.0488
   52loPI   C2B  830  12.616  13.099   9.093 -0.2284  0.1613 -0.0166
   52loPI   C3B  831  12.522  13.158   8.700  0.0932 -0.1264 -0.2966
   52loPI   C4B  832  12.547  13.053   8.255 -0.2597 -0.4088  0.0426
   53loPI    C1  833   3.898   2.620   9.850  0.1512 -0.1511 -0.0897
   53loPI    C2  834   3.640   2.920   9.792  0.3653  0.0949  0.1911
   53loPI    C3  835   3.513   2.541   9.778  0.0529  0.2019  0.0242
   53loPI   PO4  836   4.065   2.678   9.737 -0.2968 -0.2954 -0.1660
   53loPI   GL1  837   4.112   2.993   9.449  0.0657  0.5182  0.2138
   53loPI   GL2  838   4.195   2.819   9.214  0.0421  0.0151 -0.2406
   53loPI   C1A  839   4.203   3.221   9.029 -0.1764  0.1974 -0.3135
   53loPI   C2A  840   4.521   3.072   8.664 -0.2048  0.1275 -0.1334
   53loPI   C3A  841   4.402   2.780   8.304  0.0062 -0.4170  0.0204
   53loPI   C4A  842   4.428   2.413   7.979  0.0037  0.2210 -0.1032
   53loPI   C5A  843   4.322   2.009   7.772  0.1136 -0.0220  0.3021
   53loPI   C6A  844   4.001   1.761   7.569  0.2376 -0.1772  0.3176
   53loPI   C1B  845   4.129   2.689   8.702 -0.3127 -0.0920  0.1735
   53loPI   C2B  846   4.131   2.384   8.381  0.2836  0.1167 -0.0162
   53loPI   C3B  847   3.993   1.976   8.149 -0.2441  0.0791 -0.2057
   53loPI   C4B  848   3.622   1.885   7.962  0.0359 -0.1186  0.1807
   54loPI    C1  849  14.971   4.140  10.227 -0.0794  0.0093 -0.2171
   54loPI    C2  850  14.726   3.886  10.415 -0.0610  0.1036 -0.0633
   54loPI    C3  851  15.108   3.917  10.530 -0.0103  0.0538 -0.2152
   54loPI   PO4  852  14.845   4.026   9.929  0.1429 -0.0746 -0.0758
   54loPI   GL1  853  15.120   4.026   9.562  0.1263 -0.0132 -0.0190
   54loPI   GL2  854  15.077   3.716   9.473  0.3002 -0.0067  0.0806
   54loPI   C1A  855  14.933   4.205   9.188  0.0308  0.0061 -0.0238
   54loPI   C2A  856  14.644   4.242   8.796  0.4781 -0.3851  0.1702
   54loPI   C3A  857  14.265   4.110   8.558 -0.2553 -0.0171 -0.1986
   54loPI   C4A  858  14.001   4.324   8.246 -0.0537  0.3546 -0.2975
   54loPI   C5A  859  13.980   4.484   7.869  0.1844 -0.2530  0.0588
   54loPI   C6A  860  13.916   4.624   7.466 -0.0015 -0.0455  0.2136
   54loPI   C1B  861  15.087   3.453   9.159  0.0573  0.2824  0.1736
   54loPI   C2B  862  15.210   3.372   8.680 -0.2727  0.1045  0.0733
   54loPI   C3B  863  15.006   3.386   8.218  0.0625  0.0677 -0.0991
   54loPI   C4B  864  14.718   3.124   8.008 -0.1265  0.2410 -0.2273
   55loPI    C1  865  12.952  18.588  10.273  0.2304  0.0646 -0.3253
   55loPI    C2  866  13.327  18.588  10.413  0.1112 -0.2339  0.0115
   55loPI    C3  867  13.134  18.242  10.360 -0.0989 -0.0853 -0.2170
   55loPI   PO4  868  12.979  18.784  10.078 -0.3750 -0.0706 -0.2320
   55loPI   GL1  869  13.029  19.031   9.768 -0.1121 -0.0839 -0.0134
   55loPI   GL2  870  13.110  18.811   9.594  0.1374  0.1514  0.0186
   55loPI   C1A  871  12.762  19.159   9.428 -0.1090 -0.0316 -0.1526
   55loPI   C2A  872  12.716  18.972   9.042  0.2727 -0.1064  0.1523
   55loPI   C3A  873  13.067  18.785   9.028 -0.2784 -0.0877  0.1608
   55loPI   C4A  874  13.238  18.588   8.578  0.0136 -0.1794  0.1117
   55loPI   C5A  875  12.912  18.415   8.265  0.2136 -0.1429  0.1273
   55loPI   C6A  876  12.470  18.384   8.018  0.1006  0.0857  0.2777
   55loPI   C1B  877  13.410  18.594   9.365 -0.2152 -0.3449  0.1686
   55loPI   C2B  878  13.584  18.847   8.964 -0.0938 -0.1813  0.2200
   55loPI   C3B  879  13.907  19.015   8.792  0.2492 -0.0456 -0.3608
   55loPI   C4B  880  14.045  19.148   8.417  0.1854  0.1235 -0.0937
   56loPI    C1  881  12.397   7.882  10.729  0.0938  0.1960 -0.2556
   56loPI    C2  882  12.777   7.926  10.611  0.2937 -0.1961  0.2049
   56loPI    C3  883  12.672   8.020  10.986 -0.1124  0.0901  0.0277
   56loPI   PO4  884  12.293   8.064  10.487 -0.1293 -0.1354 -0.1789
   56loPI   GL1  885  12.146   7.958   9.953 -0.1757 -0.0254 -0.0399
   56loPI   GL2  886  12.533   7.860  10.045  0.4570  0.0903  0.2139
   56loPI   C1A  887  12.200   7.971   9.483  0.1793 -0.2035 -0.2719
   56loPI   C2A  888  12.192   7.863   9.038 -0.0371  0.2111  0.1557
   56loPI   C3A  889  12.101   7.739   8.694 -0.1194 -0.1787  0.0694
   56loPI   C4A  890  11.685   7.544   8.520 -0.1669  0.1974  0.0647
   56loPI   C5A  891  11.418   7.496   8.127  0.0961  0.0166 -0.1157
   56loPI   C6A  892  11.298   7.724   7.717  0.0952 -0.0706 -0.4115
   56loPI   C1B  893  12.395   7.543   9.785 -0.0160  0.0434 -0.0047
   56loPI   C2B  894  12.388   7.456   9.347 -0.1437 -0.1925 -0.3535
   56loPI   C3B  895  12.030   7.354   8.987  0.1890  0.2097 -0.1523
   56loPI   C4B  896  11.713   7.186   8.865  0.4011  0.1448 -0.0736
   57loPI    C1  897   4.032   9.515   9.745  0.2576  0.0943  0.1461
   57loPI    C2  898   3.746   9.588  10.015  0.1861 -0.0614  0.1133
   57loPI    C3  899   3.794   9.834   9.703  0.1593  0.0253  0.1771
   57loPI   PO4  900   3.985   9.267   9.704  0.1472  0.0016  0.0100
   57loPI   GL1  901   3.794   9.069   9.311  0.0778 -0.1321  0.2642
   57loPI   GL2  902   4.043   9.252   9.199 -0.0397 -0.1424 -0.1728
   57loPI   C1A  903   3.670   8.982   8.922 -0.0563  0.0045  0.1046
   57loPI   C2A  904   3.765   9.061   8.558 -0.4162 -0.1327  0.2263
   57loPI   C3A  905   3.655   9.116   8.159  0.1565  0.1300 -0.1322
   57loPI   C4A  906   3.959   9.143   7.749 -0.0980 -0.2386 -0.0996
   57loPI   C5A  907   4.168   8.956   7.490  0.0422 -0.0578 -0.0481
   57loPI   C6A  908   4.575   8.866   7.542 -0.0016 -0.4004  0.0986
   57loPI   C1B  909   4.155   9.071   8.902 -0.1587  0.1891 -0.0169
   57loPI   C2B  910   4.518   9.196   8.654  0.0295 -0.2510 -0.2717
   57loPI   C3B  911   4.761   9.154   8.299  0.1920  0.1397  0.0563
   57loPI   C4B  912   5.020   9.125   7.901  0.1035 -0.0658  0.0148
   58loPI    C1  913   3.713  10.880   9.502  0.2367 -0.2346 -0.1781
   58loPI    C2  914   3.670  11.150   9.794  0.2966 -0.0973 -0.2950
   58loPI    C3  915   3.650  10.759   9.878  0.2516 -0.0578 -0.1180
   58loPI   PO4  916   3.514  10.865   9.318 -0.1458  0.2073 -0.1936
   58loPI   GL1  917   3.436  10.688   8.967 -0.0026 -0.1419  0.0659
   58loPI   GL2  918   3.450  10.345   9.089 -0.2702 -0.4786 -0.1475
   58loPI   C1A  919   3.394  10.671   8.531 -0.0634  0.0133 -0.4355
   58loPI   C2A  920   3.249  10.636   8.090 -0.3370  0.1390  0.1785
   58loPI   C3A  921   2.864  10.719   7.940  0.3905 -0.1637 -0.1150
   58loPI   C4A  922   2.752  11.049   7.704 -0.1579  0.0183 -0.3871
   58loPI   C5A  923   2.874  11.438   7.442  0.0233 -0.0748  0.0731
   58loPI   C6A  924   3.016  11.668   7.095  0.0334  0.0663  0.1141
   58loPI   C1B  925   3.486  10.183   8.700  0.5191  0.1035 -0.3393
   58loPI   C2B  926   3.507  10.227   8.285  0.0696 -0.1511  0.2048
   58loPI   C3B  927   3.782  10.285   7.935  0.1732 -0.2033  0.0500
   58loPI   C4B  928   4.030  10.301   7.484 -0.1118 -0.1192 -0.2679
   59loPI    C1  929  10.764  10.458  10.675 -0.0957 -0.2323 -0.0197
   59loPI    C2  930  10.708  10.474  11.071 -0.0052  0.1591 -0.0184
   59loPI    C3  931  11.078  10.446  10.923 -0.0501 -0.1821 -0.0747
   59loPI   PO4  932  10.517  10.642  10.592  0.3269  0.3857 -0.0088
   59loPI   GL1  933  10.331  10.483  10.257 -0.2157 -0.0068  0.1032
   59loPI   GL2  934  10.002  10.431  10.216  0.0380 -0.0602 -0.2699
   59loPI   C1A  935  10.413  10.613   9.811 -0.1048 -0.1304  0.0520
   59loPI   C2A  936  10.707  10.611   9.444  0.0254 -0.2115 -0.2536
   59loPI   C3A  937  10.670  10.752   9.121 -0.2969  0.2000 -0.1137
   59loPI   C4A  938  10.671  10.836   8.658  0.3748  0.1064 -0.3373
   59loPI   C5A  939  10.741  10.604   8.395  0.3451 -0.2542  0.2450
   59loPI   C6A  940  10.996  10.509   7.961 -0.0085 -0.0143  0.0104
   59loPI   C1B  941  10.005  10.197   9.785  0.4498 -0.0142 -0.1009
   59loPI   C2B  942  10.278  10.244   9.462  0.1909  0.1310 -0.3158
   59loPI   C3B  943  10.328  10.233   9.147  0.2333 -0.2014  0.2429
   59loPI   C4B  944  10.537  10.349   8.807  0.0632 -0.1138 -0.2616
   60loPI    C1  945   7.241  12.470  10.125 -0.0368  0.2226 -0.0391
   60loPI    C2  946   7.036  12.380  10.456  0.0222  0.0088 -0.0594
   60loPI    C3  947   7.053  12.759  10.329 -0.4513  0.0167 -0.1184
   60loPI   PO4  948   7.439  12.362  10.143  0.0120 -0.0556 -0.0811
   60loPI   GL1  949   7.689  12.579   9.930 -0.3185  0.0807  0.1301
   60loPI   GL2  950   7.565  12.558   9.721 -0.2860  0.0663 -0.4591
   60loPI   C1A  951   8.062  12.465   9.699  0.0130  0.5842 -0.1919
   60loPI   C2A  952   8.236  12.508   9.299  0.2627  0.2654  0.0950
   60loPI   C3A  953   8.317  12.398   8.883  0.0498  0.0412  0.5206
   60loPI   C4A  954   8.378  12.469   8.449  0.2497  0.2044  0.0573
   60loPI   C5A  955   7.995  12.520   8.209 -0.0729 -0.2312  0.0828
   60loPI   C6A  956   7.650  12.683   8.400  0.2410  0.0294  0.0482
   60loPI   C1B  957   7.676  12.446   9.339 -0.0405 -0.1563 -0.0454
   60loPI   C2B  958   7.801  12.347   9.009  0.0784  0.1028 -0.1029
   60loPI   C3B  959   7.881  12.163   8.653 -0.0806  0.1400 -0.4400
   60loPI   C4B  960   8.138  12.030   8.296  0.0535  0.1557 -0.1712
   61loPI    C1  961  15.809   7.427   9.798  0.1747  0.2038  0.1536
   61loPI    C2  962  15.755   7.667  10.114 -0.2707 -0.0446  0.2731
   61loPI    C3  963  15.712   7.271  10.153  0.0127 -0.1089 -0.0246
   61loPI   PO4  964  15.666   7.512   9.549 -0.1584 -0.0633 -0.1670
   61loPI   GL1  965  15.675   7.475   9.137  0.2665 -0.1912 -0.1398
   61loPI   GL2  966  15.553   7.067   9.127 -0.2297 -0.3363  0.0011
   61loPI   C1A  967  15.494   7.664   8.843 -0.3620 -0.1942 -0.3342
   61loPI   C2A  968  15.449   7.683   8.486  0.1034 -0.3776  0.1565
   61loPI   C3A  969  15.487   7.439   8.143  0.0705  0.1484 -0.2602
   61loPI   C4A  970  15.431   7.028   7.835 -0.1907  0.1105 -0.2598
   61loPI   C5A  971  15.187   6.678   7.958  0.0707 -0.0809 -0.3029
   61loPI   C6A  972  15.185   6.193   7.767  0.2901  0.0796  0.0380
   61loPI   C1B  973  15.547   7.137   8.695 -0.1189  0.2189 -0.1645
   61loPI   C2B  974  15.747   6.992   8.357 -0.1279 -0.2637  0.3159
   61loPI   C3B  975  15.934   7.253   8.020  0.0007 -0.0173  0.0631
   61loPI   C4B  976  16.079   7.209   7.688 -0.1908  0.3354 -0.0308
   62loPI    C1  977   8.645   3.670  10.091 -0.1407 -0.0192 -0.0896
   62loPI    C2  978   8.260   3.778  10.113 -0.1172  0.0158  0.1887
   62loPI    C3  979   8.420   3.548  10.399  0.0415 -0.0895  0.0172
   62loPI   PO4  980   8.669   3.582   9.878  0.1493 -0.2720  0.5649
   62loPI   GL1  981   8.388   3.484   9.515 -0.0955 -0.0032 -0.2382
   62loPI   GL2  982   8.151   3.677   9.669 -0.2282 -0.0223  0.1123
   62loPI   C1A  983   8.384   3.566   9.125  0.1796 -0.2774  0.0783
   62loPI   C2A  984   8.386   3.572   8.762  0.0735 -0.0637 -0.1487
   62loPI   C3A  985   8.454   3.523   8.361 -0.3429  0.1764 -0.0021
   62loPI   C4A  986   8.370   3.507   7.956 -0.3449 -0.0446 -0.2058
   62loPI   C5A  987   8.121   3.388   7.600  0.1515  0.3159 -0.4840
   62loPI   C6A  988   8.015   2.989   7.475  0.0036  0.3392 -0.1393
   62loPI   C1B  989   8.355   4.012   9.351 -0.0858 -0.2907 -0.0635
   62loPI   C2B  990   8.739   4.037   9.154 -0.0018 -0.0292 -0.2130
   62loPI   C3B  991   8.839   3.693   8.982 -0.1341  0.0209  0.0592
   62loPI   C4B  992   8.921   3.599   8.624  0.0618  0.4168  0.0164
   63loPI    C1  993  13.707  15.336   9.771 -0.1842 -0.2118  0.0018
   63loPI    C2  994  13.514  15.402  10.115  0.0085  0.0305  0.0667
   63loPI    C3  995  13.901  15.497  10.081 -0.0106  0.0152 -0.2199
   63loPI   PO4  996  13.648  15.145   9.708  0.1705 -0.2005 -0.0801
   63loPI   GL1  997  13.384  14.940   9.405 -0.1677 -0.3954 -0.0458
   63loPI   GL2  998  13.355  15.162   9.227 -0.0866 -0.5037 -0.1182
   63loPI   C1A  999  13.619  14.736   9.089  0.1502  0.0741  0.0077
   63loPI   C2A 1000  13.361  14.617   8.642  0.2186  0.0085  0.1653
   63loPI   C3A 1001  13.186  14.812   8.282 -0.0870 -0.1977 -0.1650
   63loPI   C4A 1002  12.955  14.932   7.978  0.1319 -0.0316  0.0624
   63loPI   C5A 1003  12.473  14.840   7.966 -0.2575 -0.1253 -0.2802
   63loPI   C6A 1004  12.031  14.666   7.729 -0.3529  0.1687 -0.1597
   63loPI   C1B 1005  13.331  15.076   8.823  0.0786 -0.1190 -0.1084
   63loPI   C2B 1006  13.578  15.108   8.503 -0.0699 -0.1555  0.2157
   63loPI   C3B 1007  13.465  15.127   8.059  0.1211  0.0656  0.4296
   63loPI   C4B 1008  13.066  15.367   7.858  0.0164  0.0829 -0.2007
   64loPI    C1 1009   2.670   2.604   9.965 -0.1352 -0.0187  0.2898
   64loPI    C2 1010   3.057   2.669  10.042 -0.0442 -0.1424 -0.0457
   64loPI    C3 1011   2.821   2.512  10.324  0.0803  0.2038  0.2591
   64loPI   PO4 1012   2.608   2.635   9.674 -0.2709 -0.2483 -0.1878
   64loPI   GL1 1013   2.697   2.657   9.120 -0.0985 -0.0390  0.2559
   64loPI   GL2 1014   2.422   2.378   9.203 -0.3532  0.2580  0.3333
   64loPI   C1A 1015   2.634   2.827   8.735  0.1167  0.1201 -0.4421
   64loPI   C2A 1016   2.742   3.051   8.332 -0.2804 -0.3644 -0.1202
   64loPI   C3A 1017   2.772   2.926   8.000 -0.1034  0.0966  0.0604
   64loPI   C4A 1018   2.647   2.747   7.619 -0.0796  0.0245  0.0593
   64loPI   C5A 1019   2.512   2.500   7.279 -0.0295 -0.0370 -0.1681
   64loPI   C6A 1020   2.484   2.111   7.214 -0.3954  0.2238 -0.0807
   64loPI   C1B 1021   2.474   2.364   8.747  0.0502  0.2339  0.0565
   64loPI   C2B 1022   2.598   2.472   8.407 -0.3714  0.2857  0.2929
   64loPI   C3B 1023   2.594   2.460   8.026 -0.0804 -0.2959 -0.1988
   64loPI   C4B 1024   2.644   2.235   7.740 -0.3922 -0.0399  0.0835
   65loPI    C1 1025   8.776   5.799  10.118  0.1122 -0.2387 -0.1157
   65loPI    C2 1026   8.996   6.067  10.318  0.1555 -0.1774 -0.2440
   65loPI    C3 1027   8.706   5.865  10.506  0.1613 -0.0828 -0.1325
   65loPI   PO4 1028   8.622   5.969   9.942 -0.2669  0.3228  0.5120
   65loPI   GL1 1029   8.546   6.314   9.743 -0.3275  0.0705 -0.0115
   65loPI   GL2 1030   8.415   6.131   9.517  0.0176 -0.1579  0.2011
   65loPI   C1A 1031   8.777   6.522   9.463  0.1435 -0.1298 -0.1160
   65loPI   C2A 1032   8.801   6.516   9.045 -0.2132  0.0374  0.1748
   65loPI   C3A 1033   9.116   6.450   8.653 -0.3746  0.0981 -0.1931
   65loPI   C4A 1034   9.185   6.659   8.289  0.0422  0.1484  0.3783
   65loPI   C5A 1035   9.228   7.073   8.191  0.2006 -0.0805  0.0478
   65loPI   C6A 1036   9.479   7.438   8.161 -0.0513  0.0848  0.1290
   65loPI   C1B 1037   8.373   6.304   9.228  0.0655  0.2224  0.1031
   65loPI   C2B 1038   8.366   6.370   8.782  0.0457 -0.1024 -0.2541
   65loPI   C3B 1039   8.407   6.404   8.456  0.1294  0.0666  0.1643
   65loPI   C4B 1040   8.687   6.563   8.240 -0.1248  0.0476  0.0422
   66loPI    C1 1041   9.802   8.158  10.627 -0.1107 -0.0402 -0.0998
   66loPI    C2 1042   9.790   7.804  10.442  0.0437 -0.0607 -0.0721
   66loPI    C3 1043  10.053   8.081  10.325  0.1317 -0.0677  0.1057
   66loPI   PO4 1044   9.546   8.285  10.525 -0.0519  0.2508 -0.1005
   66loPI   GL1 1045   9.247   8.348  10.159 -0.2992 -0.0060  0.0023
   66loPI   GL2 1046   9.514   8.290  10.039  0.1019  0.1939  0.1017
   66loPI   C1A 1047   8.938   8.577   9.850 -0.4169  0.0010  0.1307
   66loPI   C2A 1048   8.881   8.857   9.488 -0.0916  0.0321  0.2191
   66loPI   C3A 1049   8.621   8.773   9.149 -0.0908  0.2324 -0.1126
   66loPI   C4A 1050   8.744   8.786   8.760  0.0069 -0.0452  0.0695
   66loPI   C5A 1051   8.819   8.726   8.349 -0.4337  0.0773  0.0279
   66loPI   C6A 1052   8.925   8.937   7.926 -0.0856 -0.2885  0.2919
   66loPI   C1B 1053   9.520   8.732   9.871 -0.0682  0.0548 -0.0278
   66loPI   C2B 1054   9.547   8.907   9.547 -0.1412  0.2074  0.4820
   66loPI   C3B 1055   9.326   9.002   9.090  0.0123 -0.3355  0.2603
   66loPI   C4B 1056   9.297   8.900   8.652 -0.0292 -0.0956  0.0679
   67loPI    C1 1057  17.176   7.222   9.515  0.0712 -0.1497 -0.1714
   67loPI    C2 1058  17.348   7.523   9.715 -0.0828 -0.0614 -0.1707
   67loPI    C3 1059  17.464   7.146   9.782 -0.0471 -0.0219 -0.0055
   67loPI   PO4 1060  17.118   7.269   9.288  0.0540 -0.0572  0.0728
   67loPI   GL1 1061  17.301   7.275   8.959 -0.0585  0.5443  0.0147
   67loPI   GL2 1062  17.606   7.303   8.902 -0.2312 -0.0521 -0.0438
   67loPI   C1A 1063  17.294   7.426   8.564  0.0313  0.1011 -0.1358
   67loPI   C2A 1064  17.298   7.753   8.481 -0.0021 -0.1304  0.1381
   67loPI   C3A 1065  17.152   8.079   8.190  0.1431  0.0924 -0.0501
   67loPI   C4A 1066  17.233   8.303   7.833 -0.1489  0.1173  0.0128
   67loPI   C5A 1067  17.594   8.440   7.675 -0.0487 -0.2161  0.0875
   67loPI   C6A 1068  17.772   8.381   7.333 -0.1218 -0.1839  0.3219
   67loPI   C1B 1069  17.875   7.075   8.605 -0.1259  0.1643 -0.0631
   67loPI   C2B 1070  17.926   6.846   8.252 -0.1086  0.0076  0.0541
   67loPI   C3B 1071  17.721   6.659   7.956 -0.0609 -0.2084  0.1335
   67loPI   C4B 1072  17.806   6.821   7.545  0.0270  0.2716  0.0002
   68loPI    C1 1073  11.194  17.762  10.297  0.1295  0.1665 -0.1643
   68loPI    C2 1074  10.859  17.638  10.477  0.1172  0.3971 -0.0240
   68loPI    C3 1075  11.211  17.603  10.663  0.1939  0.0196 -0.2305
   68loPI   PO4 1076  11.050  17.791  10.003 -0.1888  0.2731 -0.0481
   68loPI   GL1 1077  11.030  17.670   9.616  0.1519 -0.1449 -0.0645
   68loPI   GL2 1078  11.049  17.462   9.465  0.2616  0.1436 -0.1743
   68loPI   C1A 1079  11.226  17.879   9.226 -0.0580  0.2133  0.5150
   68loPI   C2A 1080  11.200  18.139   8.760  0.0966  0.2934  0.1350
   68loPI   C3A 1081  11.210  18.317   8.326 -0.0002 -0.0285 -0.0976
   68loPI   C4A 1082  11.243  18.707   8.111  0.0108 -0.0293 -0.0025
   68loPI   C5A 1083  11.006  18.948   7.959  0.0767 -0.0115 -0.3284
   68loPI   C6A 1084  10.774  19.227   7.763  0.1188 -0.3394  0.1819
   68loPI   C1B 1085  11.052  17.472   8.999 -0.2465  0.1237 -0.2113
   68loPI   C2B 1086  11.428  17.660   8.770  0.1162 -0.2382 -0.1333
   68loPI   C3B 1087  11.422  17.842   8.324 -0.1112  0.1089  0.0914
   68loPI   C4B 1088  11.443  18.070   7.993 -0.0164  0.0965 -0.3629
   69loPI    C1 1089  17.134   8.652   9.843 -0.0038  0.0274  0.0157
   69loPI    C2 1090  17.348   8.525  10.156  0.0684 -0.0593 -0.0684
   69loPI    C3 1091  17.094   8.831  10.199  0.0160 -0.1248  0.0952
   69loPI   PO4 1092  17.236   8.483   9.643  0.1021 -0.2430  0.0432
   69loPI   GL1 1093  16.890   8.386   9.356 -0.0030 -0.3991 -0.0112
   69loPI   GL2 1094  16.906   8.681   9.374  0.2417 -0.0174 -0.0419
   69loPI   C1A 1095  16.684   8.574   8.948 -0.2914 -0.2437 -0.0461
   69loPI   C2A 1096  16.686   8.445   8.499  0.2097 -0.1370  0.1068
   69loPI   C3A 1097  16.637   8.308   8.118  0.4329 -0.0489  0.1610
   69loPI   C4A 1098  16.403   8.242   7.836  0.1830 -0.3477 -0.0019
   69loPI   C5A 1099  16.162   8.066   7.495 -0.0756 -0.5434  0.2420
   69loPI   C6A 1100  16.135   7.758   7.212  0.0504  0.0198 -0.1971
   69loPI   C1B 1101  17.180   8.700   9.040  0.2059 -0.0386  0.3714
   69loPI   C2B 1102  17.171   8.678   8.602  0.1270 -0.2605  0.2389
   69loPI   C3B 1103  16.938   8.810   8.138 -0.0679 -0.3161 -0.0078
   69loPI   C4B 1104  16.755   8.881   7.777  0.2007  0.3895  0.4408
   70loPI    C1 1105  15.784  17.235  10.703 -0.1426 -0.0520 -0.0701
   70loPI    C2 1106  16.130  17.069  10.818  0.0783  0.2567 -0.2728
   70loPI    C3 1107  15.818  17.076  11.068  0.1887 -0.1033 -0.1196
   70loPI   PO4 1108  16.061  17.355  10.385  0.0367  0.0167  0.1170
   70loPI   GL1 1109  16.165  17.453  10.007 -0.0792  0.0569 -0.0333
   70loPI   GL2 1110  16.519  17.325   9.839  0.0910  0.1354  0.0240
   70loPI   C1A 1111  16.099  17.463   9.564  0.0703 -0.1599 -0.3107
   70loPI   C2A 1112  16.343  17.344   9.187  0.4404  0.1826 -0.1195
   70loPI   C3A 1113  16.342  17.515   8.767  0.0504  0.0096 -0.2645
   70loPI   C4A 1114  16.261  17.681   8.333 -0.1464  0.1343 -0.0115
   70loPI   C5A 1115  15.982  18.043   8.208  0.2942  0.3029  0.0709
   70loPI   C6A 1116  15.945  18.496   8.098  0.1333  0.1162  0.1816
   70loPI   C1B 1117  16.652  17.431   9.575  0.3470 -0.1336 -0.1773
   70loPI   C2B 1118  16.841  17.407   9.224 -0.0600 -0.1590 -0.3537
   70loPI   C3B 1119  17.025  17.398   8.756  0.2425  0.0939 -0.7106
   70loPI   C4B 1120  17.256  17.544   8.310  0.3407  0.3003  0.1063
   71loPI    C1 1121  14.254  15.805  10.118 -0.1082  0.0379  0.0510
   71loPI    C2 1122  14.313  16.117   9.875  0.2006  0.0078  0.0838
   71loPI    C3 1123  14.155  16.174  10.238 -0.1344  0.0700 -0.0680
   71loPI   PO4 1124  14.464  15.654  10.009 -0.0339 -0.1312  0.2149
   71loPI   GL1 1125  14.664  15.437   9.642  0.2816  0.0321 -0.0799
   71loPI   GL2 1126  14.406  15.331   9.458 -0.1214  0.0002  0.1351
   71loPI   C1A 1127  14.866  15.398   9.278 -0.2089  0.1491 -0.3942
   71loPI   C2A 1128  15.076  15.357   8.835  0.0228  0.3863 -0.4393
   71loPI   C3A 1129  15.180  15.420   8.448  0.1264 -0.0451 -0.0861
   71loPI   C4A 1130  15.342  15.736   8.221 -0.2198  0.2053 -0.0204
   71loPI   C5A 1131  15.448  15.482   7.987  0.1733 -0.0354  0.1426
   71loPI   C6A 1132  15.409  15.205   7.549  0.1763  0.0912  0.0496
   71loPI   C1B 1133  14.448  15.815   9.408  0.2128  0.2436 -0.1121
   71loPI   C2B 1134  14.268  16.091   9.117 -0.0840 -0.1836 -0.0139
   71loPI   C3B 1135  13.938  16.094   8.886 -0.3709  0.1245 -0.0385
   71loPI   C4B 1136  13.472  16.099   8.928  0.1133 -0.3110  0.0164
   72loPI    C1 1137   0.402   5.449   9.814  0.1060  0.0824 -0.1324
   72loPI    C2 1138   0.066   5.307   9.979  0.1415  0.1134 -0.0330
   72loPI    C3 1139   0.411   5.292  10.182  0.1845  0.1563 -0.1024
   72loPI   PO4 1140   0.348   5.373   9.521 -0.2034  0.0570 -0.2199
   72loPI   GL1 1141   0.136   5.394   9.165  0.4081  0.7086 -0.1062
   72loPI   GL2 1142   0.341   5.199   8.933 -0.0731 -0.3014  0.3999
   72loPI   C1A 1143  -0.164   5.213   9.038  0.1349 -0.0584  0.1403
   72loPI   C2A 1144  -0.359   5.018   8.607 -0.0453 -0.1094 -0.1415
   72loPI   C3A 1145  -0.419   5.019   8.147  0.1253  0.0645 -0.0297
   72loPI   C4A 1146  -0.425   5.081   7.691  0.0002  0.1400 -0.1058
   72loPI   C5A 1147  -0.128   4.999   7.340 -0.0623  0.0711 -0.1206
   72loPI   C6A 1148  -0.088   5.066   6.857  0.0426  0.1951 -0.0303
   72loPI   C1B 1149   0.169   5.198   8.622 -0.0781 -0.1141  0.0386
   72loPI   C2B 1150   0.326   5.162   8.298  0.3973 -0.0032  0.0412
   72loPI   C3B 1151   0.544   4.955   8.108  0.2689  0.0371 -0.1815
   72loPI   C4B 1152   0.786   5.119   7.756  0.1212 -0.1209 -0.2347
   73loPI    C1 1153   2.462   1.773   9.542  0.2853 -0.0157  0.0581
   73loPI    C2 1154   2.775   1.785   9.791  0.2405  0.2501  0.1042
   73loPI    C3 1155   2.553   2.113   9.732 -0.0650  0.0494  0.1155
   73loPI   PO4 1156   2.501   1.581   9.404  0.1191 -0.0689 -0.0971
   73loPI   GL1 1157   2.442   1.388   9.072  0.4240 -0.2271 -0.0923
   73loPI   GL2 1158   2.624   1.396   8.803 -0.0856  0.0445  0.0675
   73loPI   C1A 1159   2.126   1.349   8.795 -0.0051 -0.0566 -0.0582
   73loPI   C2A 1160   2.054   1.190   8.469  0.2893  0.1143 -0.0027
   73loPI   C3A 1161   1.931   1.024   8.093 -0.0351 -0.2310  0.0700
   73loPI   C4A 1162   1.581   0.931   7.788 -0.2168  0.2831  0.0081
   73loPI   C5A 1163   1.140   0.792   7.809 -0.1749 -0.3286  0.0887
   73loPI   C6A 1164   0.703   1.119   7.915  0.1923 -0.0333 -0.0954
   73loPI   C1B 1165   2.592   1.353   8.441 -0.0306  0.1001  0.0729
   73loPI   C2B 1166   2.329   1.535   8.061 -0.0272 -0.0392 -0.0258
   73loPI   C3B 1167   1.968   1.478   7.816  0.0007  0.0599 -0.2557
   73loPI   C4B 1168   1.809   1.645   7.524  0.0185  0.2945 -0.1012
   74loPI    C1 1169   5.455   1.740   9.629  0.0924 -0.0746  0.2295
   74loPI    C2 1170   5.254   1.469   9.845 -0.0561  0.0969  0.3088
   74loPI    C3 1171   5.112   1.842   9.808 -0.0183  0.0786 -0.0621
   74loPI   PO4 1172   5.532   1.506   9.322  0.1019 -0.3434  0.2636
   74loPI   GL1 1173   5.673   1.816   9.069 -0.1058  0.1160 -0.0272
   74loPI   GL2 1174   5.940   1.931   9.271  0.2635  0.2329  0.1719
   74loPI   C1A 1175   5.781   1.653   8.714  0.1086  0.0760 -0.2689
   74loPI   C2A 1176   5.665   1.671   8.320 -0.1112 -0.0460 -0.4104
   74loPI   C3A 1177   5.559   1.598   7.886  0.2820 -0.0241  0.0697
   74loPI   C4A 1178   5.599   1.726   7.396 -0.0764  0.3734  0.2192
   74loPI   C5A 1179   5.616   1.807   6.988 -0.1586 -0.1469 -0.1313
   74loPI   C6A 1180   5.350   1.758   6.584  0.1451 -0.2035  0.0125
   74loPI   C1B 1181   5.883   2.239   8.952  0.3767  0.2858  0.2000
   74loPI   C2B 1182   5.816   2.592   8.669  0.0563 -0.3318  0.0313
   74loPI   C3B 1183   5.790   2.669   8.209 -0.1231  0.3146 -0.0931
   74loPI   C4B 1184   5.696   2.628   7.839 -0.0696  0.1103 -0.1715
   75loPI    C1 1185   5.096  10.253   9.757 -0.0348 -0.0586  0.0888
   75loPI    C2 1186   5.053  10.230  10.154  0.1331  0.0076  0.1118
   75loPI    C3 1187   4.912   9.937   9.920 -0.2578  0.1229  0.1950
   75loPI   PO4 1188   5.373  10.361   9.789 -0.2876 -0.4821 -0.3963
   75loPI   GL1 1189   5.516  10.351   9.409  0.2377 -0.0409 -0.3005
   75loPI   GL2 1190   5.233  10.326   9.245 -0.2697 -0.3915 -0.1051
   75loPI   C1A 1191   5.674  10.487   9.065 -0.4500 -0.0976  0.0258
   75loPI   C2A 1192   5.669  10.453   8.615  0.0591  0.1838  0.0973
   75loPI   C3A 1193   5.695  10.237   8.288  0.0292  0.0546  0.0424
   75loPI   C4A 1194   5.789   9.963   7.951  0.3443 -0.2220 -0.1205
   75loPI   C5A 1195   5.988  10.039   7.583 -0.0260  0.2359 -0.3238
   75loPI   C6A 1196   5.794  10.024   7.186 -0.4083 -0.4540 -0.1285
   75loPI   C1B 1197   5.297  10.244   8.891 -0.1230  0.1534 -0.1701
   75loPI   C2B 1198   5.247  10.161   8.459 -0.1337  0.3301 -0.0829
   75loPI   C3B 1199   5.350  10.153   7.956  0.0429  0.4594  0.2082
   75loPI   C4B 1200   5.409  10.125   7.553 -0.0205  0.4427  0.0157
   76loPI    C1 1201   7.754   2.950  10.424  0.2131  0.2415  0.2099
   76loPI    C2 1202   8.120   2.812  10.510  0.0910 -0.0728  0.2394
   76loPI    C3 1203   7.809   2.713  10.742 -0.0446  0.0398  0.1077
   76loPI   PO4 1204   7.814   3.082  10.168  0.1082  0.1942  0.0689
   76loPI   GL1 1205   7.805   3.316   9.748 -0.0135 -0.1695 -0.0583
   76loPI   GL2 1206   7.952   3.096   9.651 -0.4650 -0.1707 -0.1305
   76loPI   C1A 1207   7.848   3.438   9.278 -0.0056 -0.2321  0.1757
   76loPI   C2A 1208   7.952   3.391   8.839  0.0794  0.1884 -0.2445
   76loPI   C3A 1209   7.987   3.443   8.357  0.4061 -0.3579 -0.3482
   76loPI   C4A 1210   7.828   3.598   8.014 -0.1668 -0.1324 -0.0377
   76loPI   C5A 1211   7.538   3.868   7.754  0.1151  0.1398  0.3010
   76loPI   C6A 1212   7.502   4.355   7.733  0.3074 -0.4432  0.2858
   76loPI   C1B 1213   8.228   3.057   9.307 -0.2290  0.2759  0.0941
   76loPI   C2B 1214   8.585   3.125   8.962  0.2640 -0.1770  0.0247
   76loPI   C3B 1215   8.729   3.114   8.448  0.3232  0.0593  0.1414
   76loPI   C4B 1216   8.937   2.923   8.090  0.3370  0.1414  0.0167
   77loPI    C1 1217   4.069  11.055  10.154 -0.0166  0.1742 -0.2112
   77loPI    C2 1218   3.931  10.731  10.343  0.0643  0.0752 -0.3204
   77loPI    C3 1219   3.725  11.074  10.358  0.0563  0.0614 -0.0766
   77loPI   PO4 1220   4.119  10.893   9.770 -0.2047 -0.1759 -0.2825
   77loPI   GL1 1221   4.171  11.006   9.387  0.2234 -0.0191 -0.0896
   77loPI   GL2 1222   3.946  11.361   9.470  0.0147  0.1618 -0.3271
   77loPI   C1A 1223   4.313  11.011   8.986  0.4287  0.3140 -0.2315
   77loPI   C2A 1224   3.936  10.991   8.677 -0.6167 -0.2543  0.1756
   77loPI   C3A 1225   3.653  11.187   8.459 -0.1508  0.0212  0.2026
   77loPI   C4A 1226   3.539  11.558   8.232 -0.1478  0.0569  0.2486
   77loPI   C5A 1227   3.637  11.935   8.137  0.2163  0.0400  0.1725
   77loPI   C6A 1228   3.345  12.313   7.922 -0.1951  0.0965  0.2045
   77loPI   C1B 1229   3.943  11.410   9.041 -0.2663  0.1524  0.1226
   77loPI   C2B 1230   3.968  11.630   8.608  0.1896 -0.0774  0.1332
   77loPI   C3B 1231   4.109  11.957   8.401  0.2686 -0.2216 -0.0331
   77loPI   C4B 1232   4.265  12.202   7.877 -0.2749  0.1181  0.0074
   78loPI    C1 1233   8.246   9.404  10.649  0.0235  0.0116  0.0799
   78loPI    C2 1234   7.905   9.555  10.794  0.0193  0.0771  0.0022
   78loPI    C3 1235   7.903   9.203  10.603  0.0365 -0.0444  0.2232
   78loPI   PO4 1236   8.426   9.651  10.558 -0.0297  0.1492 -0.0688
   78loPI   GL1 1237   8.562   9.904  10.373  0.4024 -0.0860 -0.0132
   78loPI   GL2 1238   8.421  10.231  10.268  0.1642 -0.0350  0.0266
   78loPI   C1A 1239   8.508   9.631   9.914 -0.1761  0.5656 -0.1130
   78loPI   C2A 1240   8.229   9.515   9.625  0.0983 -0.1353  0.0303
   78loPI   C3A 1241   8.021   9.304   9.268 -0.1756  0.0833 -0.0775
   78loPI   C4A 1242   7.902   9.279   8.869  0.2956 -0.2498 -0.0908
   78loPI   C5A 1243   7.817   9.370   8.479 -0.2301  0.2034  0.0162
   78loPI   C6A 1244   7.863   9.265   8.086  0.0050 -0.1104  0.0446
   78loPI   C1B 1245   8.662  10.115   9.966 -0.0975 -0.0318  0.2164
   78loPI   C2B 1246   8.639   9.976   9.508  0.0342  0.0282  0.2375
   78loPI   C3B 1247   8.790   9.825   9.084  0.4088 -0.0832 -0.0258
   78loPI   C4B 1248   8.801   9.657   8.647 -0.3502  0.1137  0.1411
   79loPI    C1 1249   3.036  15.482   9.926  0.0287 -0.2176  0.0153
   79loPI    C2 1250   3.243  15.816   9.996 -0.2823 -0.0021 -0.0712
   79loPI    C3 1251   3.167  15.561  10.295  0.0610 -0.0603 -0.0293
   79loPI   PO4 1252   2.887  15.600   9.750  0.1818  0.3445  0.4147
   79loPI   GL1 1253   2.778  15.466   9.435  0.0365 -0.1725 -0.1189
   79loPI   GL2 1254   3.009  15.170   9.365  0.3075  0.1831  0.1588
   79loPI   C1A 1255   2.511  15.079   9.301  0.1370  0.1253 -0.0896
   79loPI   C2A 1256   2.325  14.802   9.026 -0.4220  0.3722  0.0952
   79loPI   C3A 1257   2.435  14.756   8.552 -0.0738  0.1072  0.1874
   79loPI   C4A 1258   2.737  14.831   8.277 -0.2966 -0.2264 -0.1193
   79loPI   C5A 1259   2.840  14.737   7.841 -0.0936  0.1864 -0.0440
   79loPI   C6A 1260   3.128  14.726   7.632 -0.1152  0.1491 -0.2633
   79loPI   C1B 1261   2.786  15.212   8.898 -0.0006 -0.0785 -0.0234
   79loPI   C2B 1262   2.847  15.284   8.385  0.0112 -0.4386  0.1131
   79loPI   C3B 1263   2.885  15.223   7.995 -0.0706  0.1192 -0.2034
   79loPI   C4B 1264   3.115  15.223   7.625 -0.0708 -0.2395 -0.1469
   80loPI    C1 1265   8.369   0.073  10.535 -0.0628  0.2402 -0.1971
   80loPI    C2 1266   8.531   0.391  10.716 -0.2300  0.1796  0.0643
   80loPI    C3 1267   8.152   0.289  10.792 -0.1685 -0.1005  0.0061
   80loPI   PO4 1268   8.627   0.015  10.308 -0.0355 -0.0456 -0.3279
   80loPI   GL1 1269   8.665   0.008   9.844 -0.5733 -0.0931  0.1990
   80loPI   GL2 1270   8.805  -0.294   9.769  0.0943  0.2482  0.2084
   80loPI   C1A 1271   8.365  -0.092   9.480  0.2851 -0.2553  0.0997
   80loPI   C2A 1272   8.041  -0.173   9.219  0.3710  0.0713 -0.3132
   80loPI   C3A 1273   7.619  -0.174   8.855 -0.0379  0.2389  0.1871
   80loPI   C4A 1274   7.778  -0.054   8.453 -0.4200 -0.3773 -0.0590
   80loPI   C5A 1275   7.765   0.250   8.030  0.1069  0.3163 -0.1505
   80loPI   C6A 1276   7.681   0.521   7.623  0.0968 -0.1618 -0.0151
   80loPI   C1B 1277   8.947  -0.035   9.363 -0.0364  0.0769 -0.0058
   80loPI   C2B 1278   9.156   0.028   9.022  0.2072  0.0703 -0.0400
   80loPI   C3B 1279   9.353  -0.109   8.752  0.1018 -0.2112 -0.2892
   80loPI   C4B 1280   9.236  -0.471   8.582  0.0222  0.3781 -0.0125
   81loPI    C1 1281   1.301  16.132  10.174  0.0314  0.1205 -0.0052
   81loPI    C2 1282   1.584  15.870  10.069  0.0733  0.1649 -0.0034
   81loPI    C3 1283   1.341  15.789  10.376 -0.0329  0.0460 -0.1175
   81loPI   PO4 1284   1.142  16.180   9.956  0.0632  0.3250 -0.0745
   81loPI   GL1 1285   0.965  16.180   9.560 -0.1005 -0.0064 -0.0443
   81loPI   GL2 1286   1.215  16.408   9.532 -0.2110 -0.2193 -0.2737
   81loPI   C1A 1287   0.758  16.089   9.204 -0.0184 -0.1012  0.1917
   81loPI   C2A 1288   0.661  16.265   8.809 -0.6104 -0.0186 -0.1324
   81loPI   C3A 1289   0.864  16.464   8.378  0.1325  0.5254  0.0155
   81loPI   C4A 1290   1.167  16.756   8.312  0.0351  0.0756 -0.2272
   81loPI   C5A 1291   1.108  17.180   8.323  0.0118 -0.2913 -0.1554
   81loPI   C6A 1292   0.735  17.403   8.134 -0.2245  0.0954 -0.2663
   81loPI   C1B 1293   1.172  16.477   9.077 -0.2909  0.1969 -0.1064
   81loPI   C2B 1294   0.931  16.815   8.818 -0.0526  0.1064  0.1812
   81loPI   C3B 1295   0.637  16.907   8.435  0.4030 -0.0668  0.0395
   81loPI   C4B 1296   0.687  16.899   8.007 -0.1004  0.1842 -0.1842
   82loPI    C1 1297  16.633   9.625  10.350 -0.0351 -0.0335  0.0646
   82loPI    C2 1298  17.006   9.643  10.492  0.0239  0.3065 -0.1199
   82loPI    C3 1299  16.860   9.296  10.357  0.1764  0.1127  0.2005
   82loPI   PO4 1300  16.609   9.792  10.236  0.0869 -0.0757 -0.4501
   82loPI   GL1 1301  16.511   9.868   9.679  0.0797 -0.0799  0.1036
   82loPI   GL2 1302  16.756  10.061   9.769  0.0958  0.1943  0.0356
   82loPI   C1A 1303  16.672   9.955   9.151  0.1645  0.0535 -0.0744
   82loPI   C2A 1304  16.611   9.935   8.737 -0.0907 -0.0517  0.0467
   82loPI   C3A 1305  16.624   9.847   8.210 -0.4422 -0.1897 -0.2877
   82loPI   C4A 1306  16.301   9.742   7.934  0.0429 -0.0319 -0.4307
   82loPI   C5A 1307  16.195   9.323   7.775  0.2214 -0.1005 -0.2801
   82loPI   C6A 1308  16.194   9.146   7.380  0.3582 -0.2834  0.1660
   82loPI   C1B 1309  16.533  10.328   9.559 -0.2278 -0.0994 -0.3778
   82loPI   C2B 1310  16.436  10.537   9.198 -0.4044 -0.0664  0.2286
   82loPI   C3B 1311  16.552  10.470   8.766 -0.0943  0.2069  0.0318
   82loPI   C4B 1312  16.763  10.271   8.340 -0.2981  0.0286  0.0921
   83loPI    C1 1313   1.366   7.654   9.671  0.0359  0.0738  0.1217
   83loPI    C2 1314   0.986   7.639   9.797  0.0073 -0.0722  0.0200
   83loPI    C3 1315   1.281   7.514  10.036 -0.0098  0.0291  0.0942
   83loPI   PO4 1316   1.354   8.001   9.560  0.1102  0.3741  0.0361
   83loPI   GL1 1317   1.290   8.088   9.220  0.2107 -0.1923  0.1177
   83loPI   GL2 1318   1.387   7.701   9.179 -0.1208  0.3188 -0.2518
   83loPI   C1A 1319   1.440   8.292   8.847 -0.1046 -0.0022  0.0094
   83loPI   C2A 1320   1.542   7.990   8.353  0.0797  0.3665 -0.1601
   83loPI   C3A 1321   1.202   7.899   8.018  0.1223  0.1387 -0.0920
   83loPI   C4A 1322   0.884   7.787   7.792 -0.5642  0.0653  0.1782
   83loPI   C5A 1323   0.544   7.481   7.574 -0.0873 -0.3063  0.2010
   83loPI   C6A 1324   0.253   7.133   7.510  0.2035  0.1285  0.2211
   83loPI   C1B 1325   1.536   7.704   8.768  0.0096  0.0090 -0.1642
   83loPI   C2B 1326   1.959   7.874   8.640 -0.4214  0.0026 -0.2980
   83loPI   C3B 1327   2.246   7.890   8.223  0.2701 -0.1118 -0.0472
   83loPI   C4B 1328   2.289   8.032   7.670  0.0552 -0.0466  0.0385
   84loPI    C1 1329   9.703   8.522  11.030  0.0721 -0.1592 -0.0710
   84loPI    C2 1330   9.460   8.820  11.142  0.0496 -0.1735 -0.0817
   84loPI    C3 1331   9.312   8.454  11.078  0.0779 -0.1880 -0.0638
   84loPI   PO4 1332   9.783   8.713  10.778 -0.0827  0.0556  0.1600
   84loPI   GL1 1333   9.680   8.986  10.292  0.2997 -0.1277 -0.3346
   84loPI   GL2 1334   9.856   8.614  10.268  0.2137 -0.0109  0.0033
   84loPI   C1A 1335   9.929   9.011   9.918  0.1677  0.2711 -0.1380
   84loPI   C2A 1336  10.093   8.940   9.456 -0.3377  0.3259 -0.2001
   84loPI   C3A 1337  10.279   8.874   9.012 -0.1068 -0.0046 -0.4447
   84loPI   C4A 1338  10.123   8.724   8.625 -0.0596  0.0133  0.0757
   84loPI   C5A 1339   9.753   8.723   8.276 -0.1659  0.1066 -0.1071
   84loPI   C6A 1340   9.892   8.907   7.945 -0.4052  0.0470  0.2406
   84loPI   C1B 1341  10.058   8.479   9.977 -0.0870 -0.1738  0.1232
   84loPI   C2B 1342  10.420   8.327   9.871  0.0619 -0.1280  0.3109
   84loPI   C3B 1343  10.619   8.085   9.602 -0.2333  0.1087 -0.2082
   84loPI   C4B 1344  10.713   8.057   9.262  0.1229  0.0512  0.0265
   85loPI    C1 1345  14.025   1.557  10.548 -0.1914  0.2635  0.0299
   85loPI    C2 1346  13.654   1.588  10.401 -0.1574  0.4388 -0.0201
   85loPI    C3 1347  13.741   1.743  10.760 -0.1732  0.2502  0.0661
   85loPI   PO4 1348  14.239   1.517  10.337 -0.2836 -0.0309 -0.0221
   85loPI   GL1 1349  14.650   1.674  10.133 -0.2882  0.0528  0.1075
   85loPI   GL2 1350  14.777   1.408  10.034  0.1946  0.1600 -0.0811
   85loPI   C1A 1351  14.388   1.759   9.706  0.2598  0.2125 -0.0811
   85loPI   C2A 1352  14.239   2.128   9.417 -0.2881  0.0313  0.0215
   85loPI   C3A 1353  14.293   2.305   9.013 -0.4297 -0.2683  0.0671
   85loPI   C4A 1354  14.156   2.641   8.827  0.1103  0.1818 -0.0314
   85loPI   C5A 1355  14.161   3.045   8.582  0.2779 -0.1873 -0.1555
   85loPI   C6A 1356  14.446   3.300   8.414 -0.0945 -0.0205  0.0832
   85loPI   C1B 1357  14.592   1.323   9.534  0.4297 -0.2793 -0.2146
   85loPI   C2B 1358  14.422   1.628   9.249  0.0716  0.0086  0.0587
   85loPI   C3B 1359  14.133   1.866   9.012  0.2533 -0.1707  0.0702
   85loPI   C4B 1360  13.801   2.210   9.101 -0.1661 -0.0052 -0.2006
   86loPI    C1 1361   2.691  18.179   9.776  0.2188  0.2079 -0.0211
   86loPI    C2 1362   2.814  17.981  10.101  0.0913  0.0629 -0.0599
   86loPI    C3 1363   2.950  18.351  10.028 -0.0591  0.1901  0.2829
   86loPI   PO4 1364   2.437  17.983   9.727  0.2091  0.0222  0.2169
   86loPI   GL1 1365   2.156  17.979   9.389  0.1369 -0.1023 -0.0228
   86loPI   GL2 1366   2.461  17.811   9.247 -0.0243 -0.0428  0.0431
   86loPI   C1A 1367   2.036  18.247   9.126  0.2454 -0.0682 -0.3424
   86loPI   C2A 1368   1.802  18.568   8.851 -0.0514  0.1915 -0.3446
   86loPI   C3A 1369   1.583  18.518   8.465  0.0814  0.2582  0.2277
   86loPI   C4A 1370   1.358  18.644   8.204  0.2092  0.3251  0.0414
   86loPI   C5A 1371   1.039  18.753   7.981 -0.1207  0.0542 -0.1023
   86loPI   C6A 1372   0.823  19.105   7.941  0.2781  0.1462 -0.2633
   86loPI   C1B 1373   2.391  17.509   8.962 -0.0430  0.3190  0.0969
   86loPI   C2B 1374   2.398  17.481   8.551  0.0493 -0.0917  0.2330
   86loPI   C3B 1375   2.228  17.093   8.198 -0.0611 -0.3749 -0.1591
   86loPI   C4B 1376   2.484  16.728   8.057 -0.1740 -0.2280  0.0519
   87loPI    C1 1377   6.355  16.262   9.404 -0.0400  0.1595  0.1365
   87loPI    C2 1378   6.308  15.866   9.429 -0.4436  0.2032  0.1299
   87loPI    C3 1379   6.229  16.098   9.746  0.0754  0.2582  0.2279
   87loPI   PO4 1380   6.544  16.372   9.368 -0.0223 -0.0654 -0.5039
   87loPI   GL1 1381   6.599  16.572   8.958 -0.2285  0.4246  0.0376
   87loPI   GL2 1382   6.302  16.633   8.957 -0.1445  0.0944 -0.0381
   87loPI   C1A 1383   6.813  16.599   8.605  0.0744  0.0669 -0.0438
   87loPI   C2A 1384   6.816  16.720   8.113  0.1940 -0.0994  0.2290
   87loPI   C3A 1385   6.945  16.910   7.728  0.3910 -0.1388 -0.0377
   87loPI   C4A 1386   6.634  16.932   7.413  0.1739  0.1819 -0.1611
   87loPI   C5A 1387   6.263  16.989   7.173  0.3165 -0.4019 -0.0005
   87loPI   C6A 1388   5.935  17.110   6.979 -0.0327 -0.1384 -0.2986
   87loPI   C1B 1389   6.240  16.721   8.607  0.2021  0.1974 -0.0773
   87loPI   C2B 1390   6.313  16.879   8.203  0.0337  0.1201 -0.1772
   87loPI   C3B 1391   6.583  17.191   7.866 -0.1400  0.2034 -0.0083
   87loPI   C4B 1392   6.860  17.451   7.747 -0.1143 -0.1203  0.0530
   88loPI    C1 1393  16.969  17.499  10.662 -0.1336  0.0692 -0.0628
   88loPI    C2 1394  16.952  17.865  10.502  0.0739  0.1138  0.0146
   88loPI    C3 1395  17.210  17.788  10.798  0.1785 -0.1490 -0.1413
   88loPI   PO4 1396  17.030  17.375  10.380  0.0137  0.0904 -0.2846
   88loPI   GL1 1397  17.027  17.438  10.010 -0.0513  0.1670 -0.0849
   88loPI   GL2 1398  17.167  17.716  10.099 -0.3010 -0.0829  0.2135
   88loPI   C1A 1399  17.017  17.019   9.783 -0.0235 -0.0937 -0.0345
   88loPI   C2A 1400  16.824  16.945   9.419 -0.2441  0.1314 -0.1940
   88loPI   C3A 1401  16.817  16.952   8.969  0.0815 -0.1532  0.0076
   88loPI   C4A 1402  16.933  16.968   8.510 -0.0433 -0.1270 -0.1506
   88loPI   C5A 1403  17.302  17.006   8.294 -0.0457  0.0842  0.0315
   88loPI   C6A 1404  17.438  17.146   7.920 -0.1128 -0.1737 -0.2179
   88loPI   C1B 1405  17.006  17.727   9.615 -0.0860 -0.0685  0.1818
   88loPI   C2B 1406  17.243  17.767   9.190  0.1128  0.0354  0.0317
   88loPI   C3B 1407  17.430  17.710   8.771 -0.1712 -0.1437  0.1469
   88loPI   C4B 1408  17.620  17.943   8.415 -0.2219  0.0988 -0.2433
   89loPI    C1 1409  12.142  10.399  10.599  0.0517  0.1289 -0.1500
   89loPI    C2 1410  11.953  10.467  10.945  0.1955 -0.0842 -0.0276
   89loPI    C3 1411  12.274  10.685  10.846  0.1785 -0.0502 -0.0085
   89loPI   PO4 1412  12.188  10.137  10.512  0.2575  0.0290 -0.2852
   89loPI   GL1 1413  12.208   9.842  10.203  0.1166  0.1586  0.0907
   89loPI   GL2 1414  12.355   9.580  10.193 -0.0035  0.0394  0.1752
   89loPI   C1A 1415  11.931   9.945   9.865  0.1969  0.1853  0.0628
   89loPI   C2A 1416  11.554  10.099   9.594 -0.2777 -0.1534  0.0519
   89loPI   C3A 1417  11.332  10.221   9.277  0.1310  0.0369  0.1710
   89loPI   C4A 1418  11.033  10.344   9.052 -0.0525  0.0072 -0.3360
   89loPI   C5A 1419  10.974  10.244   8.603 -0.1839  0.1331  0.1155
   89loPI   C6A 1420  10.812  10.153   8.234  0.0788  0.1185 -0.1887
   89loPI   C1B 1421  12.351   9.277   9.790  0.0950 -0.0213  0.5519
   89loPI   C2B 1422  12.182   9.296   9.414 -0.0758 -0.0474 -0.0121
   89loPI   C3B 1423  12.106   9.492   9.114 -0.0441  0.2061 -0.3514
   89loPI   C4B 1424  11.771   9.684   8.842 -0.1247  0.1548 -0.1473
   90loPI    C1 1425   5.075   0.639   9.776 -0.1105  0.0029 -0.1254
   90loPI    C2 1426   5.224   0.761  10.127 -0.0557  0.1161 -0.1873
   90loPI    C3 1427   4.870   0.575  10.114  0.0793 -0.1590 -0.0383
   90loPI   PO4 1428   5.192   0.455   9.663 -0.0922 -0.1392  0.0956
   90loPI   GL1 1429   5.201   0.460   9.238 -0.4199 -0.0350 -0.3201
   90loPI   GL2 1430   4.982   0.618   9.227 -0.0969  0.0013  0.1611
   90loPI   C1A 1431   5.413   0.562   8.883 -0.1675 -0.1230 -0.1274
   90loPI   C2A 1432   5.499   0.730   8.435  0.2001 -0.0190 -0.1665
   90loPI   C3A 1433   5.458   0.617   7.967  0.1635  0.5197  0.1039
   90loPI   C4A 1434   5.127   0.498   7.746  0.2270  0.2227 -0.3875
   90loPI   C5A 1435   4.921   0.233   7.446 -0.1313  0.3170 -0.2739
   90loPI   C6A 1436   4.561  -0.024   7.313  0.0996 -0.0049 -0.1747
   90loPI   C1B 1437   4.938   0.642   8.823  0.1418  0.2697  0.3340
   90loPI   C2B 1438   4.740   0.662   8.467 -0.2669  0.2474 -0.1613
   90loPI   C3B 1439   4.688   0.380   8.031 -0.2092 -0.3866  0.0657
   90loPI   C4B 1440   4.402   0.316   7.686  0.2605 -0.4356  0.1666
   91loPI    C1 1441   6.304   4.328  10.193 -0.0403  0.0286 -0.0534
   91loPI    C2 1442   6.505   4.332  10.539  0.1995  0.0037 -0.1902
   91loPI    C3 1443   6.317   4.662  10.412  0.1930  0.0413 -0.0840
   91loPI   PO4 1444   6.531   4.246   9.930  0.1015 -0.1021 -0.1552
   91loPI   GL1 1445   6.519   4.449   9.608 -0.1300  0.3629  0.0569
   91loPI   GL2 1446   6.487   4.762   9.534  0.1498  0.0191 -0.3537
   91loPI   C1A 1447   6.851   4.258   9.266 -0.1140 -0.1877  0.0527
   91loPI   C2A 1448   7.026   4.276   8.867  0.3487 -0.0287  0.0605
   91loPI   C3A 1449   7.006   4.339   8.324  0.3866 -0.0132  0.0374
   91loPI   C4A 1450   7.058   4.582   7.900  0.3689  0.0394  0.1049
   91loPI   C5A 1451   7.046   4.936   7.721  0.2494  0.1757  0.0806
   91loPI   C6A 1452   7.183   5.298   7.512  0.0514  0.2087 -0.1208
   91loPI   C1B 1453   6.556   4.557   9.016  0.1397 -0.4511 -0.0523
   91loPI   C2B 1454   6.642   4.644   8.566  0.1729  0.0175 -0.0953
   91loPI   C3B 1455   6.983   4.873   8.349  0.0907  0.1170  0.2329
   91loPI   C4B 1456   7.367   4.720   8.328 -0.1742 -0.0687 -0.0552
   92loPI    C1 1457  13.311  11.901  10.375 -0.0502  0.0861 -0.1039
   92loPI    C2 1458  13.169  11.786  10.731  0.2091  0.2888  0.0690
   92loPI    C3 1459  13.562  11.843  10.682  0.1323  0.6822 -0.1280
   92loPI   PO4 1460  13.135  11.889  10.225 -0.5575 -0.1448 -0.2801
   92loPI   GL1 1461  13.229  11.866   9.784 -0.2022 -0.1609 -0.3694
   92loPI   GL2 1462  13.284  11.506   9.830  0.4100 -0.0900  0.1009
   92loPI   C1A 1463  13.158  11.775   9.341 -0.1815  0.2732  0.0690
   92loPI   C2A 1464  12.796  11.576   9.136 -0.0133 -0.0491 -0.3738
   92loPI   C3A 1465  12.612  11.669   8.821 -0.2030  0.0787  0.2940
   92loPI   C4A 1466  12.379  11.490   8.557  0.2587 -0.1440  0.0118
   92loPI   C5A 1467  12.003  11.384   8.553  0.1061  0.2009  0.0463
   92loPI   C6A 1468  11.768  11.124   8.175  0.2394  0.2214 -0.1705
   92loPI   C1B 1469  13.273  11.313   9.371 -0.0234 -0.0479  0.0175
   92loPI   C2B 1470  13.168  11.401   8.903 -0.3987  0.2749  0.4985
   92loPI   C3B 1471  13.010  11.537   8.510  0.1295  0.1263  0.2771
   92loPI   C4B 1472  12.951  11.720   8.106 -0.3234 -0.0734  0.0738
   93loPI    C1 1473   4.930  10.923  10.480  0.0337  0.0003 -0.0596
   93loPI    C2 1474   4.533  10.871  10.487  0.0321  0.0358  0.3663
   93loPI    C3 1475   4.776  10.556  10.448 -0.0368  0.0214  0.0303
   93loPI   PO4 1476   4.997  11.148  10.312  0.5153  0.1259 -0.0462
   93loPI   GL1 1477   5.043  11.150   9.814  0.0872 -0.0501 -0.3672
   93loPI   GL2 1478   5.161  10.812   9.579  0.3851 -0.0033 -0.1138
   93loPI   C1A 1479   5.462  11.155   9.535 -0.3272  0.0150 -0.0970
   93loPI   C2A 1480   5.529  11.211   8.966  0.1029 -0.0034  0.0637
   93loPI   C3A 1481   5.597  11.150   8.507  0.0008 -0.0400  0.0640
   93loPI   C4A 1482   5.359  11.352   8.271 -0.2794 -0.1768 -0.1037
   93loPI   C5A 1483   5.294  11.512   7.896 -0.4827  0.2688 -0.0681
   93loPI   C6A 1484   5.372  11.704   7.509  0.0177 -0.0107  0.1716
   93loPI   C1B 1485   5.225  10.859   9.164 -0.3165  0.1075  0.2576
   93loPI   C2B 1486   5.327  10.810   8.744 -0.0231 -0.2061 -0.0466
   93loPI   C3B 1487   5.329  10.602   8.301  0.2654  0.0167 -0.0400
   93loPI   C4B 1488   4.991  10.606   7.940  0.0810 -0.4139 -0.0539
   94loPI    C1 1489  15.674   1.346  10.482  0.1708  0.1706 -0.1070
   94loPI    C2 1490  15.807   1.344  10.859  0.0649 -0.0068 -0.0689
   94loPI    C3 1491  15.500   1.579  10.757  0.0006 -0.0655 -0.0108
   94loPI   PO4 1492  15.881   1.355  10.390  0.0350 -0.0369  0.4952
   94loPI   GL1 1493  16.034   1.347   9.968  0.0977 -0.3945 -0.0858
   94loPI   GL2 1494  15.761   1.082   9.993 -0.3043  0.1019  0.1179
   94loPI   C1A 1495  16.104   1.364   9.619 -0.4742 -0.1480 -0.0458
   94loPI   C2A 1496  16.341   1.335   9.296 -0.3689  0.0716  0.2522
   94loPI   C3A 1497  16.567   1.096   8.922 -0.1325  0.0414 -0.1470
   94loPI   C4A 1498  16.738   0.702   8.569  0.2984 -0.0372 -0.1526
   94loPI   C5A 1499  16.636   0.446   8.303 -0.0170 -0.1138  0.1277
   94loPI   C6A 1500  16.199   0.357   8.090 -0.0191  0.2451  0.3647
   94loPI   C1B 1501  15.661   0.945   9.626  0.2200 -0.5720 -0.2053
   94loPI   C2B 1502  15.798   0.922   9.184 -0.2962  0.0054  0.1002
   94loPI   C3B 1503  16.112   0.884   8.874  0.0711 -0.0101 -0.1665
   94loPI   C4B 1504  16.079   0.751   8.407  0.0865 -0.2203  0.0182
   95loPI    C1 1505   0.073  15.255  10.106  0.2160 -0.0015  0.1383
   95loPI    C2 1506   0.167  15.050  10.436 -0.0414 -0.1485  0.1229
   95loPI    C3 1507  -0.092  15.354  10.457  0.1967  0.0585  0.1125
   95loPI   PO4 1508   0.054  15.043   9.913 -0.1988 -0.1156  0.1299
   95loPI   GL1 1509   0.273  14.858   9.530  0.1850 -0.0211  0.0257
   95loPI   GL2 1510   0.496  14.522   9.621  0.2181  0.3202  0.0136
   95loPI   C1A 1511   0.013  14.734   9.314  0.0335 -0.2815 -0.1079
   95loPI   C2A 1512  -0.221  14.702   8.981  0.3453  0.0467  0.2188
   95loPI   C3A 1513  -0.481  14.574   8.604 -0.0927  0.2094  0.0781
   95loPI   C4A 1514  -0.678  14.535   8.223 -0.3026 -0.3926  0.3474
   95loPI   C5A 1515  -1.075  14.641   8.145  0.1055 -0.1007 -0.0677
   95loPI   C6A 1516  -1.118  14.671   7.819  0.2493  0.0347  0.2290
   95loPI   C1B 1517   0.688  14.466   9.305 -0.1611 -0.2134  0.0007
   95loPI   C2B 1518   0.556  14.583   8.929 -0.1633 -0.0073  0.1779
   95loPI   C3B 1519   0.571  14.816   8.551 -0.2265  0.1291 -0.0487
   95loPI   C4B 1520   0.266  14.974   8.200  0.0176 -0.0502  0.2542
   96loPI    C1 1521  11.252   0.746  10.216 -0.2031  0.1865 -0.1739
   96loPI    C2 1522  11.051   0.868  10.540 -0.2771 -0.0490 -0.1294
   96loPI    C3 1523  11.040   0.483  10.430  0.2100 -0.0832 -0.0843
   96loPI   PO4 1524  11.522   0.876  10.273 -0.4644  0.3357 -0.3224
   96loPI   GL1 1525  11.695   0.877   9.819  0.1158  0.0882 -0.0515
   96loPI   GL2 1526  11.596   1.026   9.832 -0.0755 -0.0656  0.1206
   96loPI   C1A 1527  11.851   0.826   9.439 -0.4783 -0.0096  0.0486
   96loPI   C2A 1528  11.902   0.778   9.045 -0.0505  0.1602  0.3569
   96loPI   C3A 1529  11.783   0.683   8.661  0.0202  0.0051  0.3063
   96loPI   C4A 1530  11.811   0.580   8.219  0.0058  0.0986 -0.2253
   96loPI   C5A 1531  11.548   0.470   7.923  0.1758 -0.2784 -0.0493
   96loPI   C6A 1532  11.733   0.282   7.643  0.0886 -0.1227  0.1336
   96loPI   C1B 1533  11.459   1.207   9.380 -0.2719  0.0286 -0.2283
   96loPI   C2B 1534  11.511   1.082   9.033 -0.0986 -0.1908 -0.0736
   96loPI   C3B 1535  11.501   1.037   8.691  0.1442 -0.0938 -0.0021
   96loPI   C4B 1536  11.224   0.945   8.288 -0.3928  0.0541  0.1848
   97loPI    C1 1537   9.218   3.916   9.736  0.2623 -0.2739  0.0999
   97loPI    C2 1538   9.283   4.311   9.750  0.1718 -0.2597  0.1246
   97loPI    C3 1539   9.036   4.139  10.014 -0.1230 -0.2678 -0.1494
   97loPI   PO4 1540   9.527   3.794   9.758 -0.0003 -0.1841 -0.2417
   97loPI   GL1 1541   9.752   3.689   9.415  0.1580 -0.1407  0.2215
   97loPI   GL2 1542   9.337   3.450   9.521  0.3365  0.0109  0.2286
   97loPI   C1A 1543   9.813   3.438   9.054  0.0784 -0.1626 -0.0057
   97loPI   C2A 1544   9.823   3.375   8.509 -0.2235  0.0594  0.2204
   97loPI   C3A 1545   9.892   3.647   8.061  0.0532  0.0001  0.0110
   97loPI   C4A 1546  10.199   3.923   8.100  0.1001 -0.2354  0.2110
   97loPI   C5A 1547  10.336   4.202   8.319 -0.0674  0.1131 -0.0969
   97loPI   C6A 1548  10.144   4.204   8.647 -0.0098 -0.0690  0.0759
   97loPI   C1B 1549   9.296   3.567   9.084 -0.3141  0.3469 -0.2533
   97loPI   C2B 1550   9.386   3.614   8.683  0.0851 -0.2669 -0.0641
   97loPI   C3B 1551   9.119   3.625   8.217  0.0523  0.3107 -0.3480
   97loPI   C4B 1552   8.875   3.485   8.064  0.0291  0.0833  0.2057
   98loPI    C1 1553   8.063   6.947  10.192  0.1116 -0.2493 -0.1377
   98loPI    C2 1554   7.854   6.689  10.414 -0.1808  0.0708 -0.0325
   98loPI    C3 1555   8.247   6.730  10.472 -0.1922 -0.1043  0.1813
   98loPI   PO4 1556   7.937   6.921   9.911  0.2626  0.3996 -0.0120
   98loPI   GL1 1557   7.971   7.142   9.592  0.2172  0.0017  0.0697
   98loPI   GL2 1558   7.787   7.364   9.422  0.1975  0.0519 -0.2005
   98loPI   C1A 1559   8.305   7.269   9.457  0.2546  0.0238  0.1299
   98loPI   C2A 1560   8.581   7.381   9.231 -0.0465  0.0538 -0.0362
   98loPI   C3A 1561   8.780   7.443   8.812 -0.1490 -0.3983  0.0555
   98loPI   C4A 1562   8.739   7.388   8.438  0.1274 -0.0530  0.0027
   98loPI   C5A 1563   8.655   7.720   8.072 -0.1573  0.2316  0.0411
   98loPI   C6A 1564   8.740   8.101   8.131 -0.1032 -0.1530  0.3708
   98loPI   C1B 1565   7.910   7.421   9.090 -0.4210  0.4107  0.0261
   98loPI   C2B 1566   8.038   7.817   8.794  0.1172 -0.2303 -0.0732
   98loPI   C3B 1567   7.971   8.116   8.432  0.2512  0.0621 -0.2473
   98loPI   C4B 1568   7.932   8.567   8.422 -0.1261  0.0984 -0.0411
   99loPI    C1 1569   5.434  18.167   9.736  0.2573 -0.0530  0.0516
   99loPI    C2 1570   5.765  18.194   9.959  0.2399  0.2539  0.0445
   99loPI    C3 1571   5.427  18.052  10.119  0.3343  0.0805  0.0936
   99loPI   PO4 1572   5.398  18.395   9.681 -0.1367 -0.4044  0.0977
   99loPI   GL1 1573   5.178  18.386   9.328 -0.2147 -0.2435  0.0761
   99loPI   GL2 1574   4.975  18.289   9.115  0.1553  0.0567  0.1135
   99loPI   C1A 1575   5.464  18.805   9.138  0.0910 -0.1668  0.0868
   99loPI   C2A 1576   5.518  18.799   8.687  0.0696 -0.3609 -0.1670
   99loPI   C3A 1577   5.621  18.887   8.244 -0.0653 -0.0082  0.0075
   99loPI   C4A 1578   5.790  18.970   7.883 -0.0795 -0.0794 -0.3236
   99loPI   C5A 1579   5.907  18.864   7.498 -0.1879 -0.5858  0.1494
   99loPI   C6A 1580   6.344  18.648   7.463  0.1236 -0.1884  0.2637
   99loPI   C1B 1581   5.235  18.444   8.794  0.0462 -0.0218 -0.0135
   99loPI   C2B 1582   5.372  18.498   8.364 -0.0457  0.3355 -0.1133
   99loPI   C3B 1583   5.746  18.471   8.019 -0.1821  0.3080 -0.3050
   99loPI   C4B 1584   6.069  18.345   7.945  0.0935 -0.2038 -0.0873
  100loPI    C1 1585  17.269  15.331  10.145 -0.1149 -0.1131  0.0974
  100loPI    C2 1586  16.918  15.472  10.273 -0.1625 -0.1072 -0.0387
  100loPI    C3 1587  17.041  15.551   9.901  0.0141 -0.0529  0.0302
  100loPI   PO4 1588  17.255  15.087  10.139  0.3113  0.0439 -0.0192
  100loPI   GL1 1589  16.863  15.033   9.773  0.0653 -0.1160 -0.1305
  100loPI   GL2 1590  16.539  15.198   9.623 -0.2484 -0.3420 -0.5077
  100loPI   C1A 1591  17.042  15.342   9.481 -0.4819 -0.1771 -0.0871
  100loPI   C2A 1592  17.030  15.436   9.042 -0.0809  0.1114 -0.0005
  100loPI   C3A 1593  16.938  15.370   8.597  0.1396 -0.0848 -0.0339
  100loPI   C4A 1594  17.119  15.639   8.274  0.1242  0.0458 -0.2266
  100loPI   C5A 1595  17.329  15.776   7.912 -0.1366 -0.0594 -0.2601
  100loPI   C6A 1596  17.325  15.803   7.444 -0.1213  0.2405  0.1445
  100loPI   C1B 1597  16.504  15.186   9.255 -0.2044 -0.0371  0.0091
  100loPI   C2B 1598  16.416  15.235   8.816 -0.0251  0.0949 -0.1277
  100loPI   C3B 1599  16.131  15.396   8.401  0.0782 -0.1209 -0.1818
  100loPI   C4B 1600  15.857  15.726   8.104  0.1320 -0.3312 -0.2166
  101loPI    C1 1601   6.982   8.238  10.569 -0.1922 -0.1497  0.1751
  101loPI    C2 1602   6.813   8.542  10.768 -0.1348 -0.0471  0.0683
  101loPI    C3 1603   7.206   8.477  10.798 -0.1319 -0.0534  0.0166
  101loPI   PO4 1604   6.856   8.013  10.374 -0.2691 -0.1442  0.1919
  101loPI   GL1 1605   6.749   7.972   9.881 -0.0145  0.2227 -0.2310
  101loPI   GL2 1606   6.598   8.241   9.927  0.0687  0.0952  0.1896
  101loPI   C1A 1607   7.008   8.239   9.534 -0.3528  0.2446 -0.0772
  101loPI   C2A 1608   6.858   8.204   9.167  0.0510 -0.1428  0.2112
  101loPI   C3A 1609   6.537   7.951   8.729  0.0544  0.0444 -0.1724
  101loPI   C4A 1610   6.513   8.058   8.311 -0.2542 -0.1633  0.0580
  101loPI   C5A 1611   6.128   8.143   8.047 -0.1284 -0.1276 -0.0321
  101loPI   C6A 1612   5.825   7.930   7.796 -0.2095  0.0580 -0.0248
  101loPI   C1B 1613   6.529   8.559   9.734  0.0097 -0.0067  0.2730
  101loPI   C2B 1614   6.394   8.400   9.280  0.0735  0.1703  0.0726
  101loPI   C3B 1615   6.119   8.280   8.905  0.2496 -0.0524 -0.0374
  101loPI   C4B 1616   5.942   8.138   8.530  0.1062 -0.4670  0.3475
  102loPI    C1 1617   8.900  14.831  10.342 -0.0858  0.2362 -0.0076
  102loPI    C2 1618   8.683  15.071  10.107 -0.2180  0.1036 -0.0233
  102loPI    C3 1619   8.529  14.933  10.449 -0.1246  0.0805  0.0098
  102loPI   PO4 1620   9.079  14.671  10.194 -0.0852 -0.1544 -0.0034
  102loPI   GL1 1621   9.234  14.267  10.174  0.0680  0.4204 -0.0615
  102loPI   GL2 1622   9.110  14.245   9.863 -0.0531 -0.4494  0.0741
  102loPI   C1A 1623   9.655  14.216   9.826  0.1808  0.0037  0.0409
  102loPI   C2A 1624   9.560  14.060   9.363  0.3532  0.0421 -0.0715
  102loPI   C3A 1625   9.596  13.978   8.963 -0.3023 -0.3359  0.1115
  102loPI   C4A 1626   9.639  13.624   8.651 -0.1165 -0.2756 -0.0136
  102loPI   C5A 1627   9.631  13.416   8.303  0.0592 -0.0162  0.1053
  102loPI   C6A 1628   9.520  12.915   8.271  0.2394  0.0399  0.0285
  102loPI   C1B 1629   8.930  14.156   9.452  0.1181  0.3134 -0.0772
  102loPI   C2B 1630   9.029  13.938   9.106 -0.0455  0.1596 -0.1910
  102loPI   C3B 1631   9.180  13.704   8.820 -0.4768  0.4262 -0.1800
  102loPI   C4B 1632   9.220  13.751   8.347  0.0001  0.4200  0.2131
  103loPI    C1 1633   4.163   6.856   9.983 -0.1259 -0.0095 -0.2526
  103loPI    C2 1634   4.220   6.461  10.000 -0.2897 -0.0187  0.2088
  103loPI    C3 1635   4.526   6.710  10.064 -0.1901 -0.0681 -0.0653
  103loPI   PO4 1636   4.014   6.868   9.760  0.1311 -0.4471 -0.1958
  103loPI   GL1 1637   3.793   7.115   9.439 -0.1092 -0.2731 -0.1904
  103loPI   GL2 1638   3.491   6.857   9.638  0.5749  0.1890  0.0035
  103loPI   C1A 1639   4.067   7.346   9.103 -0.1095  0.0958  0.0291
  103loPI   C2A 1640   4.146   7.701   8.807 -0.0645 -0.0724  0.3317
  103loPI   C3A 1641   4.214   7.782   8.327 -0.0878  0.0394 -0.2892
  103loPI   C4A 1642   4.072   7.869   7.932 -0.3065  0.0784  0.2365
  103loPI   C5A 1643   4.220   7.943   7.484 -0.1140 -0.1760 -0.0551
  103loPI   C6A 1644   4.009   8.014   7.098 -0.0799 -0.0290  0.2601
  103loPI   C1B 1645   3.411   6.885   9.264 -0.1562  0.1444 -0.1888
  103loPI   C2B 1646   3.647   7.017   8.971  0.2345  0.1676  0.1292
  103loPI   C3B 1647   3.642   6.962   8.578 -0.2743  0.0217 -0.0255
  103loPI   C4B 1648   3.560   7.032   8.205  0.3401  0.2245  0.2435
  104loPI    C1 1649  11.411   2.607  10.190 -0.1989 -0.1287 -0.1527
  104loPI    C2 1650  11.199   2.520  10.518 -0.0528  0.1252  0.0126
  104loPI    C3 1651  11.011   2.594  10.173 -0.2084 -0.1268  0.0404
  104loPI   PO4 1652  11.730   2.499  10.185 -0.2393 -0.0508 -0.0665
  104loPI   GL1 1653  11.742   2.306   9.791  0.0241  0.2155 -0.0022
  104loPI   GL2 1654  11.915   1.994   9.705 -0.2249  0.1104 -0.0745
  104loPI   C1A 1655  11.490   2.366   9.364 -0.1650  0.0165  0.3357
  104loPI   C2A 1656  11.446   2.326   9.002  0.0378  0.0802 -0.2122
  104loPI   C3A 1657  11.537   2.172   8.644 -0.0594  0.1267  0.1525
  104loPI   C4A 1658  11.421   2.173   8.155 -0.0440 -0.0113  0.2187
  104loPI   C5A 1659  11.682   2.242   7.772  0.1737  0.1533  0.0652
  104loPI   C6A 1660  11.499   2.401   7.352  0.2168 -0.0214  0.1140
  104loPI   C1B 1661  11.880   2.066   9.361 -0.2273 -0.0070  0.1737
  104loPI   C2B 1662  11.928   1.944   9.007  0.1747 -0.2056 -0.1133
  104loPI   C3B 1663  12.030   2.054   8.602 -0.0966  0.1201  0.1090
  104loPI   C4B 1664  11.903   2.318   8.232 -0.0535  0.1222 -0.0727
  105loPI    C1 1665   4.991   2.860   9.494 -0.1159 -0.0383 -0.0534
  105loPI    C2 1666   4.676   2.650   9.365 -0.0767 -0.0272 -0.1684
  105loPI    C3 1667   4.631   2.918   9.658 -0.1298 -0.1845 -0.0312
  105loPI   PO4 1668   5.197   2.616   9.589  0.0858  0.4869  0.0414
  105loPI   GL1 1669   5.524   2.612   9.235  0.0213  0.1579 -0.0968
  105loPI   GL2 1670   5.773   2.683   9.136 -0.0654 -0.3051 -0.1719
  105loPI   C1A 1671   5.219   2.437   8.911  0.0088  0.0645 -0.1432
  105loPI   C2A 1672   4.994   2.269   8.574 -0.2366  0.1274 -0.1578
  105loPI   C3A 1673   4.882   2.465   8.205  0.1385  0.0257  0.1976
  105loPI   C4A 1674   5.192   2.790   8.012 -0.2517 -0.0327 -0.0668
  105loPI   C5A 1675   5.248   3.076   7.639  0.0556 -0.1490  0.2627
  105loPI   C6A 1676   5.525   3.233   7.282  0.2991 -0.2270  0.0009
  105loPI   C1B 1677   5.530   3.048   8.874  0.2554 -0.0888  0.4472
  105loPI   C2B 1678   5.600   3.159   8.286 -0.2701  0.0909  0.1967
  105loPI   C3B 1679   5.660   3.250   7.812  0.2256  0.1324 -0.0489
  105loPI   C4B 1680   5.995   3.205   7.483 -0.1986 -0.2587  0.2104
  106loPI    C1 1681  10.497  14.450  10.602  0.0861 -0.0865  0.1681
  106loPI    C2 1682  10.442  14.055  10.630 -0.0693 -0.0702  0.1020
  106loPI    C3 1683  10.131  14.304  10.671  0.0278  0.0454  0.1416
  106loPI   PO4 1684  10.627  14.478  10.357 -0.2410 -0.1658  0.3741
  106loPI   GL1 1685  10.569  14.407   9.939 -0.0304 -0.1405  0.2078
  106loPI   GL2 1686  10.490  14.665   9.874 -0.1853 -0.1095  0.1403
  106loPI   C1A 1687  10.663  14.194   9.576  0.1830 -0.0300 -0.0821
  106loPI   C2A 1688  10.530  14.026   9.176 -0.0590 -0.0325 -0.1102
  106loPI   C3A 1689  10.548  13.905   8.733 -0.0927  0.2771  0.0507
  106loPI   C4A 1690  10.521  13.778   8.272  0.1307  0.1485 -0.0397
  106loPI   C5A 1691  10.796  13.810   7.870  0.4194  0.1167 -0.1103
  106loPI   C6A 1692  11.241  14.083   7.817  0.4081 -0.0245  0.1387
  106loPI   C1B 1693  10.491  14.675   9.510 -0.2556  0.0505 -0.0780
  106loPI   C2B 1694  10.497  14.503   9.086 -0.0384  0.0729  0.0841
  106loPI   C3B 1695  10.605  14.410   8.664  0.0332 -0.1618  0.0174
  106loPI   C4B 1696  10.758  14.257   8.280  0.1025  0.1644  0.2449
  107loPI    C1 1697  15.331  12.805  10.848 -0.0049  0.3692  0.0050
  107loPI    C2 1698  15.035  12.849  11.115  0.0891 -0.0989  0.1962
  107loPI    C3 1699  15.092  12.496  10.935 -0.0388  0.2341 -0.5344
  107loPI   PO4 1700  15.369  12.914  10.649 -0.3727  0.1492 -0.0627
  107loPI   GL1 1701  15.226  12.900  10.178 -0.0481 -0.1016 -0.0114
  107loPI   GL2 1702  15.132  12.660   9.920  0.0606  0.0950 -0.0381
  107loPI   C1A 1703  14.985  13.088   9.747  0.0306  0.2577 -0.0323
  107loPI   C2A 1704  15.089  12.941   9.339  0.0597  0.3499  0.3172
  107loPI   C3A 1705  15.382  12.771   9.162  0.1512 -0.0112  0.0416
  107loPI   C4A 1706  15.262  12.858   8.834  0.0026  0.0033  0.4385
  107loPI   C5A 1707  15.405  13.074   8.402  0.1933 -0.1965 -0.3693
  107loPI   C6A 1708  15.232  12.946   8.040 -0.2826 -0.2855 -0.3429
  107loPI   C1B 1709  15.214  12.499   9.613  0.1819  0.0813 -0.0791
  107loPI   C2B 1710  15.019  12.368   9.228 -0.2534  0.3006  0.3551
  107loPI   C3B 1711  14.888  12.504   8.840  0.0781  0.0279 -0.1137
  107loPI   C4B 1712  14.792  12.536   8.330 -0.1813  0.0449  0.0670
  108loPI    C1 1713   4.916  14.494   9.629  0.0156 -0.0354 -0.5509
  108loPI    C2 1714   4.541  14.631   9.652  0.0220 -0.1023  0.1653
  108loPI    C3 1715   4.848  14.887   9.666  0.0135 -0.0620 -0.2517
  108loPI   PO4 1716   4.887  14.368   9.413  0.1976 -0.0012  0.0149
  108loPI   GL1 1717   4.601  14.465   9.015 -0.0326 -0.1601 -0.1703
  108loPI   GL2 1718   4.809  14.216   8.915  0.4030  0.0363  0.0573
  108loPI   C1A 1719   4.473  14.465   8.565 -0.1916  0.2226  0.0265
  108loPI   C2A 1720   4.150  14.641   8.277 -0.1337  0.0633 -0.0649
  108loPI   C3A 1721   4.079  14.541   7.903  0.1060  0.0264 -0.3621
  108loPI   C4A 1722   4.062  14.305   7.564  0.1737  0.2628 -0.0978
  108loPI   C5A 1723   3.900  13.971   7.560 -0.1021 -0.0531  0.0654
  108loPI   C6A 1724   3.732  13.506   7.533 -0.2074 -0.0204  0.0348
  108loPI   C1B 1725   4.523  13.875   8.737  0.2084 -0.1343  0.0873
  108loPI   C2B 1726   4.553  13.668   8.460 -0.0729  0.0615  0.0219
  108loPI   C3B 1727   4.622  13.678   7.973 -0.0846  0.3535 -0.0342
  108loPI   C4B 1728   4.959  13.860   7.681 -0.1738  0.1707  0.1267
  109loPI    C1 1729  17.886   5.202  10.280  0.0869 -0.1004 -0.0509
  109loPI    C2 1730  18.243   5.204  10.459  0.0980 -0.1935 -0.0717
  109loPI    C3 1731  17.954   4.962  10.593 -0.0433  0.0720  0.1122
  109loPI   PO4 1732  17.971   5.192  10.017  0.1371 -0.2700 -0.1346
  109loPI   GL1 1733  17.848   5.262   9.626 -0.1016  0.0963 -0.0255
  109loPI   GL2 1734  17.980   5.105   9.374  0.0623 -0.1503 -0.0769
  109loPI   C1A 1735  17.625   5.403   9.186  0.1642  0.2291 -0.0188
  109loPI   C2A 1736  17.382   5.369   8.774 -0.0366  0.1620  0.3384
  109loPI   C3A 1737  17.265   5.272   8.399  0.2132  0.0303 -0.2553
  109loPI   C4A 1738  17.206   5.005   8.049  0.3359  0.1296  0.1359
  109loPI   C5A 1739  17.125   4.601   8.011 -0.0779  0.2625 -0.0839
  109loPI   C6A 1740  16.902   4.202   8.097  0.0586  0.0150  0.0128
  109loPI   C1B 1741  18.112   4.828   9.082 -0.0093  0.1050  0.0174
  109loPI   C2B 1742  17.916   4.658   8.713  0.2640  0.3198 -0.0345
  109loPI   C3B 1743  17.864   4.279   8.496  0.0315 -0.2519 -0.3526
  109loPI   C4B 1744  17.812   3.856   8.616  0.3421  0.1973 -0.2301
  110loPI    C1 1745   1.614   1.443   9.839  0.3883  0.0678  0.0821
  110loPI    C2 1746   1.560   1.681   9.521 -0.1105  0.0787  0.1669
  110loPI    C3 1747   1.549   1.835   9.890  0.1337  0.0115  0.2040
  110loPI   PO4 1748   1.624   1.191   9.685 -0.5528  0.0149 -0.2016
  110loPI   GL1 1749   1.499   1.051   9.207  0.0141  0.0822 -0.1963
  110loPI   GL2 1750   1.925   1.097   9.247 -0.0467 -0.0648  0.3981
  110loPI   C1A 1751   1.624   1.174   8.856 -0.1440 -0.1685  0.1960
  110loPI   C2A 1752   1.562   1.295   8.437 -0.1083  0.0697  0.0969
  110loPI   C3A 1753   1.761   1.614   8.225 -0.1186 -0.3251 -0.2333
  110loPI   C4A 1754   1.612   1.893   7.903 -0.2045 -0.2691  0.1155
  110loPI   C5A 1755   1.651   2.265   7.773  0.0487  0.3945 -0.3897
  110loPI   C6A 1756   1.727   2.626   7.654 -0.0830  0.0456 -0.2512
  110loPI   C1B 1757   2.047   0.901   8.937 -0.2337 -0.0139 -0.1427
  110loPI   C2B 1758   2.247   0.504   8.837 -0.2817 -0.0142 -0.0863
  110loPI   C3B 1759   2.566   0.411   8.660  0.0473 -0.0384  0.0921
  110loPI   C4B 1760   2.715   0.521   8.238  0.4271 -0.1363 -0.2040
  111loPI    C1 1761   3.426  17.697   9.881 -0.0814  0.0636 -0.0111
  111loPI    C2 1762   3.734  17.952   9.894  0.0310 -0.0589 -0.2043
  111loPI    C3 1763   3.382  18.054  10.055  0.1938  0.0516  0.0876
  111loPI   PO4 1764   3.605  17.392   9.808  0.0597 -0.0875 -0.2157
  111loPI   GL1 1765   3.801  17.357   9.396  0.0125  0.1318 -0.3130
  111loPI   GL2 1766   3.921  17.733   9.383 -0.0055 -0.3828  0.0549
  111loPI   C1A 1767   3.957  17.119   9.068 -0.1950 -0.3373  0.3685
  111loPI   C2A 1768   4.060  16.801   8.782 -0.0701 -0.0388 -0.2186
  111loPI   C3A 1769   3.981  16.721   8.435  0.0741  0.1021 -0.0627
  111loPI   C4A 1770   3.914  16.797   8.073  0.2986 -0.2589 -0.0027
  111loPI   C5A 1771   4.075  17.014   7.719 -0.3408 -0.1181  0.2571
  111loPI   C6A 1772   3.890  17.067   7.235  0.0932  0.1282  0.0629
  111loPI   C1B 1773   3.961  17.616   8.904  0.1371 -0.2011  0.2091
  111loPI   C2B 1774   3.871  17.343   8.534 -0.1177 -0.0214  0.0913
  111loPI   C3B 1775   3.837  17.379   8.102  0.1769  0.0012 -0.1963
  111loPI   C4B 1776   3.815  17.429   7.589 -0.1914  0.1258 -0.1104
  112loPI    C1 1777   0.296   7.055   9.517 -0.4413 -0.1528  0.2614
  112loPI    C2 1778   0.212   7.250   9.856 -0.0257 -0.2060  0.4004
  112loPI    C3 1779   0.301   6.860   9.866  0.0086 -0.2032  0.2320
  112loPI   PO4 1780   0.368   7.275   9.357 -0.1574 -0.1052  0.0652
  112loPI   GL1 1781   0.224   7.480   9.026 -0.2365 -0.1345 -0.0807
  112loPI   GL2 1782   0.403   7.785   9.131 -0.2341  0.1162  0.1134
  112loPI   C1A 1783   0.018   7.695   8.741  0.1417 -0.3413  0.1223
  112loPI   C2A 1784   0.082   7.554   8.348  0.1977 -0.0696  0.1441
  112loPI   C3A 1785   0.419   7.439   8.043 -0.2996 -0.2053  0.0126
  112loPI   C4A 1786   0.861   7.349   7.915 -0.0959 -0.0519  0.0483
  112loPI   C5A 1787   1.039   7.264   7.522  0.0809 -0.1183  0.1266
  112loPI   C6A 1788   0.723   7.207   7.174 -0.1295 -0.1694 -0.0160
  112loPI   C1B 1789   0.799   7.886   8.925  0.4649  0.0809  0.2461
  112loPI   C2B 1790   0.971   8.210   8.543  0.1360  0.2200  0.2552
  112loPI   C3B 1791   0.897   8.265   7.989  0.1787  0.0928  0.0231
  112loPI   C4B 1792   1.045   8.283   7.520  0.0389 -0.0735  0.2198
  113loPI    C1 1793  13.976   4.412  10.004 -0.0271 -0.3603  0.0773
  113loPI    C2 1794  13.672   4.431  10.264 -0.0006 -0.0802  0.0913
  113loPI    C3 1795  14.041   4.533  10.380  0.0292 -0.0486 -0.0293
  113loPI   PO4 1796  13.929   4.511   9.857  0.2086  0.1151 -0.0853
  113loPI   GL1 1797  13.749   4.660   9.492  0.1367 -0.1394 -0.0764
  113loPI   GL2 1798  13.526   4.372   9.318 -0.1465  0.2977 -0.2921
  113loPI   C1A 1799  13.965   4.645   9.210 -0.0526 -0.3043  0.3619
  113loPI   C2A 1800  14.198   4.544   8.810  0.1259 -0.2410  0.0798
  113loPI   C3A 1801  14.466   4.625   8.542  0.2527 -0.2108 -0.0412
  113loPI   C4A 1802  14.426   4.601   8.162 -0.0068  0.2512 -0.2802
  113loPI   C5A 1803  14.421   4.726   7.708  0.1291  0.0206 -0.1355
  113loPI   C6A 1804  14.436   4.937   7.284  0.1492 -0.0131 -0.0571
  113loPI   C1B 1805  13.634   4.485   8.903 -0.1140  0.2483  0.4039
  113loPI   C2B 1806  13.661   4.591   8.339  0.0929  0.0156 -0.4390
  113loPI   C3B 1807  13.462   4.551   7.884  0.0247  0.0702  0.0833
  113loPI   C4B 1808  13.347   4.614   7.420 -0.0238  0.1437  0.1777
  114loPI    C1 1809  18.600   2.209  10.230  0.1477 -0.1004 -0.0199
  114loPI    C2 1810  18.797   2.550  10.297  0.0875 -0.1115  0.2210
  114loPI    C3 1811  18.598   2.372  10.595 -0.2110 -0.1494  0.0036
  114loPI   PO4 1812  18.469   2.253   9.951 -0.1818 -0.5900  0.1392
  114loPI   GL1 1813  18.482   2.521   9.634 -0.3797  0.2979 -0.0229
  114loPI   GL2 1814  18.728   2.708   9.481 -0.1926 -0.1700 -0.1636
  114loPI   C1A 1815  18.316   2.647   9.275  0.2484 -0.1291  0.0470
  114loPI   C2A 1816  18.258   2.634   8.845 -0.1952 -0.2937  0.1088
  114loPI   C3A 1817  18.338   2.531   8.397 -0.1275 -0.1150  0.1159
  114loPI   C4A 1818  18.127   2.293   8.065 -0.4045 -0.0328 -0.0369
  114loPI   C5A 1819  17.860   2.459   7.786 -0.6534 -0.1967 -0.1569
  114loPI   C6A 1820  17.475   2.507   7.647  0.1354 -0.1970  0.0265
  114loPI   C1B 1821  18.804   2.864   9.077 -0.3375 -0.3777 -0.3778
  114loPI   C2B 1822  18.760   2.874   8.672  0.1783  0.1090  0.0324
  114loPI   C3B 1823  18.531   3.060   8.311  0.0444  0.0209 -0.2904
  114loPI   C4B 1824  18.228   3.243   8.068  0.0649 -0.0294  0.0920
  115loPI    C1 1825   6.440   5.388  10.085  0.5826  0.1171 -0.1160
  115loPI    C2 1826   6.572   5.095  10.323 -0.0117  0.0297  0.1239
  115loPI    C3 1827   6.609   5.477  10.436  0.2537  0.0214  0.0710
  115loPI   PO4 1828   6.516   5.285   9.818 -0.1658 -0.1034 -0.0005
  115loPI   GL1 1829   6.550   5.442   9.471 -0.1159  0.1766  0.2554
  115loPI   GL2 1830   6.706   5.161   9.283  0.0093  0.2761 -0.4610
  115loPI   C1A 1831   6.523   5.487   8.941 -0.1350 -0.2187 -0.2128
  115loPI   C2A 1832   6.821   5.127   8.760 -0.2536 -0.1114 -0.0563
  115loPI   C3A 1833   6.989   4.763   8.942 -0.1505 -0.0038 -0.1475
  115loPI   C4A 1834   7.384   4.597   8.805 -0.2898 -0.2614 -0.2503
  115loPI   C5A 1835   7.509   4.281   8.515  0.3842  0.0740 -0.0082
  115loPI   C6A 1836   7.564   4.096   8.139  0.1556 -0.1018 -0.1156
  115loPI   C1B 1837   6.365   5.007   8.858 -0.2490 -0.1110  0.0273
  115loPI   C2B 1838   6.399   5.038   8.420  0.1449 -0.0051  0.2169
  115loPI   C3B 1839   6.584   4.873   8.022 -0.0958  0.2796  0.1691
  115loPI   C4B 1840   6.425   4.912   7.594  0.0023  0.2050  0.1778
  116loPI    C1 1841  14.613   5.802  10.030 -0.0136  0.0781  0.3811
  116loPI    C2 1842  14.572   5.420  10.144 -0.0341 -0.0188  0.0576
  116loPI    C3 1843  14.804   5.668  10.355  0.2118 -0.2863  0.1060
  116loPI   PO4 1844  14.705   5.783   9.775 -0.1067 -0.0165 -0.0106
  116loPI   GL1 1845  14.961   5.933   9.496  0.1504 -0.3059 -0.0851
  116loPI   GL2 1846  15.231   6.154   9.501 -0.0641  0.0252 -0.0666
  116loPI   C1A 1847  15.015   5.889   9.092 -0.0372  0.0751 -0.0954
  116loPI   C2A 1848  15.116   5.854   8.615 -0.1137 -0.0063 -0.1325
  116loPI   C3A 1849  15.432   5.782   8.309 -0.2200 -0.2960  0.0384
  116loPI   C4A 1850  15.652   5.845   7.966  0.1469 -0.0042 -0.0662
  116loPI   C5A 1851  16.112   5.951   7.950  0.0547  0.1188  0.0961
  116loPI   C6A 1852  16.375   6.142   7.554  0.0291 -0.4792 -0.1647
  116loPI   C1B 1853  15.191   6.359   9.067  0.2423 -0.0875  0.2910
  116loPI   C2B 1854  15.155   6.370   8.701 -0.2079  0.0949 -0.1985
  116loPI   C3B 1855  15.041   6.241   8.274 -0.0478  0.3198  0.1015
  116loPI   C4B 1856  14.932   5.849   8.149  0.1023  0.0356  0.2067
  117loPI    C1 1857   8.319   4.474  10.193  0.1419 -0.0291 -0.0093
  117loPI    C2 1858   8.509   4.158  10.350  0.0752  0.0195  0.1721
  117loPI    C3 1859   8.431   4.478  10.578 -0.2005  0.0114  0.0929
  117loPI   PO4 1860   8.461   4.517   9.956 -0.2927  0.2382 -0.1385
  117loPI   GL1 1861   8.630   4.461   9.669 -0.0683  0.1786  0.3330
  117loPI   GL2 1862   8.888   4.454   9.573  0.3007 -0.2459 -0.0111
  117loPI   C1A 1863   8.489   4.577   9.267  0.0987  0.0123 -0.0743
  117loPI   C2A 1864   8.346   4.263   8.953 -0.1807 -0.0857  0.0982
  117loPI   C3A 1865   8.622   4.028   8.662 -0.1979 -0.0011  0.2138
  117loPI   C4A 1866   8.611   3.950   8.179 -0.1882 -0.1409 -0.1034
  117loPI   C5A 1867   8.466   4.012   7.769 -0.0669 -0.1594  0.3502
  117loPI   C6A 1868   8.228   4.316   7.489  0.0012  0.0092  0.0956
  117loPI   C1B 1869   8.991   4.484   9.153  0.0055  0.0305 -0.1053
  117loPI   C2B 1870   8.733   4.538   8.744  0.3430  0.1246  0.1699
  117loPI   C3B 1871   8.488   4.429   8.420 -0.0148 -0.1050  0.1964
  117loPI   C4B 1872   8.351   4.451   8.016  0.4489 -0.0615 -0.0621
  118loPI    C1 1873   9.717   2.805  10.126 -0.0467  0.1730 -0.0587
  118loPI    C2 1874   9.830   2.422  10.102 -0.2464  0.0915  0.2427
  118loPI    C3 1875  10.046   2.681  10.316 -0.0654  0.1687 -0.0288
  118loPI   PO4 1876   9.567   2.793   9.860  0.3276 -0.0470 -0.0206
  118loPI   GL1 1877   9.308   2.740   9.423  0.2061  0.1060 -0.1414
  118loPI   GL2 1878   9.001   2.679   9.458  0.0092 -0.0515 -0.3165
  118loPI   C1A 1879   9.536   3.048   9.135 -0.0512  0.1304 -0.0939
  118loPI   C2A 1880   9.676   2.955   8.754 -0.1329 -0.2760 -0.3453
  118loPI   C3A 1881   9.790   2.740   8.319  0.3287 -0.0451 -0.0679
  118loPI   C4A 1882   9.652   2.509   7.987  0.0753  0.0351  0.0689
  118loPI   C5A 1883   9.618   2.075   7.872 -0.0075 -0.1688  0.1979
  118loPI   C6A 1884   9.730   1.701   7.973 -0.3558  0.0233  0.1161
  118loPI   C1B 1885   8.728   2.582   9.197 -0.3390  0.0451  0.0109
  118loPI   C2B 1886   8.407   2.690   8.891  0.0331 -0.0300  0.0424
  118loPI   C3B 1887   8.287   2.567   8.472 -0.0879  0.0968  0.2127
  118loPI   C4B 1888   7.998   2.654   8.224 -0.2714  0.0473 -0.1870
  119loPI    C1 1889  10.680  17.449  10.061  0.3253 -0.1611 -0.2005
  119loPI    C2 1890  10.685  17.150  10.326  0.0109 -0.0948 -0.1161
  119loPI    C3 1891  10.386  17.415  10.329  0.0532 -0.0378 -0.4778
  119loPI   PO4 1892  10.814  17.188   9.798  0.1301  0.3217  0.1494
  119loPI   GL1 1893  10.699  17.000   9.372  0.0367  0.0134  0.0118
  119loPI   GL2 1894  10.453  16.891   9.102 -0.1230  0.2406 -0.1065
  119loPI   C1A 1895  11.163  16.987   9.280 -0.1408  0.0006 -0.1598
  119loPI   C2A 1896  11.392  16.596   9.205  0.0100 -0.0733  0.0346
  119loPI   C3A 1897  11.558  16.411   8.779  0.0486  0.2766  0.0348
  119loPI   C4A 1898  11.680  16.341   8.422  0.0228 -0.3133  0.6416
  119loPI   C5A 1899  11.589  16.575   8.017 -0.2577  0.2200  0.0600
  119loPI   C6A 1900  11.377  16.731   7.713 -0.0071  0.0954 -0.3350
  119loPI   C1B 1901  10.824  16.777   8.894 -0.1753  0.0554  0.0267
  119loPI   C2B 1902  11.149  16.714   8.531 -0.3155  0.1862 -0.0205
  119loPI   C3B 1903  11.243  16.891   8.182  0.0214  0.0716 -0.3540
  119loPI   C4B 1904  11.585  17.153   7.935 -0.0945  0.2264 -0.0040
  120loPI    C1 1905   3.216  13.139   9.982  0.0405  0.0805  0.0785
  120loPI    C2 1906   3.367  12.938  10.293  0.1573  0.2536  0.1352
  120loPI    C3 1907   3.494  13.309  10.214 -0.0263  0.2907  0.0071
  120loPI   PO4 1908   3.131  12.960   9.824  0.0470 -0.2752  0.1051
  120loPI   GL1 1909   2.974  12.672   9.489 -0.2621 -0.0735  0.1957
  120loPI   GL2 1910   3.132  12.955   9.332  0.1269 -0.3068  0.0570
  120loPI   C1A 1911   2.771  12.686   9.100  0.3200  0.0932 -0.1141
  120loPI   C2A 1912   2.804  12.732   8.608  0.1217  0.0257 -0.3397
  120loPI   C3A 1913   2.671  12.653   8.179  0.0932 -0.1569  0.0713
  120loPI   C4A 1914   2.760  12.944   7.864  0.1047  0.1944  0.0410
  120loPI   C5A 1915   2.455  13.275   7.630  0.0276  0.2013 -0.2442
  120loPI   C6A 1916   2.439  13.740   7.793 -0.3783  0.1722 -0.3704
  120loPI   C1B 1917   3.070  13.016   8.925 -0.1567 -0.0856 -0.2169
  120loPI   C2B 1918   3.254  13.086   8.586  0.1579 -0.2930  0.1585
  120loPI   C3B 1919   3.376  13.242   8.186 -0.1072  0.1058  0.1422
  120loPI   C4B 1920   3.635  13.499   8.000  0.0286 -0.2188 -0.1623
  121loPI    C1 1921   0.436  15.964  10.300  0.0136 -0.2106  0.2661
  121loPI    C2 1922   0.836  15.952  10.310  0.0296  0.1422  0.1565
  121loPI    C3 1923   0.649  16.239  10.103 -0.2820 -0.0310  0.1922
  121loPI   PO4 1924   0.329  15.781  10.125 -0.1085 -0.1763 -0.1029
  121loPI   GL1 1925   0.105  15.600   9.727 -0.0061  0.2221  0.2344
  121loPI   GL2 1926   0.019  15.300   9.477 -0.0148  0.1397 -0.2143
  121loPI   C1A 1927   0.443  15.519   9.368  0.0060  0.2803 -0.5371
  121loPI   C2A 1928   0.577  15.646   8.977 -0.1969  0.1496 -0.0980
  121loPI   C3A 1929   0.696  15.738   8.632 -0.1041 -0.1914  0.1657
  121loPI   C4A 1930   0.751  15.937   8.253 -0.0787  0.1089  0.2790
  121loPI   C5A 1931   1.082  16.058   8.008  0.0126 -0.0097  0.0499
  121loPI   C6A 1932   1.231  16.397   7.708 -0.1279  0.1757  0.2352
  121loPI   C1B 1933   0.061  15.196   9.066  0.1954  0.3049 -0.1298
  121loPI   C2B 1934   0.106  14.907   8.660  0.0737 -0.0549  0.1394
  121loPI   C3B 1935  -0.190  14.932   8.305 -0.1175  0.2155 -0.1056
  121loPI   C4B 1936  -0.227  14.698   7.976 -0.3477 -0.0272 -0.2280
  122loPI    C1 1937   4.000  14.636   9.344  0.0929  0.1772  0.0212
  122loPI    C2 1938   4.022  14.578   9.739 -0.0658  0.1289  0.0237
  122loPI    C3 1939   4.079  14.271   9.489  0.0124  0.1548  0.0095
  122loPI   PO4 1940   4.162  14.892   9.362  0.2009  0.0521  0.0991
  122loPI   GL1 1941   4.215  15.205   9.017  0.1247 -0.1797 -0.0699
  122loPI   GL2 1942   4.249  14.926   8.855 -0.1013 -0.0856  0.0648
  122loPI   C1A 1943   4.073  15.607   8.777 -0.0400  0.1964 -0.1461
  122loPI   C2A 1944   3.894  15.580   8.340 -0.0298 -0.2009  0.1679
  122loPI   C3A 1945   3.720  15.457   7.948 -0.1603 -0.1111  0.2820
  122loPI   C4A 1946   3.545  15.631   7.686  0.3584 -0.1992  0.0531
  122loPI   C5A 1947   3.390  15.708   7.268  0.1415 -0.2107 -0.2825
  122loPI   C6A 1948   3.352  16.045   6.955 -0.1298  0.0113  0.0690
  122loPI   C1B 1949   4.274  15.196   8.414  0.0519 -0.1379  0.1547
  122loPI   C2B 1950   4.175  15.255   7.938 -0.4000 -0.1417 -0.0166
  122loPI   C3B 1951   4.192  15.073   7.594 -0.0179  0.0953  0.0778
  122loPI   C4B 1952   4.211  15.199   7.185  0.0997  0.0760 -0.0166
  123loPI    C1 1953   5.349   5.483   9.373  0.1839 -0.0019  0.0593
  123loPI    C2 1954   5.215   5.342   9.722  0.4262  0.1997  0.2373
  123loPI    C3 1955   5.583   5.496   9.697  0.3263  0.3987 -0.0542
  123loPI   PO4 1956   5.349   5.336   9.163  0.2015  0.2826  0.1890
  123loPI   GL1 1957   5.513   5.005   8.978  0.0338  0.2612  0.1956
  123loPI   GL2 1958   5.833   5.142   9.003  0.1418  0.0139 -0.2626
  123loPI   C1A 1959   5.143   4.763   8.849  0.2440  0.0265 -0.0215
  123loPI   C2A 1960   4.919   4.841   8.441 -0.0885 -0.0346  0.1227
  123loPI   C3A 1961   4.653   4.830   8.018 -0.0356 -0.0819 -0.1570
  123loPI   C4A 1962   4.211   5.083   8.042  0.0108  0.1086  0.0710
  123loPI   C5A 1963   3.992   5.042   8.365 -0.0383  0.2540 -0.0045
  123loPI   C6A 1964   3.949   5.132   8.833 -0.0051 -0.0793  0.1453
  123loPI   C1B 1965   5.811   5.169   8.626 -0.0299  0.0231  0.1930
  123loPI   C2B 1966   5.920   5.052   8.217  0.1829  0.1246 -0.0802
  123loPI   C3B 1967   5.814   5.343   7.826 -0.4066 -0.0355  0.0607
  123loPI   C4B 1968   5.686   5.706   7.712 -0.2878 -0.0593  0.3646
  124loPI    C1 1969   8.938   9.656  10.918 -0.1889  0.1062 -0.1269
  124loPI    C2 1970   8.979  10.033  11.043 -0.1653  0.0605  0.0047
  124loPI    C3 1971   9.126   9.733  11.262  0.0808 -0.0063 -0.2466
  124loPI   PO4 1972   8.899   9.684  10.696  0.1035 -0.0997 -0.2835
  124loPI   GL1 1973   9.078   9.788  10.252 -0.3103  0.0487  0.2862
  124loPI   GL2 1974   9.482   9.603  10.226 -0.3562 -0.0551 -0.3278
  124loPI   C1A 1975   9.000   9.720   9.833  0.1254  0.3803  0.2796
  124loPI   C2A 1976   8.744   9.488   9.534  0.1620 -0.0826 -0.1248
  124loPI   C3A 1977   8.767   9.342   9.195 -0.0796 -0.1423 -0.0166
  124loPI   C4A 1978   8.990   9.241   8.835  0.1428  0.0365 -0.0490
  124loPI   C5A 1979   9.095   9.330   8.368  0.2293 -0.3153  0.1034
  124loPI   C6A 1980   8.902   9.419   8.009 -0.0220  0.0276  0.2636
  124loPI   C1B 1981   9.469   9.487   9.816  0.0866 -0.0539  0.3380
  124loPI   C2B 1982   9.743   9.314   9.476  0.2147  0.0662  0.0153
  124loPI   C3B 1983   9.960   9.329   9.112 -0.1311 -0.0112 -0.3330
  124loPI   C4B 1984   9.809   9.062   8.787  0.1423  0.2920  0.0686
  125loPI    C1 1985  10.769   8.998  10.655 -0.1912 -0.0691  0.0880
  125loPI    C2 1986  10.992   8.812  10.930  0.1058  0.0250 -0.0857
  125loPI    C3 1987  10.800   9.150  11.024 -0.2524 -0.2404  0.1651
  125loPI   PO4 1988  10.570   8.860  10.566 -0.0411  0.0300 -0.1253
  125loPI   GL1 1989  10.317   8.897  10.194  0.3067  0.3072  0.1269
  125loPI   GL2 1990  10.657   8.562  10.206  0.1701  0.1933  0.0848
  125loPI   C1A 1991  10.473   8.789   9.805 -0.1105  0.1602  0.0628
  125loPI   C2A 1992  10.495   8.535   9.390 -0.2333 -0.0865 -0.2170
  125loPI   C3A 1993  10.281   8.338   9.056  0.0947  0.0938 -0.0496
  125loPI   C4A 1994  10.298   8.219   8.567  0.1353  0.2152 -0.0517
  125loPI   C5A 1995  10.532   8.058   8.271 -0.2124  0.0240  0.1578
  125loPI   C6A 1996  10.562   7.974   7.840  0.0762  0.2315 -0.1246
  125loPI   C1B 1997  10.901   8.445   9.816  0.3655 -0.1645  0.2812
  125loPI   C2B 1998  11.069   8.380   9.420 -0.0472 -0.0877 -0.4701
  125loPI   C3B 1999  10.865   8.451   9.008  0.0311 -0.1730 -0.0670
  125loPI   C4B 2000  10.700   8.670   8.700 -0.0300  0.2066 -0.1886
  126loPI    C1 2001  16.775   4.743  10.336 -0.2172  0.0765 -0.0074
  126loPI    C2 2002  16.781   4.393  10.143  0.0591  0.0533  0.0393
  126loPI    C3 2003  16.786   4.401  10.543 -0.1573  0.1080  0.0421
  126loPI   PO4 2004  16.809   4.926  10.162 -0.2954  0.1337 -0.5015
  126loPI   GL1 2005  17.041   4.731   9.784 -0.0428  0.0628 -0.1147
  126loPI   GL2 2006  16.715   4.850   9.708  0.0133 -0.2355  0.3513
  126loPI   C1A 2007  17.130   4.528   9.465 -0.1803  0.0066  0.3346
  126loPI   C2A 2008  17.285   4.496   9.092  0.0336 -0.0774 -0.0968
  126loPI   C3A 2009  17.370   4.310   8.751 -0.4234  0.0098 -0.0571
  126loPI   C4A 2010  17.422   4.147   8.282 -0.0281  0.1086  0.1204
  126loPI   C5A 2011  17.440   3.712   8.288 -0.0271  0.3803 -0.1677
  126loPI   C6A 2012  17.258   3.460   7.914 -0.0884 -0.1212 -0.0650
  126loPI   C1B 2013  16.633   4.568   9.479 -0.1026 -0.0890  0.2783
  126loPI   C2B 2014  16.743   4.692   9.148  0.0639 -0.2926  0.0975
  126loPI   C3B 2015  16.787   4.554   8.794 -0.4786 -0.1359  0.0502
  126loPI   C4B 2016  16.869   4.364   8.586 -0.2854 -0.0524  0.2592
  127loPI    C1 2017  11.174  16.798   9.809 -0.2358  0.1418 -0.2209
  127loPI    C2 2018  11.056  16.866  10.186 -0.2193  0.0675 -0.2021
  127loPI    C3 2019  11.446  16.867  10.095 -0.2195  0.0083 -0.2037
  127loPI   PO4 2020  11.000  16.509   9.832  0.1201  0.5714  0.2315
  127loPI   GL1 2021  10.890  16.452   9.403 -0.0377 -0.1888 -0.1492
  127loPI   GL2 2022  10.640  16.264   9.322  0.1045 -0.0421  0.2390
  127loPI   C1A 2023  11.035  16.340   8.909  0.3800  0.1222  0.1574
  127loPI   C2A 2024  11.021  16.223   8.427 -0.1420  0.0376  0.1175
  127loPI   C3A 2025  11.132  16.396   7.998 -0.0777  0.0314  0.0152
  127loPI   C4A 2026  11.232  16.211   7.603 -0.6247 -0.1877  0.1223
  127loPI   C5A 2027  11.348  16.311   7.171  0.0101  0.1925  0.0026
  127loPI   C6A 2028  11.604  16.023   6.889  0.1064  0.0779 -0.1802
  127loPI   C1B 2029  10.731  15.905   9.065  0.2696  0.1425  0.2018
  127loPI   C2B 2030  10.715  15.883   8.624 -0.0673 -0.1631  0.2541
  127loPI   C3B 2031  10.825  15.708   8.309  0.1895  0.2093  0.2257
  127loPI   C4B 2032  11.139  15.434   8.177  0.0717 -0.0171  0.3679
  128loPI    C1 2033   9.732  17.302   9.868 -0.0704  0.0295 -0.1504
  128loPI    C2 2034   9.937  17.327  10.211 -0.2932  0.1246 -0.0221
  128loPI    C3 2035   9.799  16.973  10.085 -0.1601  0.0803 -0.0443
  128loPI   PO4 2036   9.754  17.603   9.653 -0.1669 -0.3428  0.3010
  128loPI   GL1 2037   9.823  17.750   9.321  0.2887 -0.0684  0.5011
  128loPI   GL2 2038  10.129  17.845   9.445 -0.0646 -0.1336 -0.1294
  128loPI   C1A 2039   9.662  17.395   9.030  0.1445 -0.0800 -0.0919
  128loPI   C2A 2040   9.923  17.418   8.637  0.2611 -0.1041  0.0176
  128loPI   C3A 2041   9.765  17.482   8.261 -0.2770 -0.1279 -0.1545
  128loPI   C4A 2042   9.743  17.784   7.989  0.2213 -0.0229  0.0128
  128loPI   C5A 2043   9.406  18.188   8.072  0.6913 -0.2093  0.0475
  128loPI   C6A 2044   8.980  18.311   7.987 -0.2160  0.1885  0.0969
  128loPI   C1B 2045  10.216  17.644   9.069  0.2624 -0.2427  0.0178
  128loPI   C2B 2046  10.376  17.671   8.587 -0.0971  0.0886 -0.2059
  128loPI   C3B 2047  10.270  17.653   8.159 -0.2028  0.1420 -0.0186
  128loPI   C4B 2048  10.214  17.526   7.772 -0.0008 -0.1119  0.3500
  129loPI    C1 2049  13.098   3.381   9.874  0.1836 -0.2562  0.0596
  129loPI    C2 2050  12.959   3.037  10.024  0.1546 -0.2515  0.0436
  129loPI    C3 2051  12.982   3.362  10.256 -0.0021 -0.2132  0.0065
  129loPI   PO4 2052  13.249   3.330   9.769  0.1682 -0.2514  0.3429
  129loPI   GL1 2053  13.495   3.582   9.542 -0.0577  0.0888  0.3903
  129loPI   GL2 2054  13.552   3.900   9.489  0.0001  0.0934  0.0177
  129loPI   C1A 2055  13.653   3.543   9.137 -0.0221  0.1400 -0.0210
  129loPI   C2A 2056  13.839   3.499   8.591  0.1660  0.0364  0.1332
  129loPI   C3A 2057  14.138   3.681   8.297  0.1781 -0.2400 -0.2120
  129loPI   C4A 2058  14.248   3.968   7.979 -0.0941  0.2239 -0.0309
  129loPI   C5A 2059  14.264   4.146   7.616 -0.0992 -0.1532  0.1591
  129loPI   C6A 2060  14.441   4.411   7.358 -0.1473  0.2164  0.2757
  129loPI   C1B 2061  13.464   3.972   9.064 -0.1217  0.0560  0.0701
  129loPI   C2B 2062  13.386   3.767   8.672  0.2087  0.0191 -0.1067
  129loPI   C3B 2063  13.437   3.584   8.298  0.1012 -0.2720 -0.0793
  129loPI   C4B 2064  13.221   3.608   7.923 -0.0238 -0.1750  0.0980
  130loPI    C1 2065   0.871   4.668   9.804  0.1404  0.0280  0.0943
  130loPI    C2 2066   0.879   5.067   9.837  0.1225  0.0191  0.2116
  130loPI    C3 2067   0.791   4.842  10.156  0.1831 -0.0808  0.1582
  130loPI   PO4 2068   0.806   4.620   9.575 -0.2169 -0.5561  0.1842
  130loPI   GL1 2069   1.068   4.462   9.267  0.0906 -0.0774  0.1052
  130loPI   GL2 2070   0.785   4.492   9.088 -0.2623  0.0695  0.1202
  130loPI   C1A 2071   1.341   4.719   8.956 -0.1454  0.2737 -0.1084
  130loPI   C2A 2072   1.398   4.924   8.503 -0.1299  0.2374  0.2590
  130loPI   C3A 2073   1.361   5.283   8.197 -0.0178 -0.0942 -0.0624
  130loPI   C4A 2074   1.635   5.278   7.770  0.0808  0.2249 -0.0115
  130loPI   C5A 2075   1.811   5.094   7.485  0.2606 -0.0302 -0.0257
  130loPI   C6A 2076   2.137   5.245   7.289  0.0454  0.3187  0.0941
  130loPI   C1B 2077   0.971   4.299   8.755 -0.2876  0.2512  0.1358
  130loPI   C2B 2078   1.141   3.928   8.648 -0.0931  0.0115 -0.3366
  130loPI   C3B 2079   1.366   3.825   8.188  0.0118 -0.2704 -0.2826
  130loPI   C4B 2080   1.332   3.942   7.814  0.0219 -0.0480 -0.1571
  131loPI    C1 2081   5.196  17.206   9.908 -0.2183 -0.1065 -0.0923
  131loPI    C2 2082   4.863  17.367  10.060 -0.2407 -0.1293 -0.1173
  131loPI    C3 2083   5.081  17.114  10.280 -0.1027  0.0816 -0.0085
  131loPI   PO4 2084   5.288  17.443   9.717 -0.0866 -0.2704  0.2139
  131loPI   GL1 2085   5.497  17.740   9.440 -0.1436  0.2770  0.1403
  131loPI   GL2 2086   5.706  17.898   9.291 -0.3828  0.1716 -0.2090
  131loPI   C1A 2087   5.238  17.780   9.056 -0.1117 -0.2105  0.1584
  131loPI   C2A 2088   5.203  17.931   8.667 -0.2072  0.2206  0.0256
  131loPI   C3A 2089   5.157  18.053   8.188  0.0221  0.0423  0.0515
  131loPI   C4A 2090   5.311  18.355   7.845  0.0727  0.0748 -0.3958
  131loPI   C5A 2091   5.431  18.644   7.588 -0.0580  0.1550 -0.1235
  131loPI   C6A 2092   5.427  19.064   7.401 -0.0730  0.2171 -0.2231
  131loPI   C1B 2093   5.668  18.114   8.910 -0.4861 -0.0491  0.2323
  131loPI   C2B 2094   5.837  18.233   8.598  0.0257 -0.0849  0.2301
  131loPI   C3B 2095   5.853  17.938   8.204  0.1251 -0.3168 -0.2641
  131loPI   C4B 2096   5.683  17.987   7.721 -0.1347  0.0990 -0.2859
  132loPI    C1 2097   4.083   5.781   9.494  0.2942  0.0396  0.2510
  132loPI    C2 2098   3.875   6.119   9.547  0.3072  0.0755  0.0812
  132loPI    C3 2099   4.049   5.939   9.859 -0.2017 -0.1013  0.2733
  132loPI   PO4 2100   4.305   5.815   9.303 -0.0369 -0.1330 -0.1632
  132loPI   GL1 2101   4.282   5.607   8.940 -0.0511  0.2201 -0.1254
  132loPI   GL2 2102   4.413   5.229   9.100 -0.1084  0.0535 -0.2702
  132loPI   C1A 2103   4.341   5.975   8.670 -0.1286 -0.1348  0.2053
  132loPI   C2A 2104   4.431   6.383   8.487  0.1962 -0.0632  0.0360
  132loPI   C3A 2105   4.797   6.452   8.236  0.0562  0.2504 -0.0492
  132loPI   C4A 2106   5.025   6.620   7.961  0.0837  0.4229  0.4062
  132loPI   C5A 2107   5.274   6.923   7.725  0.1663  0.1955 -0.2611
  132loPI   C6A 2108   5.521   6.958   7.415 -0.0438  0.0708  0.0909
  132loPI   C1B 2109   4.395   5.270   8.623 -0.0189 -0.2358  0.0982
  132loPI   C2B 2110   4.682   5.320   8.286 -0.1445 -0.0372 -0.0085
  132loPI   C3B 2111   4.593   5.336   7.858  0.0178  0.2412  0.3269
  132loPI   C4B 2112   4.595   5.638   7.694  0.1623 -0.0358  0.0777
  133loPI    C1 2113   4.745  16.074   9.522  0.1609 -0.0303 -0.0013
  133loPI    C2 2114   4.847  15.739   9.327  0.0130 -0.0354 -0.0712
  133loPI    C3 2115   4.680  15.716   9.689  0.0733 -0.0341 -0.0432
  133loPI   PO4 2116   4.531  16.225   9.372  0.1894  0.1924 -0.0339
  133loPI   GL1 2117   4.411  16.436   9.060  0.3470 -0.0972  0.2316
  133loPI   GL2 2118   4.103  16.166   9.160 -0.3261 -0.0881  0.1486
  133loPI   C1A 2119   4.488  16.437   8.644  0.0298  0.0218 -0.0305
  133loPI   C2A 2120   4.362  16.544   8.168 -0.0961  0.0942  0.0862
  133loPI   C3A 2121   4.422  16.605   7.805  0.3727 -0.0317 -0.2300
  133loPI   C4A 2122   4.768  16.566   7.425 -0.0061  0.1109 -0.2247
  133loPI   C5A 2123   5.087  16.366   7.129  0.1681  0.1871  0.1781
  133loPI   C6A 2124   4.946  16.125   6.853  0.1215 -0.3449  0.3767
  133loPI   C1B 2125   4.041  16.168   8.698 -0.0627  0.0957  0.1159
  133loPI   C2B 2126   4.025  16.145   8.309  0.1713  0.5050  0.4546
  133loPI   C3B 2127   3.921  16.329   7.933  0.3394 -0.0883 -0.0959
  133loPI   C4B 2128   3.919  16.552   7.521 -0.4035 -0.2521  0.2909
  134loPI    C1 2129  10.475  12.948  10.842 -0.1138 -0.0125  0.0303
  134loPI    C2 2130  10.482  12.662  11.120 -0.3316 -0.0253  0.0245
  134loPI    C3 2131  10.817  12.757  10.923 -0.2281 -0.1803  0.1227
  134loPI   PO4 2132  10.274  13.089  10.755 -0.2252  0.0042  0.0917
  134loPI   GL1 2133  10.220  12.990  10.382  0.0683 -0.0088 -0.5039
  134loPI   GL2 2134  10.035  12.778  10.301 -0.2319 -0.1630  0.0754
  134loPI   C1A 2135  10.435  12.873  10.031 -0.1509 -0.0994 -0.1894
  134loPI   C2A 2136  10.665  12.855   9.623  0.1289  0.2128 -0.1800
  134loPI   C3A 2137  10.633  12.644   9.228  0.0652  0.4125  0.0979
  134loPI   C4A 2138  10.779  12.666   8.878  0.1589 -0.1735  0.2200
  134loPI   C5A 2139  10.700  12.557   8.333  0.0022  0.1906 -0.1557
  134loPI   C6A 2140  11.172  12.496   8.280 -0.0293  0.0813  0.0864
  134loPI   C1B 2141   9.968  12.757   9.855  0.3508 -0.3242  0.1049
  134loPI   C2B 2142  10.145  12.659   9.489 -0.0635  0.2383  0.1996
  134loPI   C3B 2143   9.981  12.536   9.116  0.2034 -0.2178  0.0698
  134loPI   C4B 2144   9.854  12.356   8.619 -0.0412 -0.2705  0.1916
  135loPI    C1 2145   9.726  16.609   9.786  0.1742  0.0382  0.0598
  135loPI    C2 2146   9.966  16.875   9.608 -0.1002  0.1883 -0.0935
  135loPI    C3 2147   9.569  16.906   9.569 -0.1406 -0.1685 -0.0033
  135loPI   PO4 2148   9.856  16.404   9.662  0.1310 -0.0611  0.3176
  135loPI   GL1 2149  10.241  16.490   9.423  0.1957  0.1731 -0.0209
  135loPI   GL2 2150   9.958  16.540   9.226  0.0976  0.0958 -0.2371
  135loPI   C1A 2151  10.312  16.181   8.977  0.1973 -0.2558 -0.1114
  135loPI   C2A 2152  10.525  16.437   8.736  0.1339  0.0133 -0.1342
  135loPI   C3A 2153  10.656  16.607   8.289 -0.1284  0.2488 -0.2793
  135loPI   C4A 2154  10.671  17.014   8.224  0.2846  0.1733  0.0158
  135loPI   C5A 2155  10.582  17.301   8.014 -0.2862 -0.2706 -0.5200
  135loPI   C6A 2156  10.691  17.663   7.938  0.0766 -0.3127 -0.0834
  135loPI   C1B 2157  10.089  16.607   8.841  0.1468  0.1191 -0.0115
  135loPI   C2B 2158  10.115  16.597   8.452  0.1777  0.0727 -0.1326
  135loPI   C3B 2159   9.984  16.651   8.021 -0.4135  0.3228 -0.1844
  135loPI   C4B 2160  10.245  16.485   7.719  0.0221  0.0745  0.4004
  136loPI    C1 2161  11.504   8.822  10.902  0.1769  0.4087 -0.2032
  136loPI    C2 2162  11.351   8.705  11.252  0.2825 -0.1753 -0.3422
  136loPI    C3 2163  11.519   9.066  11.219  0.3035 -0.1251  0.2162
  136loPI   PO4 2164  11.446   8.695  10.752  0.1071 -0.0211  0.2236
  136loPI   GL1 2165  11.483   8.576  10.348  0.0017  0.1103 -0.0551
  136loPI   GL2 2166  11.111   8.557  10.397  0.0662  0.1518  0.1078
  136loPI   C1A 2167  11.435   8.575   9.913  0.2458 -0.1015  0.5471
  136loPI   C2A 2168  11.339   8.789   9.547 -0.1113  0.0864  0.2147
  136loPI   C3A 2169  11.090   8.885   9.196  0.2569 -0.2164  0.1613
  136loPI   C4A 2170  11.243   8.944   8.748  0.0243  0.3368  0.0132
  136loPI   C5A 2171  11.176   9.124   8.509  0.1262  0.0248 -0.1074
  136loPI   C6A 2172  10.869   8.849   8.222  0.1535  0.1162 -0.2251
  136loPI   C1B 2173  11.040   8.910  10.062  0.0364  0.0937  0.1350
  136loPI   C2B 2174  10.961   9.194   9.779  0.1251  0.1221  0.0696
  136loPI   C3B 2175  10.972   9.334   9.358 -0.2287 -0.1577  0.0184
  136loPI   C4B 2176  11.285   9.319   9.011 -0.0954 -0.0790  0.1633
  137loPI    C1 2177  17.439   6.809   9.363  0.1673  0.0056 -0.0532
  137loPI    C2 2178  17.837   6.836   9.329  0.1584  0.0965 -0.0870
  137loPI    C3 2179  17.674   6.705   9.670  0.2148  0.1334 -0.0457
  137loPI   PO4 2180  17.343   6.748   9.160  0.0511  0.1686 -0.0927
  137loPI   GL1 2181  17.558   6.768   8.805  0.2258 -0.1952 -0.1891
  137loPI   GL2 2182  17.726   6.588   8.897  0.1106  0.0783 -0.2533
  137loPI   C1A 2183  17.420   6.897   8.383 -0.0758 -0.1606 -0.2017
  137loPI   C2A 2184  17.231   6.736   8.123  0.1247 -0.1867  0.1351
  137loPI   C3A 2185  17.220   6.462   7.772  0.3456  0.3982 -0.0327
  137loPI   C4A 2186  17.563   6.375   7.491  0.2224  0.4025  0.0453
  137loPI   C5A 2187  18.014   6.261   7.748  0.0117 -0.0166  0.3388
  137loPI   C6A 2188  18.338   6.290   7.776  0.4095 -0.0639 -0.3855
  137loPI   C1B 2189  17.990   6.492   8.590 -0.3063  0.1011 -0.0903
  137loPI   C2B 2190  18.056   6.251   8.254  0.1914 -0.2015 -0.1045
  137loPI   C3B 2191  18.149   5.836   8.045 -0.0749 -0.0433 -0.1158
  137loPI   C4B 2192  18.125   5.452   8.077 -0.0513 -0.0115  0.2287
  138loPI    C1 2193   7.906  17.541   9.877 -0.1770 -0.0110 -0.0163
  138loPI    C2 2194   7.751  17.369  10.203 -0.0780 -0.0801 -0.0049
  138loPI    C3 2195   7.890  17.744  10.221 -0.1926 -0.0372 -0.0015
  138loPI   PO4 2196   8.041  17.275   9.766 -0.0944 -0.0149 -0.0589
  138loPI   GL1 2197   8.065  17.436   9.366 -0.1370  0.1633  0.1282
  138loPI   GL2 2198   7.789  17.463   9.261 -0.0185  0.0729  0.3074
  138loPI   C1A 2199   8.056  17.211   8.971  0.3234  0.0814  0.1825
  138loPI   C2A 2200   7.918  17.259   8.510 -0.1840  0.5050 -0.0037
  138loPI   C3A 2201   8.035  17.338   8.009  0.0291  0.0939 -0.2784
  138loPI   C4A 2202   7.739  17.117   7.669  0.2511 -0.0322 -0.1973
  138loPI   C5A 2203   7.701  16.736   7.367  0.0159  0.0554  0.1101
  138loPI   C6A 2204   8.052  16.359   7.294 -0.2707 -0.0302  0.1594
  138loPI   C1B 2205   7.891  17.863   9.079  0.1136 -0.0886  0.2400
  138loPI   C2B 2206   7.939  18.178   8.737  0.1515  0.0061 -0.2800
  138loPI   C3B 2207   8.218  18.485   8.699 -0.1416  0.2871 -0.3605
  138loPI   C4B 2208   8.259  18.702   8.359 -0.1338 -0.1156  0.3126
  139loPI    C1 2209   8.404  13.814  10.547 -0.1981  0.0432 -0.0618
  139loPI    C2 2210   8.411  13.762  10.944  0.1165  0.0594 -0.0628
  139loPI    C3 2211   8.575  14.089  10.782  0.0060  0.0437 -0.2081
  139loPI   PO4 2212   8.172  13.799  10.448 -0.0802  0.1622  0.1545
  139loPI   GL1 2213   8.185  13.879  10.067  0.3579 -0.0610 -0.0800
  139loPI   GL2 2214   8.092  13.563  10.010 -0.2674 -0.0285 -0.1931
  139loPI   C1A 2215   8.085  14.089   9.655 -0.4359  0.0529 -0.0548
  139loPI   C2A 2216   8.288  14.385   9.470  0.1125 -0.0681  0.0306
  139loPI   C3A 2217   8.371  14.164   9.084  0.0515  0.2894 -0.1519
  139loPI   C4A 2218   8.450  14.208   8.722  0.2486  0.0678  0.0837
  139loPI   C5A 2219   8.237  14.375   8.262  0.0383 -0.1330 -0.0453
  139loPI   C6A 2220   8.016  14.536   8.021  0.4791 -0.2097 -0.0016
  139loPI   C1B 2221   8.172  13.404   9.555  0.1100  0.0356 -0.3476
  139loPI   C2B 2222   8.267  13.276   9.121  0.0247 -0.1245 -0.0759
  139loPI   C3B 2223   8.180  13.289   8.650 -0.1212  0.2887  0.7111
  139loPI   C4B 2224   8.382  13.077   8.327 -0.0345  0.1437 -0.1937
  140loPI    C1 2225   0.245   3.056  10.110 -0.0235  0.0877  0.0438
  140loPI    C2 2226  -0.118   2.953   9.976 -0.1608  0.2918  0.2505
  140loPI    C3 2227  -0.064   3.036  10.364  0.2054 -0.1741  0.3091
  140loPI   PO4 2228   0.376   2.856  10.044  0.1418  0.0012  0.1267
  140loPI   GL1 2229   0.421   2.653   9.718 -0.0641 -0.0078 -0.0737
  140loPI   GL2 2230   0.700   2.733   9.604 -0.1282 -0.0089  0.3357
  140loPI   C1A 2231   0.461   2.577   9.226 -0.2174  0.0470  0.1042
  140loPI   C2A 2232   0.402   2.572   8.729  0.2349  0.1620  0.1292
  140loPI   C3A 2233   0.427   2.909   8.394  0.1725 -0.2327  0.0098
  140loPI   C4A 2234   0.356   2.811   7.994 -0.1603 -0.0549  0.0053
  140loPI   C5A 2235   0.254   2.915   7.593 -0.2290  0.0515 -0.1035
  140loPI   C6A 2236   0.297   2.834   7.087 -0.0313 -0.1454 -0.1059
  140loPI   C1B 2237   0.918   2.950   9.341 -0.2575  0.2469 -0.0132
  140loPI   C2B 2238   1.212   2.968   9.036 -0.0798  0.1170 -0.2395
  140loPI   C3B 2239   1.298   2.916   8.640 -0.1659 -0.0487 -0.1932
  140loPI   C4B 2240   1.596   2.637   8.329  0.4074 -0.0398  0.0510
  141loPI    C1 2241  11.951  17.880  10.118  0.1317 -0.1531  0.1709
  141loPI    C2 2242  12.214  18.077  10.346 -0.0918  0.3508  0.0074
  141loPI    C3 2243  11.844  18.009  10.481 -0.0018 -0.0111  0.0824
  141loPI   PO4 2244  11.931  18.015   9.855 -0.3603  0.0416 -0.2923
  141loPI   GL1 2245  11.644  18.371   9.650  0.2919  0.1335 -0.1918
  141loPI   GL2 2246  11.891  18.474   9.595  0.1938 -0.2491  0.0569
  141loPI   C1A 2247  11.409  18.434   9.292  0.1497 -0.1528  0.1581
  141loPI   C2A 2248  11.436  18.558   8.983  0.0652 -0.3352 -0.0199
  141loPI   C3A 2249  11.203  18.727   8.669 -0.0483 -0.2248 -0.2585
  141loPI   C4A 2250  10.938  19.002   8.531  0.2221 -0.2241  0.1158
  141loPI   C5A 2251  10.598  19.074   8.216  0.2220 -0.1459  0.0738
  141loPI   C6A 2252  10.207  19.246   8.060 -0.1126 -0.0276  0.1809
  141loPI   C1B 2253  11.979  18.435   9.117 -0.2929  0.5391 -0.1196
  141loPI   C2B 2254  12.056  18.532   8.720  0.0959 -0.1316  0.1513
  141loPI   C3B 2255  12.196  18.658   8.284  0.2061 -0.1159  0.0389
  141loPI   C4B 2256  11.771  18.817   8.057 -0.1533 -0.0626  0.4577
  142loPI    C1 2257   1.576   7.104  10.134  0.0460  0.2059 -0.1923
  142loPI    C2 2258   1.791   7.355  10.359 -0.0759  0.4635 -0.3583
  142loPI    C3 2259   1.427   7.240  10.479  0.0934  0.1366 -0.1443
  142loPI   PO4 2260   1.572   7.165   9.850  0.0278  0.1319  0.1674
  142loPI   GL1 2261   1.564   6.871   9.484 -0.1316  0.3926  0.0470
  142loPI   GL2 2262   1.837   6.648   9.368 -0.0970  0.1674 -0.2481
  142loPI   C1A 2263   1.499   7.178   9.152 -0.3812  0.2008 -0.0336
  142loPI   C2A 2264   1.598   7.190   8.762 -0.0189  0.2480 -0.0690
  142loPI   C3A 2265   1.437   7.429   8.350 -0.1723 -0.1351  0.1210
  142loPI   C4A 2266   1.360   7.416   7.918 -0.1445  0.0227  0.0598
  142loPI   C5A 2267   1.795   7.428   7.700 -0.1785 -0.1875  0.3933
  142loPI   C6A 2268   2.222   7.525   7.647 -0.5627 -0.0021 -0.0073
  142loPI   C1B 2269   2.038   6.662   8.878 -0.0089  0.0447  0.1535
  142loPI   C2B 2270   2.146   6.949   8.592 -0.3300  0.1316  0.1853
  142loPI   C3B 2271   2.146   7.121   8.110  0.1520  0.2682 -0.2668
  142loPI   C4B 2272   2.227   6.911   7.748  0.0707 -0.0179  0.0968
  143loPI    C1 2273   6.518  10.224  10.129 -0.1955 -0.2095 -0.0452
  143loPI    C2 2274   6.346  10.502   9.898  0.1444 -0.0198 -0.0774
  143loPI    C3 2275   6.343  10.543  10.296 -0.0542 -0.1192 -0.0673
  143loPI   PO4 2276   6.475   9.996  10.011 -0.0363  0.2573 -0.0241
  143loPI   GL1 2277   6.146  10.058   9.634  0.0554  0.2249  0.1254
  143loPI   GL2 2278   5.847   9.953   9.558 -0.0963  0.1791  0.0727
  143loPI   C1A 2279   6.123  10.362   9.276 -0.2389  0.0431 -0.2795
  143loPI   C2A 2280   6.101  10.178   8.888  0.0165  0.1664 -0.1220
  143loPI   C3A 2281   6.140  10.288   8.519  0.1707  0.0182  0.1583
  143loPI   C4A 2282   6.316  10.479   8.102 -0.2413 -0.0446 -0.0878
  143loPI   C5A 2283   6.307  10.992   8.100 -0.1620 -0.0025  0.0790
  143loPI   C6A 2284   6.321  11.365   7.972 -0.0706 -0.0831 -0.1046
  143loPI   C1B 2285   5.614   9.887   9.212 -0.0944 -0.2441  0.1546
  143loPI   C2B 2286   5.729   9.907   8.770  0.4723  0.1325  0.1562
  143loPI   C3B 2287   5.701   9.705   8.465  0.1908  0.3769  0.2291
  143loPI   C4B 2288   5.606   9.460   8.082 -0.1332 -0.0180 -0.0445
  144loPI    C1 2289   8.358  12.003  10.640 -0.1254 -0.2044 -0.3431
  144loPI    C2 2290   8.372  12.137  11.017  0.0966  0.0035 -0.4231
  144loPI    C3 2291   8.298  11.751  10.945  0.0232 -0.0316 -0.1686
  144loPI   PO4 2292   8.565  12.131  10.512  0.2527 -0.0313 -0.0812
  144loPI   GL1 2293   8.781  12.346  10.184  0.0349 -0.3827 -0.0294
  144loPI   GL2 2294   8.712  12.039  10.020 -0.1524 -0.0460 -0.1328
  144loPI   C1A 2295   9.262  12.271   9.963 -0.0372 -0.0344  0.0510
  144loPI   C2A 2296   9.538  11.972   9.765 -0.0526 -0.1436 -0.1422
  144loPI   C3A 2297   9.564  11.691   9.406  0.4541 -0.2202 -0.1436
  144loPI   C4A 2298   9.588  11.610   8.944  0.0614  0.0251 -0.1064
  144loPI   C5A 2299   9.535  11.438   8.486  0.0957 -0.0373  0.0746
  144loPI   C6A 2300   9.361  11.259   8.082  0.0589  0.1853 -0.1004
  144loPI   C1B 2301   8.458  12.199   9.733 -0.0948  0.2570 -0.0184
  144loPI   C2B 2302   8.106  12.046   9.410 -0.0357 -0.2591  0.1232
  144loPI   C3B 2303   8.197  11.886   9.022  0.3672 -0.2250 -0.0314
  144loPI   C4B 2304   8.390  11.698   8.704 -0.2358 -0.1030  0.0957
  145loPI    C1 2305   5.402  16.159   9.294 -0.4560  0.1224  0.1373
  145loPI    C2 2306   5.354  16.471   9.540 -0.2102  0.2606  0.0135
  145loPI    C3 2307   5.722  16.353   9.435 -0.3105  0.1673 -0.2420
  145loPI   PO4 2308   5.216  16.139   9.138  0.1291  0.0350 -0.0813
  145loPI   GL1 2309   5.069  15.898   8.881 -0.0742 -0.0767 -0.0387
  145loPI   GL2 2310   4.754  16.080   8.903  0.1718  0.0385  0.3145
  145loPI   C1A 2311   5.164  15.750   8.539 -0.1286 -0.1385  0.0059
  145loPI   C2A 2312   5.170  15.752   8.085  0.3988 -0.1434 -0.2167
  145loPI   C3A 2313   5.307  15.760   7.804  0.0832 -0.0591  0.0843
  145loPI   C4A 2314   5.494  15.816   7.434  0.0893 -0.1363  0.0347
  145loPI   C5A 2315   5.626  16.239   7.319 -0.0805  0.0911  0.2177
  145loPI   C6A 2316   5.865  16.504   7.068  0.0259 -0.4657  0.2217
  145loPI   C1B 2317   4.531  15.910   8.591 -0.1358  0.2768 -0.1783
  145loPI   C2B 2318   4.337  15.733   8.231  0.0715 -0.1421  0.0196
  145loPI   C3B 2319   3.980  15.838   7.877  0.0531 -0.0497 -0.6171
  145loPI   C4B 2320   3.673  16.063   7.567 -0.1112  0.0604 -0.2277
  146loPI    C1 2321   5.571   0.901   9.774 -0.0709  0.1920  0.0956
  146loPI    C2 2322   5.587   0.707   9.425  0.1491  0.0852  0.1633
  146loPI    C3 2323   5.694   0.521   9.762 -0.0610  0.1881  0.2890
  146loPI   PO4 2324   5.686   1.182   9.632  0.2018 -0.1144 -0.1108
  146loPI   GL1 2325   5.832   1.142   9.105 -0.0170  0.1816 -0.2420
  146loPI   GL2 2326   6.023   1.362   9.097  0.1648 -0.1431 -0.0112
  146loPI   C1A 2327   5.683   1.165   8.717 -0.0126 -0.0698 -0.3430
  146loPI   C2A 2328   5.300   1.340   8.335  0.2158 -0.3551 -0.1257
  146loPI   C3A 2329   4.989   1.388   8.048  0.2882 -0.0426 -0.0297
  146loPI   C4A 2330   5.141   1.610   7.601  0.3350  0.1435 -0.0783
  146loPI   C5A 2331   5.341   1.335   7.303 -0.2359  0.0695 -0.0399
  146loPI   C6A 2332   5.788   1.231   7.438 -0.2256 -0.3734  0.0096
  146loPI   C1B 2333   6.281   1.447   8.743  0.0545  0.3456 -0.1565
  146loPI   C2B 2334   6.204   1.506   8.406  0.0996 -0.1097  0.0508
  146loPI   C3B 2335   6.186   1.434   8.137  0.1772  0.1540  0.1226
  146loPI   C4B 2336   6.043   1.537   7.751  0.1196  0.2260  0.4378
  147loPI    C1 2337  12.541   1.318  10.426 -0.0244 -0.0271  0.0320
  147loPI    C2 2338  12.330   0.986  10.501 -0.2402  0.1474  0.2093
  147loPI    C3 2339  12.667   1.059  10.703 -0.1408 -0.0096  0.1019
  147loPI   PO4 2340  12.546   1.264  10.062 -0.0983 -0.2180 -0.1301
  147loPI   GL1 2341  12.655   1.424   9.741  0.0807  0.0308  0.1476
  147loPI   GL2 2342  12.356   1.707   9.638  0.1235  0.0514  0.0255
  147loPI   C1A 2343  12.853   1.425   9.380 -0.0418 -0.3261  0.0609
  147loPI   C2A 2344  13.015   1.653   9.057  0.0843  0.0571  0.1837
  147loPI   C3A 2345  13.187   1.880   8.755 -0.2232  0.2067 -0.1344
  147loPI   C4A 2346  13.529   2.036   8.504 -0.0270 -0.0271  0.2123
  147loPI   C5A 2347  13.479   1.747   8.206 -0.1341  0.2959 -0.3671
  147loPI   C6A 2348  13.478   1.365   8.183 -0.1694  0.1604  0.1134
  147loPI   C1B 2349  12.370   1.682   9.132 -0.0524  0.2990 -0.2633
  147loPI   C2B 2350  12.528   1.618   8.684  0.2977 -0.0830 -0.2584
  147loPI   C3B 2351  12.156   1.618   8.282  0.2631 -0.0101 -0.1915
  147loPI   C4B 2352  11.906   1.868   8.059  0.1589 -0.1912 -0.1351
  148loPI    C1 2353  15.628  16.314  10.643  0.1164 -0.0490 -0.4212
  148loPI    C2 2354  15.581  15.936  10.765  0.1156  0.1223  0.1388
  148loPI    C3 2355  15.841  16.175  10.952  0.0140  0.4420 -0.1193
  148loPI   PO4 2356  15.624  16.362  10.321 -0.1657 -0.0458  0.0533
  148loPI   GL1 2357  15.645  16.185   9.779 -0.0729  0.1715 -0.0941
  148loPI   GL2 2358  15.433  15.948   9.689  0.0863 -0.0013 -0.1582
  148loPI   C1A 2359  15.545  16.503   9.497  0.2292  0.3214 -0.0750
  148loPI   C2A 2360  15.441  16.603   9.084 -0.1957 -0.1357  0.0847
  148loPI   C3A 2361  15.506  16.972   8.848  0.0187  0.2195  0.1270
  148loPI   C4A 2362  15.870  17.055   8.619 -0.0956 -0.3490 -0.1457
  148loPI   C5A 2363  15.854  17.043   8.167 -0.2650  0.3989  0.0070
  148loPI   C6A 2364  15.849  16.694   7.857  0.1744  0.0159  0.0841
  148loPI   C1B 2365  15.612  15.883   9.266 -0.0100 -0.0686 -0.1109
  148loPI   C2B 2366  15.664  16.172   8.859 -0.1520 -0.3120 -0.0749
  148loPI   C3B 2367  15.605  16.286   8.455  0.1082 -0.0167  0.0023
  148loPI   C4B 2368  15.436  16.690   8.386  0.2472 -0.1437  0.4055
  149loPI    C1 2369  17.255   1.271  10.784 -0.1358 -0.0691  0.0648
  149loPI    C2 2370  17.522   1.563  10.723  0.0999 -0.2633  0.1502
  149loPI    C3 2371  17.403   1.475  11.095  0.0290 -0.2760  0.1247
  149loPI   PO4 2372  17.388   1.108  10.543 -0.2380 -0.2169 -0.1278
  149loPI   GL1 2373  17.392   1.299  10.146 -0.2897 -0.0346  0.0672
  149loPI   GL2 2374  17.586   1.117  10.057 -0.0648 -0.2396 -0.0110
  149loPI   C1A 2375  17.079   1.418   9.897  0.4036 -0.2762 -0.0080
  149loPI   C2A 2376  17.057   1.546   9.511 -0.2679 -0.2075  0.0849
  149loPI   C3A 2377  16.983   1.453   9.081  0.0602  0.0735  0.3699
  149loPI   C4A 2378  17.038   1.164   8.757  0.1946 -0.3596  0.1333
  149loPI   C5A 2379  16.825   1.173   8.478  0.1000 -0.0120  0.0578
  149loPI   C6A 2380  16.623   1.508   8.435 -0.1153 -0.2221 -0.4553
  149loPI   C1B 2381  17.365   1.175   9.641 -0.2823 -0.0530 -0.1786
  149loPI   C2B 2382  17.393   1.231   9.270  0.0225  0.0713  0.2376
  149loPI   C3B 2383  17.479   1.389   8.812  0.1752 -0.1902 -0.0622
  149loPI   C4B 2384  17.771   1.459   8.487  0.1545 -0.0752  0.3982
  150loPI    C1 2385  17.677   3.987  10.069  0.0807 -0.0817 -0.1833
  150loPI    C2 2386  17.464   3.934  10.404 -0.0436 -0.2578 -0.2888
  150loPI    C3 2387  17.506   3.633  10.143 -0.0840 -0.0745 -0.5104
  150loPI   PO4 2388  17.817   4.287  10.162  0.0532 -0.3169  0.0292
  150loPI   GL1 2389  18.026   4.619   9.776  0.3217  0.0147  0.1624
  150loPI   GL2 2390  18.339   4.609   9.457  0.2856 -0.2786  0.2680
  150loPI   C1A 2391  17.826   4.419   9.454 -0.0027 -0.0392  0.2551
  150loPI   C2A 2392  17.676   4.133   9.098 -0.1103 -0.2816  0.3636
  150loPI   C3A 2393  17.520   3.755   9.159  0.4818 -0.2557 -0.0173
  150loPI   C4A 2394  17.750   3.419   9.316  0.8136 -0.2721 -0.0358
  150loPI   C5A 2395  17.450   3.107   9.397  0.0492 -0.5016  0.2906
  150loPI   C6A 2396  16.945   3.106   9.613 -0.2142 -0.3430  0.0405
  150loPI   C1B 2397  18.409   4.400   9.048  0.2634  0.4279  0.2338
  150loPI   C2B 2398  18.363   4.483   8.543  0.0161  0.3183 -0.1226
  150loPI   C3B 2399  18.225   4.570   8.188 -0.3675  0.4705  0.2864
  150loPI   C4B 2400  17.978   4.295   7.954  0.1361  0.1087 -0.2186
  151loPI    C1 2401  15.059  13.711  10.419  0.1255  0.1034  0.1080
  151loPI    C2 2402  14.967  13.380  10.213 -0.1025  0.1014  0.2094
  151loPI    C3 2403  15.298  13.390  10.437  0.1304  0.0917 -0.1256
  151loPI   PO4 2404  15.130  13.893  10.214  0.0704  0.0326 -0.0682
  151loPI   GL1 2405  15.151  13.788   9.812  0.0584  0.0081 -0.3538
  151loPI   GL2 2406  15.135  14.160   9.676  0.0562 -0.0916  0.0238
  151loPI   C1A 2407  15.069  13.521   9.386 -0.2579  0.1040 -0.2448
  151loPI   C2A 2408  15.206  13.309   9.038 -0.1504 -0.0914 -0.0777
  151loPI   C3A 2409  15.561  13.255   8.915 -0.0013  0.3451 -0.0890
  151loPI   C4A 2410  15.688  13.494   8.546  0.1598  0.0680  0.0181
  151loPI   C5A 2411  16.069  13.477   8.224  0.1103 -0.0482 -0.0923
  151loPI   C6A 2412  16.270  13.725   8.362  0.4973 -0.1669  0.1067
  151loPI   C1B 2413  14.940  13.995   9.287  0.1145 -0.1272  0.0758
  151loPI   C2B 2414  14.712  13.938   8.937 -0.0192  0.0211  0.2270
  151loPI   C3B 2415  14.856  13.937   8.516  0.1980 -0.0209  0.5383
  151loPI   C4B 2416  14.677  14.183   8.110  0.0790  0.1051  0.3391
  152loPI    C1 2417  12.368  13.134  10.628 -0.2675 -0.3154  0.1183
  152loPI    C2 2418  12.496  12.867  10.359  0.0257 -0.2302  0.1695
  152loPI    C3 2419  12.625  12.848  10.737  0.1793  0.0789  0.1367
  152loPI   PO4 2420  12.126  13.122  10.568  0.3847 -0.0980  0.2736
  152loPI   GL1 2421  11.773  12.940  10.340 -0.1317 -0.3033 -0.0083
  152loPI   GL2 2422  12.021  12.784  10.236 -0.1721 -0.0003 -0.0517
  152loPI   C1A 2423  11.455  13.091  10.090 -0.0944  0.1071 -0.1921
  152loPI   C2A 2424  11.462  13.218   9.669  0.3566  0.2747 -0.0096
  152loPI   C3A 2425  11.452  13.128   9.249 -0.0687 -0.0279 -0.1887
  152loPI   C4A 2426  11.321  12.990   8.854  0.2216  0.0184 -0.2193
  152loPI   C5A 2427  11.078  12.968   8.551 -0.0837 -0.0736  0.1071
  152loPI   C6A 2428  10.868  13.014   8.110  0.3540 -0.0869  0.3340
  152loPI   C1B 2429  12.125  12.539   9.859  0.0874  0.0714 -0.0887
  152loPI   C2B 2430  12.041  12.402   9.418 -0.1658  0.1913 -0.4511
  152loPI   C3B 2431  12.261  12.370   9.061 -0.1757  0.0077  0.3741
  152loPI   C4B 2432  12.145  12.288   8.655  0.1017  0.1266 -0.0476
  153loPI    C1 2433  15.582   2.268  10.347  0.0167 -0.2099 -0.0067
  153loPI    C2 2434  15.353   1.994  10.526  0.0164 -0.0991  0.1647
  153loPI    C3 2435  15.455   2.327  10.722  0.1311 -0.0403  0.0062
  153loPI   PO4 2436  15.460   2.381  10.167 -0.0001  0.0904  0.0434
  153loPI   GL1 2437  15.628   2.474   9.776  0.1273 -0.0729 -0.0832
  153loPI   GL2 2438  15.380   2.105   9.749 -0.1088 -0.0332 -0.2716
  153loPI   C1A 2439  15.820   2.697   9.325 -0.0308 -0.0937 -0.4219
  153loPI   C2A 2440  15.973   2.673   8.842  0.1101  0.1511  0.3950
  153loPI   C3A 2441  15.838   2.717   8.437  0.0023 -0.0912 -0.0901
  153loPI   C4A 2442  16.109   2.588   8.110  0.3486  0.1176 -0.5666
  153loPI   C5A 2443  16.456   2.248   8.155 -0.0964  0.0092  0.0266
  153loPI   C6A 2444  16.265   1.912   8.055 -0.0046 -0.1667  0.0486
  153loPI   C1B 2445  15.367   1.945   9.276 -0.0348  0.2246 -0.1499
  153loPI   C2B 2446  15.191   2.113   9.017 -0.3554  0.0255  0.0554
  153loPI   C3B 2447  14.878   2.285   8.674  0.4015  0.1525  0.4607
  153loPI   C4B 2448  14.379   2.312   8.529  0.2434 -0.0324 -0.0518
  154loPI    C1 2449   8.168   7.757  10.434 -0.0909 -0.0062  0.0022
  154loPI    C2 2450   7.808   7.747  10.608 -0.1746 -0.2383 -0.1787
  154loPI    C3 2451   8.123   7.890  10.809 -0.3261 -0.2271  0.0554
  154loPI   PO4 2452   8.068   7.888  10.150  0.2318 -0.0888  0.2986
  154loPI   GL1 2453   8.098   7.691   9.701  0.0395  0.1112 -0.1984
  154loPI   GL2 2454   7.852   7.863   9.723  0.0916 -0.1089 -0.0748
  154loPI   C1A 2455   8.384   7.861   9.404  0.0279  0.1417 -0.0424
  154loPI   C2A 2456   8.458   7.777   8.978 -0.5498 -0.1387 -0.0422
  154loPI   C3A 2457   8.719   7.914   8.645 -0.1449  0.0342 -0.1136
  154loPI   C4A 2458   8.871   8.331   8.634  0.3555  0.2625 -0.2990
  154loPI   C5A 2459   9.071   8.541   9.024 -0.1630  0.1964 -0.1387
  154loPI   C6A 2460   9.297   8.497   9.421 -0.0309  0.2143 -0.3046
  154loPI   C1B 2461   7.887   7.862   9.320 -0.3583 -0.0144 -0.3963
  154loPI   C2B 2462   7.893   8.215   9.076 -0.0270 -0.0822  0.1158
  154loPI   C3B 2463   7.586   8.407   8.706  0.0063  0.1776 -0.2213
  154loPI   C4B 2464   7.540   8.442   8.205 -0.0712  0.0416  0.0480
  155loPI    C1 2465  18.326  18.558  10.747  0.1014 -0.3539 -0.1283
  155loPI    C2 2466  18.642  18.799  10.702 -0.2280  0.1102 -0.0332
  155loPI    C3 2467  18.592  18.597  11.043  0.0792 -0.1458 -0.1343
  155loPI   PO4 2468  18.293  18.580  10.443  0.1452 -0.0942 -0.1625
  155loPI   GL1 2469  18.210  18.603   9.999  0.0327 -0.2581 -0.0650
  155loPI   GL2 2470  17.995  18.240  10.150 -0.1017 -0.2763  0.1940
  155loPI   C1A 2471  18.374  18.814   9.598 -0.0028 -0.0019 -0.4482
  155loPI   C2A 2472  18.328  18.813   9.244 -0.0099  0.1033 -0.2670
  155loPI   C3A 2473  18.245  18.577   8.856 -0.3259 -0.3532 -0.0735
  155loPI   C4A 2474  18.504  18.465   8.611  0.0905  0.3912 -0.0312
  155loPI   C5A 2475  18.489  18.613   8.239  0.2910  0.3145 -0.2290
  155loPI   C6A 2476  18.701  18.495   7.864 -0.1488 -0.0283 -0.1814
  155loPI   C1B 2477  17.870  17.909   9.832 -0.2012  0.0908 -0.1867
  155loPI   C2B 2478  18.113  17.728   9.517 -0.0086 -0.0144  0.1766
  155loPI   C3B 2479  18.076  17.763   9.130 -0.1231  0.1729 -0.1880
  155loPI   C4B 2480  18.117  17.767   8.615  0.4904  0.0322  0.0447
  156loPI    C1 2481  14.550  13.637  10.383 -0.0217  0.1017  0.1723
  156loPI    C2 2482  14.690  13.741  10.743 -0.1299  0.0343  0.2346
  156loPI    C3 2483  14.687  13.356  10.633 -0.0722  0.0574  0.1505
  156loPI   PO4 2484  14.283  13.774  10.335 -0.0767  0.0858 -0.1120
  156loPI   GL1 2485  14.174  13.986   9.955 -0.4285 -0.1807  0.0145
  156loPI   GL2 2486  13.993  13.687   9.880 -0.4970  0.0122 -0.2659
  156loPI   C1A 2487  14.475  13.747   9.455  0.0018  0.0249 -0.3366
  156loPI   C2A 2488  14.334  13.576   9.069 -0.2491  0.2125  0.0283
  156loPI   C3A 2489  14.245  13.775   8.665 -0.1694  0.1222  0.3999
  156loPI   C4A 2490  14.431  13.656   8.340 -0.1748  0.0503  0.2024
  156loPI   C5A 2491  14.745  13.606   8.052  0.0767 -0.0445 -0.0478
  156loPI   C6A 2492  15.035  13.484   7.847  0.1983 -0.0409  0.0801
  156loPI   C1B 2493  14.051  13.512   9.510 -0.0230 -0.2661 -0.1954
  156loPI   C2B 2494  14.083  13.193   9.207 -0.3255  0.1065  0.2214
  156loPI   C3B 2495  14.084  12.842   8.973 -0.0387 -0.0607  0.0581
  156loPI   C4B 2496  14.363  12.626   8.608  0.0680  0.2220 -0.0506
  157loPI    C1 2497   3.676  18.544   9.925  0.0360  0.0156  0.1902
  157loPI    C2 2498   3.906  18.849   9.809 -0.0414 -0.0009 -0.0113
  157loPI    C3 2499   3.817  18.802  10.196 -0.0341  0.2348  0.0208
  157loPI   PO4 2500   3.707  18.389   9.734  0.1298 -0.0677 -0.0555
  157loPI   GL1 2501   3.832  18.300   9.357  0.2256  0.0325 -0.1533
  157loPI   GL2 2502   4.016  18.246   9.238  0.0576  0.0178  0.0600
  157loPI   C1A 2503   4.000  18.709   9.093 -0.2575 -0.0057  0.0459
  157loPI   C2A 2504   3.868  18.571   8.661 -0.1027 -0.0948  0.1386
  157loPI   C3A 2505   3.803  18.576   8.227 -0.1903  0.3888 -0.1671
  157loPI   C4A 2506   3.680  18.457   7.831  0.1255  0.1259 -0.0287
  157loPI   C5A 2507   3.496  18.198   7.606 -0.1350 -0.0916 -0.2387
  157loPI   C6A 2508   3.516  17.893   7.330 -0.1204  0.0784 -0.0137
  157loPI   C1B 2509   4.075  18.126   8.778 -0.0127 -0.1014 -0.0270
  157loPI   C2B 2510   4.278  18.159   8.384  0.1624 -0.2622 -0.1195
  157loPI   C3B 2511   4.134  18.341   7.947 -0.1491 -0.1555 -0.2974
  157loPI   C4B 2512   4.031  18.503   7.489  0.0659 -0.0862  0.4486
  158loPI    C1 2513   5.080   4.922   9.336  0.0965 -0.1812 -0.1119
  158loPI    C2 2514   5.248   4.863   9.694 -0.0351 -0.0672 -0.0301
  158loPI    C3 2515   4.907   4.678   9.600 -0.1466  0.1160  0.0096
  158loPI   PO4 2516   4.912   5.169   9.273 -0.0382 -0.0593  0.0192
  158loPI   GL1 2517   4.786   5.563   9.059  0.1263 -0.1771  0.0532
  158loPI   GL2 2518   4.706   5.927   9.081  0.5938  0.0776 -0.2466
  158loPI   C1A 2519   4.856   5.725   8.629  0.3485 -0.0438 -0.0231
  158loPI   C2A 2520   4.852   5.738   8.148 -0.1617  0.2129 -0.1847
  158loPI   C3A 2521   4.595   6.043   7.995 -0.0335  0.2637 -0.0749
  158loPI   C4A 2522   4.399   6.058   7.545  0.0173  0.2576 -0.0926
  158loPI   C5A 2523   4.194   5.813   7.300  0.0325 -0.0402 -0.0711
  158loPI   C6A 2524   4.396   5.491   7.084  0.1512 -0.1331  0.0171
  158loPI   C1B 2525   4.942   6.240   8.714 -0.1362 -0.4045 -0.1195
  158loPI   C2B 2526   5.277   6.512   8.447  0.3918  0.2144 -0.2114
  158loPI   C3B 2527   5.466   6.861   8.260  0.2907 -0.1649 -0.0132
  158loPI   C4B 2528   5.547   7.173   8.030 -0.1623  0.0099 -0.1090
  159loPI    C1 2529   6.075  16.693   9.419  0.2381  0.0258 -0.0745
  159loPI    C2 2530   6.413  16.903   9.380  0.1936  0.0923 -0.1042
  159loPI    C3 2531   6.330  16.721   9.726  0.1881  0.2008 -0.0479
  159loPI   PO4 2532   5.926  16.765   9.308  0.1630 -0.0225  0.0840
  159loPI   GL1 2533   5.795  16.676   8.936  0.0399  0.0410 -0.0115
  159loPI   GL2 2534   5.630  16.419   8.904 -0.0654  0.1195  0.1177
  159loPI   C1A 2535   5.447  16.930   8.739 -0.2214  0.1895 -0.0552
  159loPI   C2A 2536   5.245  17.008   8.362  0.0279 -0.0438 -0.3884
  159loPI   C3A 2537   5.027  17.198   8.116  0.0411 -0.1311  0.0810
  159loPI   C4A 2538   4.835  17.556   7.807 -0.0300  0.3779 -0.1226
  159loPI   C5A 2539   5.030  17.958   7.727  0.2065  0.1170 -0.1299
  159loPI   C6A 2540   4.930  18.334   7.475  0.2226 -0.1188  0.1441
  159loPI   C1B 2541   5.517  16.551   8.491 -0.1541  0.2055  0.0581
  159loPI   C2B 2542   5.750  16.865   8.336  0.1957  0.0529  0.1906
  159loPI   C3B 2543   5.813  16.994   7.945 -0.0360 -0.1338  0.0474
  159loPI   C4B 2544   6.110  16.887   7.619  0.1997  0.2295  0.3085
  160loPI    C1 2545  10.273  11.481  10.800  0.0980  0.2922  0.1638
  160loPI    C2 2546  10.061  11.642  11.099 -0.2687  0.2235 -0.0529
  160loPI    C3 2547  10.284  11.316  11.164 -0.2981  0.2440  0.1581
  160loPI   PO4 2548  10.063  11.356  10.607  0.1725 -0.3471  0.5112
  160loPI   GL1 2549   9.749  11.216  10.296  0.0316 -0.1485  0.0506
  160loPI   GL2 2550   9.489  11.264  10.156 -0.1777  0.0351  0.4202
  160loPI   C1A 2551   9.906  10.935   9.936  0.2093 -0.2214  0.2565
  160loPI   C2A 2552   9.964  10.789   9.532 -0.1723  0.0588 -0.1000
  160loPI   C3A 2553  10.159  10.754   9.218 -0.2748  0.0169 -0.0629
  160loPI   C4A 2554  10.177  10.757   8.829 -0.0675 -0.2296 -0.0272
  160loPI   C5A 2555  10.275  10.897   8.407 -0.3178  0.0091 -0.1563
  160loPI   C6A 2556  10.322  10.911   8.050  0.1781 -0.3787 -0.2476
  160loPI   C1B 2557   9.637  11.295   9.698  0.1199  0.3293 -0.2735
  160loPI   C2B 2558   9.741  11.219   9.247 -0.1293  0.0728 -0.2631
  160loPI   C3B 2559   9.787  11.090   8.897  0.2049 -0.3430 -0.2244
  160loPI   C4B 2560   9.623  10.844   8.577 -0.0594  0.0841 -0.0461
  161loPI    C1 2561  12.688  15.245  10.290 -0.0371  0.0646  0.0852
  161loPI    C2 2562  13.030  15.285  10.493  0.0484 -0.0268 -0.0394
  161loPI    C3 2563  12.688  15.421  10.650  0.1318  0.0109  0.1123
  161loPI   PO4 2564  12.800  15.268  10.026  0.2276  0.0838  0.0961
  161loPI   GL1 2565  12.810  14.992   9.713  0.2506  0.1048  0.0470
  161loPI   GL2 2566  12.504  14.822   9.638 -0.0383 -0.0559  0.0416
  161loPI   C1A 2567  12.866  15.013   9.207  0.0786 -0.2391 -0.3422
  161loPI   C2A 2568  12.846  14.954   8.682 -0.1540 -0.1382  0.1624
  161loPI   C3A 2569  12.861  15.256   8.356 -0.1298 -0.0749  0.1095
  161loPI   C4A 2570  12.793  15.696   8.260 -0.1454 -0.1309 -0.0326
  161loPI   C5A 2571  12.958  16.107   7.989 -0.1946 -0.2299 -0.1738
  161loPI   C6A 2572  13.097  16.581   7.919  0.2387 -0.1526  0.0108
  161loPI   C1B 2573  12.417  14.739   9.155  0.1324 -0.3112  0.2824
  161loPI   C2B 2574  12.408  14.559   8.880 -0.1385  0.1041 -0.1715
  161loPI   C3B 2575  12.442  14.153   8.746  0.3929  0.2149  0.1167
  161loPI   C4B 2576  12.886  14.019   8.557 -0.0714  0.5468  0.2347
  162loPI    C1 2577  10.246   7.417  11.088  0.1992  0.0479 -0.0634
  162loPI    C2 2578   9.983   7.593  10.844  0.2656  0.0484 -0.1348
  162loPI    C3 2579  10.137   7.796  11.152  0.3007  0.0981 -0.1849
  162loPI   PO4 2580  10.141   7.083  11.019  0.3542 -0.1453 -0.1283
  162loPI   GL1 2581  10.207   6.798  10.705  0.0630 -0.2224 -0.1250
  162loPI   GL2 2582  10.328   6.590  10.478  0.3686 -0.0058 -0.1157
  162loPI   C1A 2583   9.932   6.935  10.299  0.1478  0.0352  0.1075
  162loPI   C2A 2584   9.619   7.021   9.849  0.0479  0.0351 -0.0166
  162loPI   C3A 2585   9.489   7.047   9.478 -0.2395  0.1027 -0.1482
  162loPI   C4A 2586   9.324   7.261   9.055  0.1430 -0.0016  0.0074
  162loPI   C5A 2587   9.284   7.339   8.663  0.0633  0.1107  0.0076
  162loPI   C6A 2588   9.139   7.726   8.442  0.5981 -0.1832 -0.0421
  162loPI   C1B 2589  10.359   6.917  10.128 -0.0575 -0.1824  0.0136
  162loPI   C2B 2590  10.494   7.257   9.768 -0.2155 -0.0590 -0.1986
  162loPI   C3B 2591  10.710   7.611   9.804  0.0439  0.0402 -0.2343
  162loPI   C4B 2592  10.740   7.959  10.054  0.0304  0.1452 -0.1729
  163loPI    C1 2593   2.560   8.471  10.280 -0.0182 -0.0922 -0.0411
  163loPI    C2 2594   2.272   8.345  10.033  0.0076 -0.1170 -0.0584
  163loPI    C3 2595   2.400   8.108  10.329 -0.1833  0.0000  0.1212
  163loPI   PO4 2596   2.788   8.524  10.080 -0.0345 -0.0176  0.3766
  163loPI   GL1 2597   3.102   8.348   9.729 -0.1033  0.2446  0.3049
  163loPI   GL2 2598   3.032   8.026   9.642 -0.0055 -0.0226  0.2671
  163loPI   C1A 2599   2.989   8.326   9.230 -0.1614  0.2130  0.3275
  163loPI   C2A 2600   2.856   8.117   8.780 -0.0889  0.0196 -0.0600
  163loPI   C3A 2601   2.848   8.126   8.422 -0.3245 -0.0210  0.0726
  163loPI   C4A 2602   2.869   8.180   8.092 -0.0078  0.0451 -0.0525
  163loPI   C5A 2603   2.766   8.120   7.622  0.1380  0.0445 -0.0776
  163loPI   C6A 2604   2.931   8.390   7.381 -0.1522 -0.0673 -0.1002
  163loPI   C1B 2605   2.871   7.761   9.265  0.4035 -0.1595  0.0105
  163loPI   C2B 2606   2.702   7.617   8.904 -0.2113 -0.0743 -0.0092
  163loPI   C3B 2607   2.665   7.620   8.375 -0.0621 -0.2235  0.0138
  163loPI   C4B 2608   2.633   7.556   7.996 -0.2176 -0.0589  0.0654
  164loPI    C1 2609   9.481  12.662  10.988  0.1827 -0.2350 -0.0083
  164loPI    C2 2610   9.788  12.637  10.732  0.2321  0.0971  0.0137
  164loPI    C3 2611   9.787  12.918  11.017 -0.1625  0.1979 -0.0806
  164loPI   PO4 2612   9.257  12.676  10.710 -0.4440 -0.3184 -0.1809
  164loPI   GL1 2613   9.155  12.627  10.233  0.1934 -0.2301 -0.0486
  164loPI   GL2 2614   9.491  12.711  10.088 -0.3418  0.0649  0.0912
  164loPI   C1A 2615   9.013  12.760   9.836  0.2125  0.0907 -0.0481
  164loPI   C2A 2616   8.903  12.495   9.631  0.3116 -0.3675  0.0304
  164loPI   C3A 2617   8.629  12.270   9.250 -0.1035  0.1850 -0.1512
  164loPI   C4A 2618   8.698  12.067   8.819 -0.0734  0.0277 -0.4281
  164loPI   C5A 2619   8.788  12.220   8.364 -0.0415  0.1282 -0.0823
  164loPI   C6A 2620   8.967  11.989   7.939 -0.0178  0.0433 -0.0683
  164loPI   C1B 2621   9.515  12.534   9.655  0.1422 -0.2202  0.0733
  164loPI   C2B 2622   9.317  12.336   9.373 -0.1708 -0.0388  0.2136
  164loPI   C3B 2623   9.193  12.183   8.894  0.1505 -0.2572  0.2497
  164loPI   C4B 2624   9.234  12.459   8.472 -0.2823 -0.0441  0.0857
  165loPI    C1 2625  16.277  15.876  10.540 -0.2975 -0.1999 -0.1872
  165loPI    C2 2626  16.444  15.805  10.897 -0.1827  0.4067 -0.1098
  165loPI    C3 2627  16.066  15.694  10.827 -0.1577  0.1483  0.1450
  165loPI   PO4 2628  16.487  15.801  10.370  0.1384  0.1282  0.4139
  165loPI   GL1 2629  16.818  15.975  10.084 -0.1161 -0.0801 -0.1555
  165loPI   GL2 2630  17.186  16.020   9.835 -0.2879 -0.2289 -0.4759
  165loPI   C1A 2631  16.626  16.129   9.675  0.1701 -0.2667  0.0625
  165loPI   C2A 2632  16.656  16.254   9.206 -0.0053  0.0957 -0.2608
  165loPI   C3A 2633  16.400  16.276   8.791  0.1090 -0.0392 -0.1228
  165loPI   C4A 2634  16.100  16.060   8.495 -0.1236 -0.1604  0.2284
  165loPI   C5A 2635  15.722  15.728   8.580 -0.1950 -0.3371  0.0444
  165loPI   C6A 2636  15.379  15.777   8.830 -0.1899  0.1778  0.1062
  165loPI   C1B 2637  16.991  15.926   9.324 -0.4929 -0.0809 -0.2244
  165loPI   C2B 2638  16.874  16.001   8.875 -0.0917  0.3571  0.1790
  165loPI   C3B 2639  16.932  16.116   8.477 -0.2022 -0.0546 -0.0021
  165loPI   C4B 2640  16.856  16.162   8.083  0.0174 -0.0955 -0.3664
  166loPI    C1 2641   7.519   2.315   9.957 -0.2743  0.5460  0.1365
  166loPI    C2 2642   7.739   2.626   9.836  0.5111 -0.0423 -0.0243
  166loPI    C3 2643   7.782   2.482  10.207  0.0185  0.1397  0.1104
  166loPI   PO4 2644   7.269   2.437   9.789 -0.1037 -0.1081 -0.2125
  166loPI   GL1 2645   7.219   2.143   9.450 -0.1473  0.1491  0.1451
  166loPI   GL2 2646   7.578   2.380   9.422  0.2110  0.0391 -0.0998
  166loPI   C1A 2647   7.154   2.055   8.990 -0.1129  0.0150  0.2316
  166loPI   C2A 2648   7.239   2.155   8.527  0.2345  0.1845 -0.2371
  166loPI   C3A 2649   7.061   2.146   8.148  0.1818 -0.3483  0.1336
  166loPI   C4A 2650   7.081   2.518   7.886 -0.0673 -0.1076  0.1212
  166loPI   C5A 2651   7.015   2.748   7.472  0.2839  0.1417 -0.4269
  166loPI   C6A 2652   6.760   3.077   7.360  0.2717 -0.0610 -0.2216
  166loPI   C1B 2653   7.552   2.358   9.015  0.0137  0.2433  0.1102
  166loPI   C2B 2654   7.647   2.518   8.591  0.1391  0.0735 -0.0916
  166loPI   C3B 2655   7.499   2.512   8.242  0.0233  0.0084 -0.0239
  166loPI   C4B 2656   7.595   2.521   7.780 -0.1322  0.0745  0.3596
  167loPI    C1 2657   2.599   0.062   9.834  0.1604 -0.2057  0.2968
  167loPI    C2 2658   2.361  -0.103  10.110 -0.3460 -0.2550 -0.1515
  167loPI    C3 2659   2.278   0.261   9.967  0.1891 -0.0237  0.0999
  167loPI   PO4 2660   2.759  -0.106   9.578  0.2079  0.0424 -0.4541
  167loPI   GL1 2661   3.111  -0.133   9.182  0.1276  0.2442  0.3898
  167loPI   GL2 2662   2.872  -0.130   9.096 -0.3357  0.3237 -0.4181
  167loPI   C1A 2663   3.385  -0.401   9.069  0.0951 -0.2092 -0.0507
  167loPI   C2A 2664   3.129  -0.489   8.826 -0.0198  0.2179 -0.0509
  167loPI   C3A 2665   2.909  -0.415   8.532  0.1459  0.1192 -0.1907
  167loPI   C4A 2666   2.737  -0.542   8.093  0.0907 -0.3547 -0.0729
  167loPI   C5A 2667   2.612  -0.407   7.667  0.2116 -0.0958 -0.0777
  167loPI   C6A 2668   2.510  -0.485   7.303 -0.0736  0.2475  0.1286
  167loPI   C1B 2669   2.775  -0.019   8.758 -0.2816 -0.2474 -0.1679
  167loPI   C2B 2670   2.919   0.016   8.304 -0.1245 -0.0691 -0.1712
  167loPI   C3B 2671   2.814   0.106   7.974  0.1974 -0.0724  0.2656
  167loPI   C4B 2672   2.613   0.494   7.720 -0.0541 -0.1333 -0.3217
  168loPI    C1 2673  16.222   1.928  10.414 -0.0200 -0.2609 -0.2054
  168loPI    C2 2674  15.833   1.855  10.474  0.0448 -0.3340  0.1442
  168loPI    C3 2675  16.105   1.723  10.737  0.2783  0.0069  0.0808
  168loPI   PO4 2676  16.240   1.832  10.183  0.0220 -0.0185 -0.0792
  168loPI   GL1 2677  15.926   1.862   9.815  0.1098 -0.1550 -0.0988
  168loPI   GL2 2678  15.961   2.183   9.626 -0.1400 -0.1013 -0.2603
  168loPI   C1A 2679  16.011   1.775   9.374  0.4208  0.1781  0.1796
  168loPI   C2A 2680  15.970   1.437   9.004  0.1502  0.0655  0.3279
  168loPI   C3A 2681  15.745   1.248   8.740 -0.1234  0.1254  0.1419
  168loPI   C4A 2682  15.673   0.960   8.672 -0.0577  0.0685  0.4497
  168loPI   C5A 2683  15.391   0.681   8.499  0.1586 -0.2394  0.2349
  168loPI   C6A 2684  15.209   0.372   8.141 -0.1303  0.0750  0.0231
  168loPI   C1B 2685  15.824   2.225   9.245  0.1240  0.0324 -0.1344
  168loPI   C2B 2686  15.559   2.425   8.896  0.0125 -0.1936 -0.2345
  168loPI   C3B 2687  15.315   2.563   8.511  0.1264 -0.2006  0.0002
  168loPI   C4B 2688  14.957   2.620   8.244  0.1388  0.0384 -0.2312
  169loPI    C1 2689  12.785   7.017  10.668  0.0409  0.1191  0.2413
  169loPI    C2 2690  12.785   6.618  10.633 -0.0246  0.1410 -0.0391
  169loPI    C3 2691  12.656   6.790  10.971  0.1226 -0.0770  0.1313
  169loPI   PO4 2692  12.919   7.036  10.319  0.0941  0.0009  0.0213
  169loPI   GL1 2693  13.033   6.841   9.920  0.0326 -0.0129 -0.0433
  169loPI   GL2 2694  13.068   6.534   9.629 -0.0774 -0.4344  0.0909
  169loPI   C1A 2695  13.145   7.007   9.544  0.1366  0.1255  0.2480
  169loPI   C2A 2696  13.127   7.080   9.161 -0.0539  0.2731 -0.1428
  169loPI   C3A 2697  13.144   7.213   8.807 -0.0806  0.4291 -0.2267
  169loPI   C4A 2698  12.974   7.107   8.391  0.1554  0.1210  0.3257
  169loPI   C5A 2699  12.759   7.407   8.214  0.1905 -0.1383 -0.0271
  169loPI   C6A 2700  12.634   7.910   8.258 -0.3005  0.0661  0.1621
  169loPI   C1B 2701  13.144   6.522   9.203 -0.0793  0.4705  0.3023
  169loPI   C2B 2702  13.148   6.670   8.743 -0.0351  0.1510 -0.1835
  169loPI   C3B 2703  13.346   6.786   8.321 -0.0651 -0.0155  0.1976
  169loPI   C4B 2704  13.735   7.095   8.108 -0.0168  0.2112  0.1769
  170loPI    C1 2705   2.717   7.438   9.973 -0.1706 -0.1405  0.1414
  170loPI    C2 2706   2.725   7.689  10.284 -0.1000 -0.1391  0.1387
  170loPI    C3 2707   2.668   7.297  10.344  0.0816 -0.1617  0.1682
  170loPI   PO4 2708   2.553   7.483   9.802 -0.1150  0.0018  0.1267
  170loPI   GL1 2709   2.495   7.371   9.317 -0.0106 -0.1946  0.1520
  170loPI   GL2 2710   2.322   7.083   9.407  0.1016  0.1138 -0.1214
  170loPI   C1A 2711   2.374   7.233   8.909  0.0696  0.0361  0.1576
  170loPI   C2A 2712   2.174   7.442   8.611 -0.0018 -0.2104  0.0701
  170loPI   C3A 2713   1.879   7.561   8.218 -0.1383 -0.2373  0.0421
  170loPI   C4A 2714   1.794   7.849   7.907 -0.4313 -0.0936 -0.0305
  170loPI   C5A 2715   1.876   8.012   7.398 -0.1894  0.0951 -0.0606
  170loPI   C6A 2716   2.065   8.180   7.137 -0.2300  0.1450 -0.0803
  170loPI   C1B 2717   2.548   6.815   9.012  0.0204  0.2648 -0.1547
  170loPI   C2B 2718   2.696   6.928   8.586  0.2566 -0.2424  0.2203
  170loPI   C3B 2719   3.063   6.888   8.203 -0.2594 -0.1554 -0.1564
  170loPI   C4B 2720   3.251   6.918   7.801 -0.4099 -0.0904 -0.3132
  171loPI    C1 2721  10.262  16.098  10.043  0.1291  0.0412  0.0390
  171loPI    C2 2722  10.583  16.145   9.810  0.0990  0.2339  0.0351
  171loPI    C3 2723  10.626  16.119  10.207  0.1403  0.0149  0.0174
  171loPI   PO4 2724  10.107  16.031   9.818 -0.0030 -0.0344 -0.0687
  171loPI   GL1 2725   9.854  15.841   9.544 -0.0475  0.3581 -0.0492
  171loPI   GL2 2726   9.886  16.068   9.297  0.0368  0.0918  0.0455
  171loPI   C1A 2727   9.611  15.704   9.355  0.2659 -0.0532 -0.0644
  171loPI   C2A 2728   9.374  15.471   9.001  0.0771  0.0335 -0.0737
  171loPI   C3A 2729   9.313  15.145   8.781 -0.3115 -0.1680 -0.3817
  171loPI   C4A 2730   9.311  14.745   8.468 -0.1698 -0.1749  0.1515
  171loPI   C5A 2731   9.343  14.449   8.104 -0.0176  0.0109 -0.1766
  171loPI   C6A 2732   9.298  13.981   7.882 -0.0039  0.2130  0.0814
  171loPI   C1B 2733   9.825  16.031   8.826 -0.2569 -0.1454  0.0528
  171loPI   C2B 2734  10.225  16.069   8.494 -0.0518 -0.0449 -0.2344
  171loPI   C3B 2735  10.336  16.116   8.088  0.0102  0.1501  0.1238
  171loPI   C4B 2736  10.755  16.142   7.879 -0.2359  0.2462 -0.3992
  172loPI    C1 2737  10.964  15.794  10.359  0.2604 -0.0514 -0.3225
  172loPI    C2 2738  11.329  15.632  10.343  0.1987 -0.2133 -0.1304
  172loPI    C3 2739  11.173  15.738  10.696  0.0569 -0.1523 -0.2110
  172loPI   PO4 2740  10.977  15.764   9.978  0.1210 -0.0032 -0.1526
  172loPI   GL1 2741  10.879  15.575   9.544  0.1006  0.1852 -0.4939
  172loPI   GL2 2742  11.224  15.504   9.516 -0.0610  0.1987  0.0912
  172loPI   C1A 2743  10.806  15.448   9.178  0.1695  0.1221 -0.1682
  172loPI   C2A 2744  10.859  15.476   8.814  0.0919  0.0386  0.2834
  172loPI   C3A 2745  10.820  15.307   8.583  0.1256  0.2969  0.4090
  172loPI   C4A 2746  10.601  15.140   8.252  0.0669 -0.2048  0.5820
  172loPI   C5A 2747  10.466  15.125   7.768 -0.1734  0.3926  0.2405
  172loPI   C6A 2748  10.636  14.756   7.643 -0.0981 -0.2756  0.2237
  172loPI   C1B 2749  11.340  15.232   9.032  0.2518  0.1060  0.2208
  172loPI   C2B 2750  11.325  15.089   8.486 -0.0033 -0.0437  0.1845
  172loPI   C3B 2751  11.389  14.985   8.135 -0.0653  0.2509 -0.1038
  172loPI   C4B 2752  11.096  15.111   7.808 -0.3298 -0.2672  0.0891
  173loPI    C1 2753   8.906   5.352  10.169 -0.1108  0.1512 -0.0442
  173loPI    C2 2754   8.986   5.407  10.557 -0.1466 -0.0177 -0.0121
  173loPI    C3 2755   8.607   5.403  10.430 -0.1288  0.2254 -0.0789
  173loPI   PO4 2756   9.042   5.182  10.096  0.0385  0.1532  0.0372
  173loPI   GL1 2757   9.107   5.339   9.683  0.2293 -0.0873 -0.0998
  173loPI   GL2 2758   8.983   5.584   9.733  0.0736 -0.1072  0.0624
  173loPI   C1A 2759   9.496   5.159   9.467 -0.0915 -0.3006  0.3358
  173loPI   C2A 2760   9.534   5.187   9.085  0.3028 -0.0763 -0.2936
  173loPI   C3A 2761   9.571   4.903   8.713  0.1357 -0.2438  0.1127
  173loPI   C4A 2762   9.142   4.710   8.555  0.0284  0.1332  0.1000
  173loPI   C5A 2763   8.909   4.684   8.212  0.5408  0.2742 -0.1868
  173loPI   C6A 2764   8.804   4.638   7.730 -0.3143 -0.2202  0.1744
  173loPI   C1B 2765   9.108   5.601   9.307  0.0963  0.2970  0.0294
  173loPI   C2B 2766   9.305   5.659   8.951 -0.1465  0.0920  0.1074
  173loPI   C3B 2767   9.270   5.977   8.580  0.2809  0.0272 -0.0373
  173loPI   C4B 2768   9.330   5.814   8.185 -0.3886 -0.0001  0.0630
  174loPI    C1 2769   6.740  13.620  10.112 -0.2022 -0.1969 -0.0157
  174loPI    C2 2770   6.578  13.932   9.922  0.2330 -0.0756 -0.1982
  174loPI    C3 2771   6.430  13.814  10.274 -0.0665  0.2053 -0.2256
  174loPI   PO4 2772   6.980  13.610   9.955 -0.3156 -0.1464  0.4144
  174loPI   GL1 2773   7.019  13.829   9.524  0.1630 -0.1496  0.2202
  174loPI   GL2 2774   6.858  13.979   9.428  0.2904 -0.1605  0.3916
  174loPI   C1A 2775   7.282  13.484   9.318 -0.1793  0.2884 -0.4926
  174loPI   C2A 2776   7.505  13.296   8.974 -0.2804 -0.0290 -0.2743
  174loPI   C3A 2777   7.696  13.176   8.628 -0.4647  0.3243 -0.0814
  174loPI   C4A 2778   7.555  13.242   8.225 -0.4528 -0.1279 -0.1422
  174loPI   C5A 2779   7.249  12.975   8.104  0.0857  0.0107 -0.0650
  174loPI   C6A 2780   7.220  12.508   8.115  0.0108 -0.1706 -0.2791
  174loPI   C1B 2781   7.109  14.217   9.157 -0.0387 -0.0999  0.1778
  174loPI   C2B 2782   7.236  14.452   8.907 -0.0879 -0.0117 -0.0033
  174loPI   C3B 2783   7.078  14.555   8.605 -0.3594 -0.0126  0.1934
  174loPI   C4B 2784   7.114  14.810   8.219 -0.1097  0.3547 -0.1678
  175loPI    C1 2785   9.905   5.242  10.095  0.0369 -0.1127  0.1485
  175loPI    C2 2786   9.543   5.317   9.942  0.1680  0.3136  0.0329
  175loPI    C3 2787   9.614   4.969  10.126 -0.2644  0.1780 -0.0443
  175loPI   PO4 2788  10.098   5.390   9.971  0.2610  0.1483 -0.3009
  175loPI   GL1 2789   9.925   5.490   9.615 -0.2699 -0.0326 -0.2433
  175loPI   GL2 2790   9.628   5.770   9.683  0.0923 -0.1995 -0.0769
  175loPI   C1A 2791  10.250   5.893   9.431 -0.0753 -0.1267  0.3760
  175loPI   C2A 2792  10.538   5.938   9.037 -0.0678 -0.1001  0.0529
  175loPI   C3A 2793  10.597   6.029   8.550 -0.3374  0.0602  0.2188
  175loPI   C4A 2794  10.365   6.001   8.133 -0.2706 -0.2234  0.1877
  175loPI   C5A 2795   9.942   5.829   7.863  0.0243  0.0841 -0.1749
  175loPI   C6A 2796   9.449   5.760   7.716 -0.1011  0.2173  0.1386
  175loPI   C1B 2797   9.559   6.111   9.221 -0.3280 -0.3832 -0.1921
  175loPI   C2B 2798   9.675   6.237   8.860 -0.2171 -0.0016  0.0454
  175loPI   C3B 2799   9.702   6.464   8.461  0.1543 -0.0044  0.1265
  175loPI   C4B 2800   9.680   6.829   8.134  0.1865  0.0288  0.3267
  176loPI    C1 2801   0.253   8.825   9.759 -0.2760 -0.0545  0.0189
  176loPI    C2 2802   0.567   9.073   9.776 -0.1157 -0.2386 -0.1945
  176loPI    C3 2803   0.588   8.711   9.946 -0.4819  0.0245  0.4491
  176loPI   PO4 2804   0.222   8.833   9.462  0.0511 -0.2443  0.0221
  176loPI   GL1 2805   0.023   9.088   8.986  0.0377 -0.0103  0.0794
  176loPI   GL2 2806  -0.018   8.707   9.034 -0.0375 -0.3948 -0.2541
  176loPI   C1A 2807  -0.413   9.063   8.943  0.3718  0.1315 -0.4385
  176loPI   C2A 2808  -0.758   8.826   8.811 -0.1189  0.3814  0.3542
  176loPI   C3A 2809  -1.064   8.788   8.473  0.0919 -0.0812 -0.0325
  176loPI   C4A 2810  -1.343   8.679   8.171  0.1374 -0.1118  0.0451
  176loPI   C5A 2811  -1.489   9.002   7.687  0.2138  0.4534 -0.1087
  176loPI   C6A 2812  -1.382   9.318   7.374 -0.0747  0.1865  0.0214
  176loPI   C1B 2813  -0.006   8.796   8.565 -0.4420  0.3115 -0.4206
  176loPI   C2B 2814  -0.128   8.817   8.226  0.0371  0.0010  0.0505
  176loPI   C3B 2815  -0.148   8.533   7.941  0.1957  0.0367  0.0191
  176loPI   C4B 2816   0.221   8.323   7.762  0.1944  0.1246 -0.1577
  177loPI    C1 2817   0.426  12.876  10.178 -0.1927 -0.1809  0.1154
  177loPI    C2 2818   0.255  13.237  10.201  0.0542 -0.0472 -0.0953
  177loPI    C3 2819   0.393  13.059  10.532  0.0127  0.0915 -0.0025
  177loPI   PO4 2820   0.510  12.898   9.884 -0.3200  0.2865 -0.1161
  177loPI   GL1 2821   0.771  12.873   9.517 -0.1974  0.0045 -0.0279
  177loPI   GL2 2822   0.504  13.087   9.360 -0.2776  0.3036 -0.0641
  177loPI   C1A 2823   0.797  12.775   9.035 -0.1119  0.1439  0.0178
  177loPI   C2A 2824   0.770  12.760   8.658  0.0374 -0.1538 -0.0885
  177loPI   C3A 2825   0.617  12.819   8.192  0.0675 -0.1141 -0.1596
  177loPI   C4A 2826   0.644  12.773   7.717 -0.0210  0.3916  0.4036
  177loPI   C5A 2827   0.346  12.788   7.313  0.0226  0.0716  0.3049
  177loPI   C6A 2828  -0.045  12.594   7.024  0.0689 -0.1079 -0.0038
  177loPI   C1B 2829   0.444  13.072   8.917  0.0191 -0.1720 -0.0290
  177loPI   C2B 2830   0.173  12.906   8.519 -0.0415 -0.1989  0.1841
  177loPI   C3B 2831  -0.163  12.695   8.296  0.1017  0.0469  0.1880
  177loPI   C4B 2832  -0.467  12.456   7.988  0.0979 -0.1200  0.0618
  178loPI    C1 2833   0.723   7.185   9.962 -0.0817  0.0018  0.1069
  178loPI    C2 2834   1.092   7.065  10.058 -0.0561  0.1917  0.2519
  178loPI    C3 2835   0.891   7.309  10.303 -0.2983  0.0498  0.1979
  178loPI   PO4 2836   0.724   7.065   9.712  0.0237 -0.1823 -0.4720
  178loPI   GL1 2837   0.751   6.914   9.300 -0.3390 -0.1066  0.0918
  178loPI   GL2 2838   1.059   6.911   9.112  0.0615  0.0149  0.1847
  178loPI   C1A 2839   0.604   7.065   8.815 -0.0817 -0.1192 -0.0407
  178loPI   C2A 2840   0.536   6.889   8.472 -0.0276 -0.2584  0.3606
  178loPI   C3A 2841   0.603   6.903   8.114  0.1946 -0.2064  0.3191
  178loPI   C4A 2842   0.447   6.654   7.718  0.1503 -0.2228 -0.1323
  178loPI   C5A 2843   0.321   6.701   7.316 -0.0773  0.2151  0.2759
  178loPI   C6A 2844   0.002   6.459   7.034 -0.0242  0.0407  0.1246
  178loPI   C1B 2845   1.118   7.359   8.875  0.3542 -0.0267  0.1011
  178loPI   C2B 2846   1.108   7.712   8.534 -0.2274  0.0190 -0.1586
  178loPI   C3B 2847   0.708   7.850   8.305  0.2650  0.0097  0.1235
  178loPI   C4B 2848   0.413   7.931   8.144 -0.2337 -0.1633 -0.0927
  179loPI    C1 2849   8.383  11.604  10.308 -0.0988  0.0807 -0.1672
  179loPI    C2 2850   8.098  11.466  10.552 -0.0575  0.0531 -0.1340
  179loPI    C3 2851   7.999  11.679  10.228 -0.0992  0.3413  0.0645
  179loPI   PO4 2852   8.648  11.650  10.422 -0.0800  0.1107  0.5277
  179loPI   GL1 2853   8.929  11.603   9.961 -0.0173  0.0407  0.2647
  179loPI   GL2 2854   8.894  11.408   9.895  0.1458 -0.1982 -0.2213
  179loPI   C1A 2855   9.033  11.863   9.587  0.2690  0.0331 -0.1408
  179loPI   C2A 2856   9.031  11.820   9.159  0.1176 -0.0093 -0.1815
  179loPI   C3A 2857   9.010  11.721   8.734 -0.5029  0.3309  0.3238
  179loPI   C4A 2858   9.143  11.712   8.317  0.3094  0.0002  0.3096
  179loPI   C5A 2859   9.496  12.053   8.140 -0.0308  0.1158  0.1844
  179loPI   C6A 2860   9.814  12.256   8.114  0.1123 -0.1014 -0.2631
  179loPI   C1B 2861   9.143  11.374   9.534  0.0975 -0.1558  0.0196
  179loPI   C2B 2862   9.217  11.307   9.057 -0.4079 -0.2161 -0.0868
  179loPI   C3B 2863   9.202  11.154   8.694  0.1372  0.0342  0.0723
  179loPI   C4B 2864   9.081  10.912   8.348  0.0835  0.0835 -0.1840
  180loPI    C1 2865   3.723  14.994   9.853 -0.0217  0.1456 -0.0322
  180loPI    C2 2866   3.930  15.260  10.068  0.0311 -0.0090  0.1103
  180loPI    C3 2867   3.552  15.175  10.167 -0.0097  0.0668  0.0202
  180loPI   PO4 2868   3.712  15.066   9.558 -0.0070  0.0796 -0.0497
  180loPI   GL1 2869   3.500  15.264   9.308  0.0796 -0.1839 -0.0626
  180loPI   GL2 2870   3.745  15.035   9.070  0.0771  0.2086  0.2686
  180loPI   C1A 2871   3.491  15.435   8.842 -0.2270  0.3514 -0.3257
  180loPI   C2A 2872   3.454  15.400   8.415 -0.2070  0.3798  0.0631
  180loPI   C3A 2873   3.248  15.473   8.148 -0.1287 -0.1643  0.2704
  180loPI   C4A 2874   3.054  15.682   7.761  0.1615 -0.1423 -0.0349
  180loPI   C5A 2875   2.693  15.554   7.668  0.4457  0.2966  0.0158
  180loPI   C6A 2876   2.280  15.375   7.452 -0.1427  0.2251 -0.2156
  180loPI   C1B 2877   3.816  15.029   8.667 -0.0602 -0.1888  0.2839
  180loPI   C2B 2878   3.777  14.990   8.263  0.0727 -0.3352  0.1501
  180loPI   C3B 2879   3.686  14.803   7.802  0.4868 -0.5957  0.0767
  180loPI   C4B 2880   3.594  14.414   7.674  0.0982 -0.3050  0.4304
  181loPI    C1 2881   9.785   0.602   9.840 -0.0997 -0.0166 -0.1343
  181loPI    C2 2882   9.646   0.869  10.103  0.2631 -0.1047  0.1538
  181loPI    C3 2883   9.931   0.974   9.843  0.0653 -0.0809 -0.0558
  181loPI   PO4 2884   9.773   0.340   9.998  0.1030 -0.0598 -0.0040
  181loPI   GL1 2885   9.751  -0.013   9.687  0.2983 -0.1081 -0.0372
  181loPI   GL2 2886   9.517  -0.211   9.529 -0.0060  0.2335  0.2113
  181loPI   C1A 2887  10.099  -0.069   9.315  0.0367  0.2783 -0.0436
  181loPI   C2A 2888  10.259   0.142   8.963  0.1933  0.3666 -0.0654
  181loPI   C3A 2889  10.394   0.033   8.624 -0.0328  0.0157 -0.4297
  181loPI   C4A 2890  10.249  -0.049   8.202  0.0614  0.1983  0.1951
  181loPI   C5A 2891  10.240   0.037   7.788 -0.0648 -0.1922  0.0380
  181loPI   C6A 2892   9.834  -0.058   7.528 -0.0535 -0.1017  0.0146
  181loPI   C1B 2893   9.255  -0.467   9.197  0.2106  0.1723  0.0179
  181loPI   C2B 2894   9.399  -0.836   9.096 -0.2926 -0.0414 -0.2854
  181loPI   C3B 2895   9.804  -0.873   8.856  0.1634  0.1515  0.0266
  181loPI   C4B 2896   9.954  -0.819   8.374 -0.0620 -0.1061 -0.2671
  182loPI    C1 2897  11.094  13.233  10.370 -0.2428 -0.3479  0.1267
  182loPI    C2 2898  10.915  13.228  10.728 -0.0460 -0.0068  0.2339
  182loPI    C3 2899  11.236  12.999  10.662  0.0443  0.0857  0.3452
  182loPI   PO4 2900  10.976  13.519  10.225  0.0436  0.0124  0.1716
  182loPI   GL1 2901  10.815  13.443   9.820 -0.2970 -0.0097 -0.0486
  182loPI   GL2 2902  10.958  13.259   9.707 -0.2002  0.4088 -0.1880
  182loPI   C1A 2903  10.584  13.647   9.550  0.0178  0.2338 -0.0929
  182loPI   C2A 2904  10.477  13.547   9.064  0.0469 -0.3461 -0.2223
  182loPI   C3A 2905  10.402  13.394   8.712 -0.1977  0.1114 -0.0151
  182loPI   C4A 2906  10.137  13.378   8.345  0.0127  0.0334 -0.0648
  182loPI   C5A 2907  10.037  13.491   7.963 -0.0115  0.1498  0.1588
  182loPI   C6A 2908   9.775  13.833   7.942 -0.1238 -0.3269  0.1887
  182loPI   C1B 2909  10.893  13.138   9.319  0.0952 -0.0175  0.0076
  182loPI   C2B 2910  10.808  13.153   8.911  0.0289 -0.0057  0.0486
  182loPI   C3B 2911  10.589  12.992   8.483 -0.0551 -0.0392 -0.0593
  182loPI   C4B 2912  10.192  12.885   8.184  0.0359  0.2368  0.0238
  183loPI    C1 2913   4.161  11.812   9.890  0.0058  0.1024  0.0739
  183loPI    C2 2914   4.215  11.416   9.873 -0.1536  0.0874 -0.1137
  183loPI    C3 2915   4.183  11.598  10.228 -0.0604 -0.0647 -0.0261
  183loPI   PO4 2916   4.036  11.851   9.764 -0.1181  0.1262 -0.0506
  183loPI   GL1 2917   3.881  11.862   9.351 -0.1818  0.0260 -0.0744
  183loPI   GL2 2918   4.193  11.912   9.221  0.3328 -0.5450  0.2840
  183loPI   C1A 2919   3.724  12.001   8.935  0.1351  0.1500 -0.2141
  183loPI   C2A 2920   3.464  11.908   8.589 -0.1248  0.1572  0.1403
  183loPI   C3A 2921   3.164  12.045   8.315 -0.0078  0.4972 -0.0649
  183loPI   C4A 2922   2.857  12.253   8.065  0.1372  0.1001  0.0150
  183loPI   C5A 2923   2.599  12.149   7.769 -0.1903 -0.0132  0.2647
  183loPI   C6A 2924   2.464  12.113   7.403  0.2767 -0.0853 -0.2598
  183loPI   C1B 2925   4.213  12.243   8.781 -0.0850  0.0432  0.0331
  183loPI   C2B 2926   4.188  12.478   8.429  0.2244 -0.1673  0.2105
  183loPI   C3B 2927   4.171  12.805   7.973 -0.1028  0.0176 -0.4519
  183loPI   C4B 2928   4.196  13.174   7.694  0.0533  0.0235 -0.2371
  184loPI    C1 2929  12.991   2.566  10.294 -0.0030  0.0829 -0.2744
  184loPI    C2 2930  12.705   2.306  10.191  0.1761 -0.2343  0.0104
  184loPI    C3 2931  12.621   2.605  10.442  0.0566 -0.2290 -0.0350
  184loPI   PO4 2932  13.187   2.573  10.033 -0.1950 -0.1084 -0.0575
  184loPI   GL1 2933  13.164   2.668   9.611 -0.2363  0.3414  0.2501
  184loPI   GL2 2934  12.909   2.858   9.555  0.2045 -0.3078  0.0329
  184loPI   C1A 2935  13.096   2.684   9.122 -0.3150  0.1334 -0.0870
  184loPI   C2A 2936  12.803   2.718   8.838  0.3180 -0.0361 -0.3553
  184loPI   C3A 2937  12.846   2.584   8.546 -0.1004  0.0021 -0.0490
  184loPI   C4A 2938  13.068   2.251   8.381  0.0611  0.1109 -0.2423
  184loPI   C5A 2939  12.976   1.915   8.286  0.3483 -0.1963 -0.1769
  184loPI   C6A 2940  12.983   1.522   8.551  0.3311 -0.3360  0.0421
  184loPI   C1B 2941  12.709   3.046   9.180 -0.6519 -0.2941 -0.4355
  184loPI   C2B 2942  12.710   3.330   8.901  0.1957  0.0161 -0.1240
  184loPI   C3B 2943  12.865   3.533   8.603  0.0775  0.1330 -0.0069
  184loPI   C4B 2944  12.839   3.531   8.239 -0.2228 -0.0767 -0.1291
  185loPI    C1 2945  15.175  12.031  10.722  0.0944  0.0041  0.0541
  185loPI    C2 2946  14.973  11.933  11.053  0.0891 -0.2329 -0.0172
  185loPI    C3 2947  15.372  11.952  11.061  0.0846 -0.1501  0.0246
  185loPI   PO4 2948  15.067  11.851  10.516 -0.0040 -0.3791 -0.0182
  185loPI   GL1 2949  15.024  11.882  10.092 -0.1648  0.0984  0.0188
  185loPI   GL2 2950  15.213  12.091  10.135  0.2171  0.3569 -0.1432
  185loPI   C1A 2951  14.887  11.988   9.738  0.0150 -0.0910  0.3165
  185loPI   C2A 2952  14.661  11.999   9.303 -0.1115 -0.3633 -0.1861
  185loPI   C3A 2953  14.582  12.100   8.912 -0.1460 -0.1130 -0.0202
  185loPI   C4A 2954  14.501  12.113   8.429 -0.3525 -0.2477  0.0010
  185loPI   C5A 2955  14.740  12.173   8.044 -0.0386  0.0723  0.0162
  185loPI   C6A 2956  14.697  12.221   7.707  0.0782  0.1451  0.2038
  185loPI   C1B 2957  15.358  11.987   9.729 -0.0015  0.2773  0.3970
  185loPI   C2B 2958  15.205  11.904   9.410  0.1979 -0.0830  0.3310
  185loPI   C3B 2959  15.037  11.814   9.016  0.0573  0.0830 -0.1473
  185loPI   C4B 2960  14.911  11.827   8.654 -0.3513  0.2520 -0.0637
  186loPI    C1 2961   9.811  14.809  10.300  0.3599  0.1973  0.3621
  186loPI    C2 2962  10.172  14.640  10.271  0.2356 -0.0313  0.0980
  186loPI    C3 2963   9.844  14.413  10.249  0.0706  0.2078  0.0647
  186loPI   PO4 2964   9.767  15.012  10.031  0.4333 -0.1119 -0.2275
  186loPI   GL1 2965   9.893  14.862   9.620  0.0050 -0.2258  0.3011
  186loPI   GL2 2966   9.950  14.594   9.798  0.3405 -0.0902 -0.0603
  186loPI   C1A 2967  10.049  14.703   9.183 -0.0806 -0.0983  0.0070
  186loPI   C2A 2968  10.079  14.535   8.828  0.0873 -0.0467  0.0700
  186loPI   C3A 2969   9.866  14.343   8.697  0.2824  0.1863  0.2834
  186loPI   C4A 2970   9.658  14.160   8.387 -0.0866  0.2013 -0.0044
  186loPI   C5A 2971   9.773  14.351   7.929  0.0105  0.1511 -0.0669
  186loPI   C6A 2972  10.172  14.676   7.896  0.1903 -0.0395  0.0292
  186loPI   C1B 2973  10.168  14.304   9.634  0.1271  0.2930 -0.0194
  186loPI   C2B 2974  10.037  14.183   9.257 -0.0366  0.0917  0.1444
  186loPI   C3B 2975  10.104  13.947   8.893 -0.0556  0.3715  0.1553
  186loPI   C4B 2976  10.075  13.934   8.499 -0.0402 -0.1765  0.1609
  187loPI    C1 2977  15.388   8.624  10.211  0.0132  0.2719  0.1925
  187loPI    C2 2978  15.138   8.312  10.235  0.2654  0.0389 -0.1225
  187loPI    C3 2979  15.137   8.591  10.522  0.0147 -0.2330  0.1491
  187loPI   PO4 2980  15.353   8.699   9.964  0.0357  0.1883 -0.0280
  187loPI   GL1 2981  15.086   8.526   9.706 -0.4106  0.0642  0.0315
  187loPI   GL2 2982  15.195   8.274   9.601  0.1396 -0.2272  0.3509
  187loPI   C1A 2983  15.211   8.666   9.292 -0.1888  0.0693  0.0414
  187loPI   C2A 2984  15.099   8.827   8.879  0.1084 -0.2227 -0.2292
  187loPI   C3A 2985  15.009   8.884   8.443 -0.2149  0.0635 -0.2149
  187loPI   C4A 2986  15.043   8.788   7.966  0.2433  0.2408 -0.0299
  187loPI   C5A 2987  15.385   8.979   7.702 -0.0542 -0.0714  0.0334
  187loPI   C6A 2988  15.608   9.351   7.775 -0.0760  0.2117  0.3007
  187loPI   C1B 2989  14.925   8.282   9.058  0.1533 -0.0265 -0.1149
  187loPI   C2B 2990  14.818   8.279   8.617 -0.1365 -0.2232  0.2470
  187loPI   C3B 2991  14.734   8.525   8.297  0.1846 -0.1657  0.0361
  187loPI   C4B 2992  14.460   8.677   7.969  0.0555  0.0687 -0.0771
  188loPI    C1 2993   7.333   9.506  11.073 -0.0426  0.1687 -0.0843
  188loPI    C2 2994   7.108   9.238  11.267  0.1700  0.0486 -0.0003
  188loPI    C3 2995   7.034   9.628  11.309  0.0523  0.0140  0.1196
  188loPI   PO4 2996   7.427   9.398  10.864  0.0994 -0.0194  0.0617
  188loPI   GL1 2997   7.595   9.529  10.357 -0.0562 -0.3271 -0.0940
  188loPI   GL2 2998   7.629   9.871  10.291  0.1062 -0.0211  0.1525
  188loPI   C1A 2999   7.671   9.316  10.116  0.3428  0.2914  0.0207
  188loPI   C2A 3000   7.682   9.235   9.600 -0.1289  0.2697 -0.2858
  188loPI   C3A 3001   7.493   9.227   9.192 -0.1091  0.0453  0.2350
  188loPI   C4A 3002   7.431   8.983   8.910 -0.2118 -0.0007  0.0814
  188loPI   C5A 3003   7.602   8.925   8.499 -0.0322  0.0696 -0.3817
  188loPI   C6A 3004   7.123   8.738   8.314 -0.1159 -0.1930 -0.1900
  188loPI   C1B 3005   7.651   9.753   9.854  0.0446 -0.5512 -0.0232
  188loPI   C2B 3006   7.781   9.719   9.373  0.0037 -0.1703 -0.0300
  188loPI   C3B 3007   7.709   9.782   8.927  0.3556 -0.0293  0.1712
  188loPI   C4B 3008   7.673   9.894   8.412  0.0921 -0.2832 -0.0754
  189loPI    C1 3009  13.894   6.549  10.189  0.1129  0.0166 -0.1385
  189loPI    C2 3010  14.230   6.396  10.345  0.0461  0.0016 -0.0081
  189loPI    C3 3011  13.882   6.204  10.391 -0.0086  0.1023  0.0023
  189loPI   PO4 3012  13.908   6.616  10.042  0.0793 -0.0970 -0.1262
  189loPI   GL1 3013  13.863   6.500   9.537  0.1863 -0.1892 -0.2311
  189loPI   GL2 3014  14.129   6.380   9.466  0.0423  0.0834 -0.1725
  189loPI   C1A 3015  13.629   6.400   9.213  0.0374 -0.1586  0.1531
  189loPI   C2A 3016  13.628   6.531   8.820  0.0703 -0.2493  0.1804
  189loPI   C3A 3017  13.592   6.387   8.458  0.2980 -0.2166  0.2047
  189loPI   C4A 3018  13.386   6.162   8.202  0.2310 -0.2947 -0.1908
  189loPI   C5A 3019  13.039   6.008   7.869 -0.1444 -0.1524 -0.0359
  189loPI   C6A 3020  12.659   5.861   7.820  0.3325  0.1700 -0.1974
  189loPI   C1B 3021  14.078   6.459   8.987 -0.1365  0.0838 -0.4232
  189loPI   C2B 3022  14.089   6.453   8.573  0.0664 -0.0828  0.2919
  189loPI   C3B 3023  13.980   6.488   8.182  0.2895  0.0460 -0.0294
  189loPI   C4B 3024  13.732   6.535   7.907  0.0867 -0.1929 -0.1842
  190loPI    C1 3025  14.106   5.353  10.009 -0.1014 -0.0117  0.1713
  190loPI    C2 3026  13.714   5.279   9.989 -0.1112  0.0130  0.2696
  190loPI    C3 3027  13.973   4.976  10.025 -0.1113 -0.0130  0.0621
  190loPI   PO4 3028  14.170   5.489   9.821  0.0551 -0.0161  0.1061
  190loPI   GL1 3029  14.189   5.383   9.470  0.0416  0.0911 -0.0476
  190loPI   GL2 3030  14.189   5.017   9.529  0.0295  0.0075 -0.0703
  190loPI   C1A 3031  14.063   5.520   9.126 -0.0451 -0.0009  0.0206
  190loPI   C2A 3032  13.915   5.508   8.629  0.0996  0.0111  0.5809
  190loPI   C3A 3033  13.917   5.461   8.181 -0.1792 -0.0245 -0.0891
  190loPI   C4A 3034  13.927   5.754   7.842  0.0078 -0.2853  0.1089
  190loPI   C5A 3035  14.099   6.173   7.759  0.1540 -0.2897  0.1977
  190loPI   C6A 3036  14.299   6.612   7.810  0.0141 -0.0176 -0.1530
  190loPI   C1B 3037  14.284   5.063   9.088  0.0255  0.3512 -0.0311
  190loPI   C2B 3038  14.191   5.040   8.587 -0.1935  0.0257  0.1544
  190loPI   C3B 3039  13.959   5.020   8.399 -0.4013  0.2705 -0.1132
  190loPI   C4B 3040  13.661   5.022   8.073  0.0649 -0.5804  0.1524
  191loPI    C1 3041   7.459  10.517  10.688 -0.0084 -0.0266 -0.2730
  191loPI    C2 3042   7.676  10.852  10.695  0.0896 -0.0928  0.3394
  191loPI    C3 3043   7.289  10.867  10.597  0.1708  0.1455  0.0397
  191loPI   PO4 3044   7.635  10.353  10.476 -0.0503 -0.0830 -0.2274
  191loPI   GL1 3045   7.923  10.160  10.009  0.1559 -0.1003  0.1314
  191loPI   GL2 3046   8.029  10.390   9.929 -0.0418 -0.1417 -0.1347
  191loPI   C1A 3047   8.147   9.998   9.707 -0.0097  0.0278 -0.1671
  191loPI   C2A 3048   8.146  10.027   9.232 -0.1181 -0.1977 -0.0005
  191loPI   C3A 3049   8.251   9.683   9.061  0.2970 -0.1229 -0.0765
  191loPI   C4A 3050   8.234   9.566   8.672  0.0416  0.2735  0.1659
  191loPI   C5A 3051   8.189   9.742   8.341 -0.0894 -0.2213  0.4337
  191loPI   C6A 3052   8.445   9.563   8.156  0.1598 -0.2403 -0.2098
  191loPI   C1B 3053   8.027  10.502   9.442 -0.0935  0.0685  0.1568
  191loPI   C2B 3054   8.023  10.469   9.033  0.1218 -0.0199  0.1436
  191loPI   C3B 3055   8.081  10.390   8.724  0.4174  0.3689 -0.0658
  191loPI   C4B 3056   8.040  10.023   8.666 -0.1975 -0.0224  0.0551
  192loPI    C1 3057   7.255   7.785  10.392 -0.1118 -0.0852  0.2996
  192loPI    C2 3058   7.530   8.073  10.353 -0.0391 -0.1954 -0.0336
  192loPI    C3 3059   7.357   8.008  10.708  0.0955  0.1184  0.0927
  192loPI   PO4 3060   7.416   7.569  10.243  0.0384 -0.4051 -0.2190
  192loPI   GL1 3061   7.402   7.695   9.865  0.1657 -0.1928  0.0920
  192loPI   GL2 3062   7.245   8.005   9.938  0.3597 -0.4787  0.1290
  192loPI   C1A 3063   7.371   7.876   9.432 -0.0857 -0.2009 -0.1625
  192loPI   C2A 3064   7.305   8.047   8.964  0.0257  0.3158  0.2340
  192loPI   C3A 3065   6.993   8.082   8.610  0.2145  0.1473 -0.1933
  192loPI   C4A 3066   6.945   7.767   8.333  0.1172  0.2765  0.4175
  192loPI   C5A 3067   6.690   7.923   7.884  0.0739 -0.0286  0.1520
  192loPI   C6A 3068   6.923   7.875   7.492 -0.2222  0.0009 -0.1257
  192loPI   C1B 3069   7.562   8.267   9.753 -0.0547  0.0076 -0.1367
  192loPI   C2B 3070   7.787   8.345   9.522 -0.4127 -0.1125 -0.4613
  192loPI   C3B 3071   8.208   8.368   9.448 -0.3402  0.1173 -0.0364
  192loPI   C4B 3072   8.478   8.614   9.649  0.1103 -0.3950  0.0338
  193loPI    C1 3073  13.896   0.823  10.276 -0.0628 -0.0419 -0.0513
  193loPI    C2 3074  13.873   0.681  10.650  0.1087  0.0893  0.0102
  193loPI    C3 3075  13.571   0.621  10.394  0.0984 -0.2222  0.0915
  193loPI   PO4 3076  13.980   1.033  10.300 -0.1349  0.0682 -0.1587
  193loPI   GL1 3077  13.947   1.316  10.002  0.0350 -0.0632 -0.1847
  193loPI   GL2 3078  13.851   1.110   9.809 -0.2590 -0.1872  0.0299
  193loPI   C1A 3079  14.013   1.446   9.480  0.2260  0.0568 -0.3562
  193loPI   C2A 3080  13.976   1.298   9.065 -0.4262  0.2535  0.0388
  193loPI   C3A 3081  14.345   1.444   8.762 -0.1617 -0.0122 -0.0798
  193loPI   C4A 3082  14.426   1.540   8.418 -0.2347 -0.0983 -0.2975
  193loPI   C5A 3083  14.425   1.714   8.059 -0.2297  0.1420 -0.0472
  193loPI   C6A 3084  14.350   1.933   7.721  0.0534  0.1923  0.1476
  193loPI   C1B 3085  13.708   0.969   9.408 -0.0707 -0.1404 -0.1164
  193loPI   C2B 3086  13.593   0.944   9.051  0.0234 -0.0863 -0.2601
  193loPI   C3B 3087  13.639   0.679   8.752  0.4991 -0.1040 -0.3392
  193loPI   C4B 3088  13.567   0.305   8.433  0.0300  0.2555 -0.1271
  194loPI    C1 3089   2.564   5.411   9.708 -0.3012 -0.2795 -0.4267
  194loPI    C2 3090   2.185   5.459   9.828 -0.2084  0.1791 -0.2982
  194loPI    C3 3091   2.344   5.092   9.808 -0.5071  0.0197  0.1158
  194loPI   PO4 3092   2.549   5.567   9.528  0.1366 -0.0893 -0.0384
  194loPI   GL1 3093   2.709   5.657   9.101  0.2900 -0.1085 -0.0081
  194loPI   GL2 3094   2.986   5.749   8.974 -0.1539  0.1201 -0.3866
  194loPI   C1A 3095   2.423   5.800   8.767  0.3732  0.1348  0.0877
  194loPI   C2A 3096   2.345   5.978   8.375 -0.0110 -0.0462  0.0405
  194loPI   C3A 3097   2.530   6.180   8.025 -0.3211 -0.4092  0.0410
  194loPI   C4A 3098   2.400   6.424   7.727 -0.3010  0.0215 -0.3163
  194loPI   C5A 3099   2.370   6.608   7.385  0.0438 -0.0498 -0.3684
  194loPI   C6A 3100   2.630   6.849   7.218  0.0001  0.0311  0.2652
  194loPI   C1B 3101   2.845   5.858   8.383  0.3050 -0.0018 -0.0563
  194loPI   C2B 3102   2.989   5.685   8.056 -0.3103  0.0151  0.1903
  194loPI   C3B 3103   3.315   5.496   7.880 -0.1009 -0.0004 -0.1124
  194loPI   C4B 3104   3.580   5.077   7.788  0.0937  0.4964 -0.0657
  195loPI    C1 3105   1.432   6.260   9.998 -0.0105 -0.1142 -0.0166
  195loPI    C2 3106   1.511   6.650   9.954  0.2007 -0.1573 -0.0300
  195loPI    C3 3107   1.333   6.518  10.287 -0.1441 -0.0118 -0.1514
  195loPI   PO4 3108   1.471   6.196   9.669  0.0919 -0.2046  0.0174
  195loPI   GL1 3109   1.361   6.406   9.393 -0.0048  0.1968  0.0569
  195loPI   GL2 3110   1.359   6.181   8.970 -0.2135 -0.1988 -0.2936
  195loPI   C1A 3111   1.516   6.667   8.941 -0.1624 -0.1717 -0.0340
  195loPI   C2A 3112   1.711   6.761   8.499  0.0770  0.1506 -0.0421
  195loPI   C3A 3113   1.700   7.050   8.204  0.2208 -0.2787 -0.1213
  195loPI   C4A 3114   1.688   6.972   7.808 -0.4647 -0.1188 -0.0289
  195loPI   C5A 3115   1.519   6.805   7.365 -0.0968  0.0908  0.4948
  195loPI   C6A 3116   1.206   6.996   7.074  0.2285 -0.1578 -0.0198
  195loPI   C1B 3117   1.258   6.449   8.612 -0.1026  0.1115  0.0471
  195loPI   C2B 3118   1.154   6.851   8.494  0.1145 -0.1604 -0.0447
  195loPI   C3B 3119   0.919   7.216   8.432 -0.3458 -0.0586 -0.0422
  195loPI   C4B 3120   0.529   7.522   8.601  0.1592  0.2935 -0.4491
  196loPI    C1 3121  16.263   2.608  10.577  0.0796  0.1894  0.1127
  196loPI    C2 3122  16.044   2.340  10.778  0.0722  0.0838 -0.0344
  196loPI    C3 3123  16.290   2.585  10.976  0.0858 -0.0376  0.1007
  196loPI   PO4 3124  16.347   2.469  10.347 -0.4650 -0.3930 -0.1143
  196loPI   GL1 3125  16.398   2.680   9.956 -0.0344 -0.1752  0.0837
  196loPI   GL2 3126  16.100   2.703   9.799  0.2237 -0.0180 -0.0153
  196loPI   C1A 3127  16.445   3.078   9.851 -0.3115 -0.0040  0.0039
  196loPI   C2A 3128  16.059   3.215   9.539 -0.1676 -0.0582  0.1602
  196loPI   C3A 3129  16.034   3.184   9.039 -0.0903 -0.1706  0.1383
  196loPI   C4A 3130  15.996   3.188   8.536  0.2681 -0.3767 -0.2305
  196loPI   C5A 3131  16.095   3.109   8.047  0.3397  0.1353 -0.4002
  196loPI   C6A 3132  15.668   2.808   7.820 -0.1956  0.1258  0.2324
  196loPI   C1B 3133  16.283   2.779   9.466  0.1543  0.1187 -0.0311
  196loPI   C2B 3134  16.434   2.648   9.058 -0.5568 -0.0920 -0.0399
  196loPI   C3B 3135  16.431   2.673   8.547 -0.0202  0.4124 -0.0634
  196loPI   C4B 3136  16.549   2.991   8.250  0.0637  0.2188  0.1731
  197loPI    C1 3137  16.719  11.862  10.726  0.0570 -0.1143  0.0256
  197loPI    C2 3138  16.373  11.804  10.917  0.0654 -0.1931  0.0175
  197loPI    C3 3139  16.563  12.155  10.949 -0.1537 -0.0510 -0.2006
  197loPI   PO4 3140  16.639  11.815  10.464  0.0001  0.0506  0.2705
  197loPI   GL1 3141  16.630  11.725  10.020  0.0077 -0.1939 -0.1643
  197loPI   GL2 3142  16.853  11.633   9.798 -0.1969  0.1750  0.4437
  197loPI   C1A 3143  16.348  11.906   9.648 -0.0748 -0.0058 -0.1060
  197loPI   C2A 3144  16.188  12.148   9.350  0.2655  0.0101  0.1205
  197loPI   C3A 3145  15.937  12.284   8.935  0.1892 -0.1787  0.1072
  197loPI   C4A 3146  15.882  12.120   8.485 -0.1466  0.0461  0.1631
  197loPI   C5A 3147  15.556  11.986   8.169 -0.2167  0.2835  0.2057
  197loPI   C6A 3148  15.170  11.764   8.228  0.2100  0.1180  0.1740
  197loPI   C1B 3149  16.747  11.702   9.352 -0.0714 -0.1900 -0.0272
  197loPI   C2B 3150  16.546  11.962   9.060 -0.2013 -0.1228 -0.0568
  197loPI   C3B 3151  16.432  12.210   8.697 -0.2141 -0.3850 -0.0109
  197loPI   C4B 3152  16.548  12.153   8.235  0.1693  0.0677 -0.0922
  198loPI    C1 3153  14.936  10.689  10.822  0.1921  0.1458 -0.0330
  198loPI    C2 3154  14.961  10.589  11.208 -0.1566  0.1035 -0.0183
  198loPI    C3 3155  14.933  10.974  11.103 -0.2108  0.1070  0.0082
  198loPI   PO4 3156  15.179  10.626  10.646  0.0918 -0.0324  0.1035
  198loPI   GL1 3157  15.109  10.330  10.221 -0.1075 -0.1600 -0.1841
  198loPI   GL2 3158  14.901  10.573  10.240  0.0025 -0.0475  0.2656
  198loPI   C1A 3159  15.212  10.255   9.890  0.0535  0.2458 -0.2364
  198loPI   C2A 3160  15.490  10.150   9.612  0.0259  0.2197 -0.3187
  198loPI   C3A 3161  15.666  10.349   9.286 -0.0273  0.1364  0.0901
  198loPI   C4A 3162  15.584  10.376   8.837  0.1086  0.0870  0.1563
  198loPI   C5A 3163  15.662  10.252   8.465 -0.0558 -0.0220 -0.2703
  198loPI   C6A 3164  15.798  10.152   7.937  0.0739 -0.2072 -0.0343
  198loPI   C1B 3165  14.757  10.323   9.878  0.1196 -0.2253 -0.0270
  198loPI   C2B 3166  14.475   9.970   9.745  0.0018 -0.3672  0.0586
  198loPI   C3B 3167  14.137   9.828   9.460 -0.4618  0.1018 -0.1468
  198loPI   C4B 3168  13.768   9.957   9.134  0.3399 -0.3730  0.0209
  199loPI    C1 3169   5.835   4.139  10.217  0.0505 -0.1402  0.1646
  199loPI    C2 3170   5.832   4.533  10.152  0.1067 -0.1988 -0.2233
  199loPI    C3 3171   5.755   4.389  10.518  0.3292  0.1799 -0.0210
  199loPI   PO4 3172   5.637   3.878  10.025  0.2888  0.0308 -0.0490
  199loPI   GL1 3173   5.774   3.751   9.580  0.0270 -0.0764 -0.1533
  199loPI   GL2 3174   5.591   4.123   9.543  0.2243  0.0999 -0.0827
  199loPI   C1A 3175   6.116   3.771   9.197 -0.0936 -0.0661 -0.2767
  199loPI   C2A 3176   6.467   4.071   8.879  0.4466 -0.0330 -0.0499
  199loPI   C3A 3177   6.558   4.146   8.483 -0.0975  0.5478  0.1760
  199loPI   C4A 3178   6.599   4.263   8.042 -0.1416 -0.4825 -0.3504
  199loPI   C5A 3179   6.534   4.390   7.701  0.0909 -0.3183 -0.1241
  199loPI   C6A 3180   6.259   4.440   7.368 -0.0333  0.1137 -0.0680
  199loPI   C1B 3181   5.618   4.038   9.131 -0.1084  0.1730  0.0015
  199loPI   C2B 3182   5.913   4.027   8.770  0.3340  0.3796  0.1556
  199loPI   C3B 3183   6.110   4.065   8.341 -0.2793  0.0233  0.1879
  199loPI   C4B 3184   6.135   4.121   7.897 -0.0160 -0.0796  0.1385
  200loPI    C1 3185   3.783   1.780   9.997 -0.0470 -0.0025 -0.1989
  200loPI    C2 3186   3.824   1.954  10.355  0.1382 -0.1649 -0.1391
  200loPI    C3 3187   3.541   1.677  10.299 -0.2215  0.2171 -0.2615
  200loPI   PO4 3188   3.851   2.068   9.784  0.1766  0.1131 -0.0018
  200loPI   GL1 3189   3.623   2.214   9.396  0.3251 -0.0598 -0.1922
  200loPI   GL2 3190   3.568   1.912   9.164 -0.2220  0.1756  0.0035
  200loPI   C1A 3191   3.554   2.391   9.023 -0.3562 -0.0337 -0.1055
  200loPI   C2A 3192   3.592   2.273   8.617  0.1836  0.3071 -0.1375
  200loPI   C3A 3193   3.615   2.366   8.127 -0.0263  0.2451  0.2358
  200loPI   C4A 3194   3.786   2.398   7.828 -0.2535  0.1579  0.1787
  200loPI   C5A 3195   3.986   2.287   7.456  0.1686  0.1437 -0.4577
  200loPI   C6A 3196   3.941   1.928   7.082 -0.2881  0.2119 -0.0244
  200loPI   C1B 3197   3.463   1.824   8.821 -0.1992 -0.1817 -0.0422
  200loPI   C2B 3198   3.291   1.981   8.381  0.2730 -0.0223 -0.2104
  200loPI   C3B 3199   3.130   2.083   7.946 -0.0770  0.0916 -0.1590
  200loPI   C4B 3200   3.424   2.216   7.558  0.0076  0.0139  0.3144
  201loPI    C1 3201   8.057  16.443   9.890  0.2546 -0.1162 -0.0757
  201loPI    C2 3202   8.205  16.814   9.874 -0.0535  0.0156  0.0392
  201loPI    C3 3203   8.009  16.691  10.200  0.1889 -0.3067  0.0690
  201loPI   PO4 3204   8.018  16.326   9.652  0.0801 -0.0808  0.0953
  201loPI   GL1 3205   8.250  16.506   9.381 -0.1724  0.0218 -0.1723
  201loPI   GL2 3206   8.413  16.238   9.256 -0.1406  0.0021 -0.0025
  201loPI   C1A 3207   8.151  16.665   9.017 -0.0745 -0.3219 -0.0587
  201loPI   C2A 3208   8.190  16.842   8.714 -0.0414  0.1820 -0.3495
  201loPI   C3A 3209   8.342  17.023   8.470 -0.1094 -0.2273  0.2607
  201loPI   C4A 3210   8.793  17.196   8.316 -0.0198 -0.0454 -0.1466
  201loPI   C5A 3211   8.969  17.178   7.947 -0.1514  0.0506 -0.0075
  201loPI   C6A 3212   9.148  17.009   7.655  0.4918  0.1174  0.0641
  201loPI   C1B 3213   8.485  16.210   8.824  0.0519 -0.0324  0.3168
  201loPI   C2B 3214   8.447  16.024   8.489  0.1639 -0.2078 -0.2611
  201loPI   C3B 3215   8.519  15.829   8.127 -0.2369 -0.1006  0.1815
  201loPI   C4B 3216   8.389  15.695   7.725  0.1653  0.0044  0.0972
  202loPI    C1 3217   5.847  18.682  10.106 -0.1427  0.0213  0.1381
  202loPI    C2 3218   6.139  18.724  10.376 -0.1368  0.0409  0.1286
  202loPI    C3 3219   5.872  18.429  10.414  0.2051 -0.3173 -0.1567
  202loPI   PO4 3220   5.903  18.673   9.873  0.0033 -0.0729  0.1202
  202loPI   GL1 3221   5.996  18.356   9.534 -0.1969 -0.2048 -0.4942
  202loPI   GL2 3222   5.754  18.452   9.332 -0.0273 -0.2209 -0.3432
  202loPI   C1A 3223   6.290  18.644   9.247  0.0106 -0.1056 -0.0029
  202loPI   C2A 3224   6.463  18.910   8.984  0.1981  0.4512 -0.1547
  202loPI   C3A 3225   6.519  19.047   8.529 -0.2563 -0.0211 -0.0228
  202loPI   C4A 3226   6.550  19.366   8.373  0.0176 -0.3130 -0.1249
  202loPI   C5A 3227   6.394  19.671   8.089  0.1458  0.1229 -0.1371
  202loPI   C6A 3228   6.121  19.708   7.733  0.1505  0.0513  0.0179
  202loPI   C1B 3229   5.868  18.579   8.897 -0.2559  0.2467  0.0379
  202loPI   C2B 3230   6.064  18.707   8.462  0.0323  0.1108 -0.1415
  202loPI   C3B 3231   6.263  18.835   8.021  0.0729  0.3304 -0.0589
  202loPI   C4B 3232   6.291  19.252   7.743 -0.0535 -0.0245  0.1450
  203loPI    C1 3233   3.510  14.071  10.091 -0.1045  0.0125 -0.0426
  203loPI    C2 3234   3.225  14.144  10.362 -0.2325  0.1370 -0.2086
  203loPI    C3 3235   3.427  13.799  10.371 -0.1825  0.1718  0.0906
  203loPI   PO4 3236   3.349  14.151   9.844 -0.0514  0.2941 -0.0565
  203loPI   GL1 3237   3.598  14.352   9.538  0.0468 -0.5886  0.0454
  203loPI   GL2 3238   3.460  14.075   9.312 -0.1424 -0.1639  0.1883
  203loPI   C1A 3239   3.620  14.426   9.001 -0.3057  0.1158  0.0860
  203loPI   C2A 3240   3.676  14.570   8.596  0.1299  0.2419  0.2699
  203loPI   C3A 3241   3.686  14.412   8.193  0.0691  0.0404 -0.0859
  203loPI   C4A 3242   3.580  14.091   7.987  0.1501  0.0278 -0.2080
  203loPI   C5A 3243   3.372  13.856   7.657 -0.1748 -0.1071 -0.1722
  203loPI   C6A 3244   3.280  13.447   7.509 -0.0262  0.1287 -0.3180
  203loPI   C1B 3245   3.564  13.926   8.871  0.3375  0.0127 -0.3565
  203loPI   C2B 3246   3.569  13.554   8.621 -0.0078  0.0163  0.0160
  203loPI   C3B 3247   3.762  13.198   8.729  0.0557  0.1901  0.1878
  203loPI   C4B 3248   3.585  12.959   9.105  0.2367  0.3084 -0.1528
  204loPI    C1 3249  12.930  12.326  10.410  0.1091 -0.0482 -0.2136
  204loPI    C2 3250  12.577  12.407  10.580  0.2430  0.1580 -0.0290
  204loPI    C3 3251  12.659  12.035  10.457 -0.0061  0.0913  0.0010
  204loPI   PO4 3252  12.955  12.576  10.288  0.0098 -0.0457 -0.0655
  204loPI   GL1 3253  12.793  12.684   9.889  0.2838  0.0378  0.1556
  204loPI   GL2 3254  12.430  12.878   9.844  0.0549  0.2628 -0.2744
  204loPI   C1A 3255  13.010  12.393   9.601 -0.2603  0.1402 -0.2099
  204loPI   C2A 3256  13.121  12.298   9.201 -0.0320  0.2363  0.0636
  204loPI   C3A 3257  13.219  12.406   8.812  0.4259 -0.0875  0.0523
  204loPI   C4A 3258  13.492  12.274   8.378  0.1514 -0.0124  0.1791
  204loPI   C5A 3259  13.748  12.116   7.980  0.1464 -0.0689  0.2614
  204loPI   C6A 3260  13.776  11.993   7.552 -0.3337  0.1402 -0.1707
  204loPI   C1B 3261  12.434  12.732   9.448 -0.0581  0.0333  0.0943
  204loPI   C2B 3262  12.694  12.608   9.109  0.1251 -0.0089  0.0773
  204loPI   C3B 3263  12.704  12.703   8.643  0.1070  0.3108 -0.0973
  204loPI   C4B 3264  12.961  12.618   8.294 -0.1649 -0.2593  0.1934
  205loPI    C1 3265  12.865   5.529  10.115  0.1236  0.1242 -0.3565
  205loPI    C2 3266  12.754   5.878  10.277 -0.0624 -0.0582 -0.0824
  205loPI    C3 3267  13.135   5.760  10.299 -0.0382  0.0354  0.0007
  205loPI   PO4 3268  12.753   5.484   9.815  0.0451  0.1667  0.0111
  205loPI   GL1 3269  13.040   5.405   9.535 -0.3796  0.1336 -0.2616
  205loPI   GL2 3270  12.862   5.619   9.366 -0.0456 -0.0619  0.1126
  205loPI   C1A 3271  12.822   5.173   9.202 -0.0645  0.0952 -0.3215
  205loPI   C2A 3272  12.494   5.152   8.919 -0.1936  0.4452  0.1878
  205loPI   C3A 3273  12.351   4.681   8.700  0.0643  0.0319  0.1100
  205loPI   C4A 3274  12.011   4.599   8.519  0.0896  0.1669 -0.0034
  205loPI   C5A 3275  11.922   4.391   8.115  0.1939 -0.1772 -0.0415
  205loPI   C6A 3276  12.058   4.243   7.741 -0.3037 -0.1677  0.0473
  205loPI   C1B 3277  12.564   5.596   8.986 -0.0706 -0.1622 -0.0577
  205loPI   C2B 3278  12.251   5.529   8.667  0.4066 -0.3298 -0.3819
  205loPI   C3B 3279  12.418   5.551   8.300  0.1920 -0.2472 -0.0130
  205loPI   C4B 3280  12.289   5.534   7.929  0.2193 -0.1783 -0.2634
  206loPI    C1 3281   3.291   1.065   9.777  0.3216  0.1890 -0.0765
  206loPI    C2 3282   2.980   1.302   9.861 -0.0354 -0.2842 -0.0208
  206loPI    C3 3283   3.237   1.200  10.150  0.0666 -0.0461 -0.0250
  206loPI   PO4 3284   3.350   1.212   9.515 -0.2429  0.1545  0.2312
  206loPI   GL1 3285   3.379   1.456   9.092 -0.1563 -0.1022 -0.3644
  206loPI   GL2 3286   3.068   1.588   8.916  0.0661  0.0880  0.3196
  206loPI   C1A 3287   3.294   1.161   8.738  0.0200 -0.0298  0.1099
  206loPI   C2A 3288   3.446   1.045   8.309 -0.1899 -0.2624  0.1068
  206loPI   C3A 3289   3.723   1.082   7.979 -0.0839 -0.2834  0.0186
  206loPI   C4A 3290   4.097   1.241   7.725  0.3412  0.2640  0.3605
  206loPI   C5A 3291   4.511   1.149   7.554  0.1194 -0.0243  0.1101
  206loPI   C6A 3292   4.798   1.240   7.315 -0.0682 -0.0295 -0.0166
  206loPI   C1B 3293   3.068   1.530   8.428  0.2009  0.1907 -0.1336
  206loPI   C2B 3294   3.310   1.528   8.122  0.1833 -0.1082 -0.0142
  206loPI   C3B 3295   3.253   1.171   7.865  0.1869  0.0579 -0.0120
  206loPI   C4B 3296   3.352   1.029   7.474 -0.3441 -0.3554 -0.3250
  207loPI    C1 3297   2.293   3.496   9.622 -0.2199  0.0322  0.1002
  207loPI    C2 3298   1.973   3.360   9.819 -0.2663 -0.0631 -0.0396
  207loPI    C3 3299   2.328   3.380  10.003 -0.2889 -0.2400  0.0257
  207loPI   PO4 3300   2.205   3.767   9.505  0.0365 -0.2560 -0.2712
  207loPI   GL1 3301   1.860   3.840   9.157  0.0940  0.0933  0.2380
  207loPI   GL2 3302   1.950   3.531   9.134  0.1023 -0.2215 -0.3193
  207loPI   C1A 3303   1.640   3.861   8.755  0.0612  0.1327  0.2402
  207loPI   C2A 3304   1.800   4.098   8.319  0.0702 -0.2067 -0.0969
  207loPI   C3A 3305   1.688   4.303   7.924 -0.1061 -0.0324  0.0603
  207loPI   C4A 3306   1.440   4.453   7.629  0.0294 -0.0626  0.5578
  207loPI   C5A 3307   1.113   4.797   7.615  0.1800  0.0359  0.0476
  207loPI   C6A 3308   1.252   5.073   7.419  0.2489 -0.5433  0.0917
  207loPI   C1B 3309   1.786   3.440   8.553 -0.1017 -0.0597 -0.0942
  207loPI   C2B 3310   1.540   3.354   8.243  0.0244 -0.0551  0.1262
  207loPI   C3B 3311   1.303   3.140   8.013 -0.2070  0.3899 -0.3462
  207loPI   C4B 3312   1.252   2.758   8.039 -0.1991  0.0163  0.0094
  208loPI    C1 3313  15.106  18.073  11.266 -0.0341 -0.0425 -0.2042
  208loPI    C2 3314  15.303  17.805  11.488  0.0204 -0.0875 -0.3067
  208loPI    C3 3315  14.907  17.842  11.525  0.0750  0.1693  0.0738
  208loPI   PO4 3316  15.210  17.981  10.982  0.1020 -0.0453 -0.0746
  208loPI   GL1 3317  15.464  17.977  10.492 -0.1242 -0.1354 -0.0866
  208loPI   GL2 3318  15.681  17.702  10.291  0.4274  0.3644  0.2466
  208loPI   C1A 3319  15.408  18.094  10.012  0.1109  0.0899  0.3374
  208loPI   C2A 3320  15.257  17.904   9.516 -0.1579 -0.0642 -0.0356
  208loPI   C3A 3321  15.096  17.970   9.145 -0.0391  0.0723  0.0892
  208loPI   C4A 3322  14.978  17.937   8.848  0.0608 -0.3184 -0.2719
  208loPI   C5A 3323  15.042  18.194   8.550  0.3620  0.1358 -0.1662
  208loPI   C6A 3324  15.082  18.140   8.186 -0.1431 -0.0845 -0.0924
  208loPI   C1B 3325  15.754  17.703   9.785 -0.0884 -0.1375 -0.0301
  208loPI   C2B 3326  15.775  17.774   9.291  0.3731 -0.0638 -0.0273
  208loPI   C3B 3327  15.625  17.923   8.916 -0.0830 -0.4571 -0.0851
  208loPI   C4B 3328  15.378  17.863   8.529  0.3126 -0.0543 -0.0771
  209loPI    C1 3329   2.005   1.725  10.020 -0.2744  0.0494  0.2651
  209loPI    C2 3330   2.336   1.900  10.159 -0.2256  0.1478  0.0295
  209loPI    C3 3331   2.225   1.542  10.299  0.0205  0.0808  0.0573
  209loPI   PO4 3332   2.009   1.930   9.698 -0.3131  0.0344  0.0638
  209loPI   GL1 3333   2.040   1.849   9.298 -0.1397 -0.0209  0.3806
  209loPI   GL2 3334   1.908   1.617   9.089 -0.2381 -0.0349 -0.0588
  209loPI   C1A 3335   1.946   2.129   8.928  0.0219 -0.0853  0.2441
  209loPI   C2A 3336   1.924   2.349   8.588  0.3018  0.0733  0.2075
  209loPI   C3A 3337   2.029   2.468   8.176  0.1134 -0.1725 -0.0808
  209loPI   C4A 3338   2.187   2.526   7.683 -0.3520 -0.2792  0.2406
  209loPI   C5A 3339   2.109   2.924   7.449  0.1163 -0.1485  0.1294
  209loPI   C6A 3340   2.115   3.394   7.420  0.0639  0.0435 -0.2411
  209loPI   C1B 3341   1.746   1.724   8.737 -0.1687  0.0811  0.1235
  209loPI   C2B 3342   1.572   2.019   8.445  0.1772 -0.0803 -0.0599
  209loPI   C3B 3343   1.224   2.276   8.128 -0.0514  0.0946  0.1345
  209loPI   C4B 3344   0.854   2.384   7.863  0.1222 -0.0716 -0.0214
  210loPI    C1 3345   2.841  17.098   9.874  0.0066 -0.1642 -0.2755
  210loPI    C2 3346   3.142  17.245   9.655 -0.0052  0.1481 -0.0888
  210loPI    C3 3347   3.066  17.397  10.017 -0.2740 -0.0523 -0.0580
  210loPI   PO4 3348   2.687  17.075   9.692  0.1181  0.1387 -0.0468
  210loPI   GL1 3349   2.668  16.995   9.303  0.0676 -0.4595  0.2764
  210loPI   GL2 3350   2.921  17.050   9.216 -0.1325 -0.0982 -0.1356
  210loPI   C1A 3351   2.489  17.034   8.946 -0.4463  0.3008  0.2491
  210loPI   C2A 3352   2.615  17.039   8.513 -0.2034  0.0041 -0.0729
  210loPI   C3A 3353   2.828  17.197   8.133  0.0377  0.2630  0.0406
  210loPI   C4A 3354   2.989  17.151   7.727 -0.1645 -0.0502  0.0688
  210loPI   C5A 3355   3.022  17.008   7.363  0.0844 -0.1894  0.3321
  210loPI   C6A 3356   3.068  16.660   7.091 -0.3581 -0.2233 -0.3260
  210loPI   C1B 3357   3.008  17.182   8.761  0.4424 -0.1976 -0.1786
  210loPI   C2B 3358   2.883  17.457   8.530 -0.1622  0.1621 -0.3773
  210loPI   C3B 3359   2.796  17.679   8.171 -0.2845  0.3067 -0.1121
  210loPI   C4B 3360   2.623  17.739   7.833 -0.1908 -0.3295 -0.2602
  211loPI    C1 3361   4.438   9.682   9.978 -0.0886  0.2241 -0.2400
  211loPI    C2 3362   4.120   9.886  10.108  0.0843  0.2180  0.2097
  211loPI    C3 3363   4.210   9.532  10.270  0.1603  0.0864 -0.1134
  211loPI   PO4 3364   4.462   9.828   9.779 -0.0843  0.0792 -0.0566
  211loPI   GL1 3365   4.188   9.917   9.419  0.1544 -0.2056  0.0793
  211loPI   GL2 3366   4.294   9.708   9.312  0.0053 -0.1448  0.1340
  211loPI   C1A 3367   4.059  10.047   9.042 -0.2810 -0.0862  0.0255
  211loPI   C2A 3368   3.912  10.085   8.561  0.1888 -0.0515  0.1983
  211loPI   C3A 3369   3.867   9.865   8.207  0.3294 -0.3391 -0.0518
  211loPI   C4A 3370   4.177   9.823   7.869  0.2296 -0.0099  0.3731
  211loPI   C5A 3371   4.413   9.962   7.475  0.0881 -0.0532  0.2126
  211loPI   C6A 3372   4.833   9.865   7.230 -0.0306 -0.2063 -0.0193
  211loPI   C1B 3373   4.263   9.615   8.871 -0.0215  0.2629 -0.3806
  211loPI   C2B 3374   4.101   9.483   8.584 -0.2460 -0.0536  0.0183
  211loPI   C3B 3375   4.044   9.406   8.208  0.2451  0.1496  0.1476
  211loPI   C4B 3376   3.729   9.536   7.883  0.0817 -0.0465  0.1392
  212loPI    C1 3377  13.426   6.371   9.984 -0.1410  0.0433 -0.0614
  212loPI    C2 3378  13.385   6.239  10.360  0.3563  0.0708  0.0096
  212loPI    C3 3379  13.316   6.623  10.274 -0.1870 -0.0258 -0.0184
  212loPI   PO4 3380  13.629   6.218   9.911 -0.2904  0.1941 -0.3199
  212loPI   GL1 3381  13.691   6.068   9.627  0.0416  0.2492 -0.0188
  212loPI   GL2 3382  13.347   6.165   9.487  0.1223 -0.0386  0.0702
  212loPI   C1A 3383  13.852   6.010   9.163  0.1350  0.0986 -0.4160
  212loPI   C2A 3384  13.703   6.007   8.701  0.1470 -0.3494 -0.2498
  212loPI   C3A 3385  13.483   5.771   8.445 -0.1693  0.3682 -0.2702
  212loPI   C4A 3386  13.363   5.564   8.125 -0.3271 -0.5149  0.0374
  212loPI   C5A 3387  13.537   5.361   7.710  0.0901  0.4444 -0.1485
  212loPI   C6A 3388  13.651   5.531   7.316  0.1653  0.2185 -0.2742
  212loPI   C1B 3389  13.358   6.031   9.100  0.1006 -0.4102  0.1511
  212loPI   C2B 3390  13.185   6.144   8.657  0.0991 -0.3067 -0.3612
  212loPI   C3B 3391  13.007   5.789   8.370 -0.0503  0.3995  0.0118
  212loPI   C4B 3392  12.870   5.432   8.045 -0.1286 -0.2090 -0.0539
  213loPI    C1 3393  12.754  18.003  10.061  0.1915 -0.1611 -0.2520
  213loPI    C2 3394  12.406  17.888   9.900 -0.0184 -0.0673  0.1231
  213loPI    C3 3395  12.479  18.276   9.966  0.1677 -0.0845  0.0265
  213loPI   PO4 3396  12.899  17.854  10.012 -0.0504 -0.0206 -0.3189
  213loPI   GL1 3397  12.970  17.655   9.651  0.0245 -0.1796  0.0541
  213loPI   GL2 3398  12.665  17.736   9.552 -0.1320  0.1679  0.0897
  213loPI   C1A 3399  13.051  17.185   9.500  0.2818  0.1618 -0.2106
  213loPI   C2A 3400  12.992  17.057   9.147 -0.0044 -0.2027 -0.1563
  213loPI   C3A 3401  12.987  17.126   8.730 -0.1742  0.3522  0.0742
  213loPI   C4A 3402  13.011  16.991   8.203 -0.0687 -0.4739 -0.0870
  213loPI   C5A 3403  12.935  17.097   7.840 -0.2370 -0.0507  0.2680
  213loPI   C6A 3404  13.288  16.970   7.416  0.0194  0.0888 -0.0634
  213loPI   C1B 3405  12.786  17.829   9.090  0.0461 -0.1118 -0.0863
  213loPI   C2B 3406  12.573  18.055   8.648 -0.2366  0.3201  0.1314
  213loPI   C3B 3407  12.173  18.207   8.375  0.0165  0.1298 -0.1410
  213loPI   C4B 3408  11.917  18.227   7.997 -0.3452  0.0840  0.1091
  214loPI    C1 3409  10.365  16.971   9.959  0.0048  0.1708  0.2606
  214loPI    C2 3410  10.570  16.722   9.722  0.0307  0.3113  0.1338
  214loPI    C3 3411  10.253  16.588   9.927  0.1760  0.1215  0.2386
  214loPI   PO4 3412  10.234  17.225   9.855 -0.1440 -0.0128 -0.1005
  214loPI   GL1 3413  10.410  17.397   9.565  0.2301 -0.0191  0.0497
  214loPI   GL2 3414  10.071  17.284   9.421 -0.5998  0.3023  0.1660
  214loPI   C1A 3415  10.589  17.424   9.211 -0.4340  0.3004  0.0548
  214loPI   C2A 3416  10.509  17.324   8.892 -0.2484  0.2247  0.1684
  214loPI   C3A 3417  10.335  17.067   8.649  0.1764  0.1290  0.0118
  214loPI   C4A 3418  10.117  17.103   8.227  0.0690 -0.2251  0.2012
  214loPI   C5A 3419   9.950  17.165   7.929  0.5925  0.1036 -0.0611
  214loPI   C6A 3420   9.970  17.199   7.550 -0.0394  0.1083 -0.2855
  214loPI   C1B 3421  10.029  17.109   9.063 -0.2362  0.1506 -0.0207
  214loPI   C2B 3422   9.691  16.944   8.790  0.0955 -0.0105 -0.1900
  214loPI   C3B 3423   9.669  16.926   8.378 -0.3670 -0.0492 -0.1275
  214loPI   C4B 3424   9.454  17.196   8.115 -0.1148  0.1398 -0.2346
  215loPI    C1 3425  14.393  11.511  10.686  0.2188 -0.1848  0.0691
  215loPI    C2 3426  14.780  11.543  10.784  0.2263 -0.2517  0.0619
  215loPI    C3 3427  14.539  11.306  10.997  0.2205 -0.3204 -0.0201
  215loPI   PO4 3428  14.286  11.404  10.390 -0.0154  0.0727  0.2144
  215loPI   GL1 3429  14.435  11.252   9.985  0.2430  0.0679  0.3439
  215loPI   GL2 3430  14.599  10.948  10.081 -0.2400  0.0304 -0.0934
  215loPI   C1A 3431  14.107  10.940   9.810 -0.2537 -0.0885 -0.1689
  215loPI   C2A 3432  13.657  10.716   9.705  0.1102 -0.2498  0.3214
  215loPI   C3A 3433  13.363  10.806   9.444 -0.0610  0.0967 -0.0749
  215loPI   C4A 3434  13.362  10.991   8.999  0.2886  0.0347  0.2201
  215loPI   C5A 3435  13.276  10.962   8.639  0.3591  0.2383  0.1321
  215loPI   C6A 3436  13.116  10.856   8.195  0.0484 -0.0204  0.0496
  215loPI   C1B 3437  14.639  10.757   9.707 -0.1095  0.0479 -0.0257
  215loPI   C2B 3438  14.429  10.957   9.341  0.0419 -0.0494  0.2189
  215loPI   C3B 3439  14.246  10.856   8.960 -0.0965  0.3093 -0.0595
  215loPI   C4B 3440  14.077  10.750   8.563 -0.0832 -0.1416  0.2918
  216loPI    C1 3441   1.867   4.460   9.764 -0.0711 -0.1392 -0.4202
  216loPI    C2 3442   2.172   4.568   9.529  0.0537 -0.1860 -0.2816
  216loPI    C3 3443   2.191   4.634   9.923 -0.1307 -0.1575 -0.2770
  216loPI   PO4 3444   1.816   4.222   9.637 -0.1856 -0.0544  0.0386
  216loPI   GL1 3445   1.560   4.229   9.294  0.0069  0.1570 -0.1037
  216loPI   GL2 3446   1.848   4.480   9.149  0.2392  0.1777 -0.3818
  216loPI   C1A 3447   1.459   4.258   8.902  0.1631 -0.2067 -0.0957
  216loPI   C2A 3448   1.348   4.397   8.478  0.0533  0.1072 -0.0494
  216loPI   C3A 3449   1.107   4.373   8.116  0.0734  0.3502  0.1303
  216loPI   C4A 3450   0.738   4.528   7.836 -0.1252 -0.0327 -0.0949
  216loPI   C5A 3451   0.379   4.779   7.659  0.1054  0.2234  0.0808
  216loPI   C6A 3452  -0.037   4.759   7.865 -0.0508  0.0549  0.3277
  216loPI   C1B 3453   1.818   4.456   8.674 -0.3147 -0.3020  0.1833
  216loPI   C2B 3454   1.731   4.648   8.275  0.0676 -0.2570  0.1518
  216loPI   C3B 3455   2.014   4.923   7.994 -0.0776 -0.2660 -0.0771
  216loPI   C4B 3456   2.321   4.823   7.641 -0.0305 -0.2261  0.1558
  217loPI    C1 3457   1.025   0.577  10.075  0.0881  0.0778  0.1062
  217loPI    C2 3458   0.848   0.487  10.422 -0.1698  0.0915 -0.0195
  217loPI    C3 3459   1.149   0.751  10.414 -0.1249  0.0493  0.2005
  217loPI   PO4 3460   0.918   0.699   9.892 -0.4169 -0.4803 -0.0673
  217loPI   GL1 3461   0.906   0.587   9.455 -0.2211 -0.1622  0.2397
  217loPI   GL2 3462   1.106   0.832   9.404  0.2088 -0.1430 -0.0517
  217loPI   C1A 3463   0.783   0.654   9.057 -0.1093 -0.0207  0.4730
  217loPI   C2A 3464   0.719   0.538   8.629  0.0884 -0.3915 -0.0772
  217loPI   C3A 3465   0.585   0.735   8.251  0.2540  0.1637  0.2050
  217loPI   C4A 3466   0.288   0.360   8.246  0.0959 -0.0116  0.0738
  217loPI   C5A 3467   0.370  -0.002   7.992 -0.0485 -0.2235  0.2006
  217loPI   C6A 3468   0.492   0.123   7.624  0.1507  0.1233 -0.1150
  217loPI   C1B 3469   0.928   1.111   9.048  0.1070  0.0776 -0.0144
  217loPI   C2B 3470   0.579   1.005   8.717  0.2475  0.0484  0.1373
  217loPI   C3B 3471   0.284   1.110   8.360 -0.1618  0.2779  0.2734
  217loPI   C4B 3472   0.213   1.348   8.116 -0.0344 -0.0556  0.0708
  218loPI    C1 3473   0.475   3.911  10.149 -0.2691  0.1243 -0.2453
  218loPI    C2 3474   0.680   4.252  10.190 -0.2534  0.0896 -0.0234
  218loPI    C3 3475   0.417   4.142  10.471 -0.5227  0.0960 -0.2685
  218loPI   PO4 3476   0.476   3.830   9.886  0.2195 -0.1797  0.2913
  218loPI   GL1 3477   0.422   3.512   9.656  0.4596 -0.0708 -0.2923
  218loPI   GL2 3478   0.562   3.232   9.682 -0.1821 -0.1858 -0.1757
  218loPI   C1A 3479   0.494   3.575   9.162 -0.1280 -0.3118  0.1231
  218loPI   C2A 3480   0.885   3.433   8.991  0.0180  0.2123  0.1677
  218loPI   C3A 3481   1.137   3.371   8.612  0.1763 -0.2439  0.3987
  218loPI   C4A 3482   0.945   3.542   8.105 -0.1611  0.1408  0.2223
  218loPI   C5A 3483   1.084   3.514   7.761  0.1276  0.3367  0.1447
  218loPI   C6A 3484   1.199   3.258   7.457 -0.5121  0.3003  0.0430
  218loPI   C1B 3485   0.412   3.074   9.323  0.0495 -0.3360 -0.0961
  218loPI   C2B 3486   0.552   2.988   8.986  0.0038  0.1466 -0.1247
  218loPI   C3B 3487   0.795   3.020   8.722  0.0083 -0.2428  0.0601
  218loPI   C4B 3488   0.892   3.062   8.276  0.3094 -0.0946  0.0433
  219loPI    C1 3489   1.440  13.638  10.291  0.2849  0.1745  0.3202
  219loPI    C2 3490   1.711  13.435  10.078  0.0247 -0.0273  0.1752
  219loPI    C3 3491   1.728  13.433  10.477  0.2690  0.0104  0.1666
  219loPI   PO4 3492   1.186  13.566  10.074 -0.1070  0.1071  0.2396
  219loPI   GL1 3493   1.272  13.634   9.600 -0.0473  0.0257  0.0999
  219loPI   GL2 3494   1.464  13.476   9.334  0.1558  0.3949 -0.2122
  219loPI   C1A 3495   0.919  13.448   9.478  0.0413  0.0782  0.1020
  219loPI   C2A 3496   0.697  13.503   9.137 -0.2417  0.3693 -0.0376
  219loPI   C3A 3497   0.605  13.529   8.677 -0.0034 -0.1688 -0.1917
  219loPI   C4A 3498   0.772  13.219   8.473 -0.1277 -0.1593  0.4494
  219loPI   C5A 3499   1.026  13.292   8.096 -0.1901  0.0957 -0.1394
  219loPI   C6A 3500   1.122  13.269   7.675  0.0265 -0.1573 -0.1366
  219loPI   C1B 3501   1.548  13.655   9.012  0.1970  0.2321  0.1806
  219loPI   C2B 3502   1.527  13.670   8.600  0.1330  0.1199  0.2317
  219loPI   C3B 3503   1.403  13.723   8.229  0.1468 -0.0325  0.1502
  219loPI   C4B 3504   1.390  13.651   7.820  0.0917  0.0784  0.2255
  220loPI    C1 3505  13.718  15.951   9.977  0.0961 -0.0475 -0.0608
  220loPI    C2 3506  13.870  16.132   9.654  0.0703  0.0675 -0.0089
  220loPI    C3 3507  13.777  16.347   9.979 -0.1077 -0.0163 -0.0037
  220loPI   PO4 3508  13.506  15.764   9.766 -0.1192 -0.0460 -0.0122
  220loPI   GL1 3509  13.505  15.648   9.342 -0.1787 -0.0848 -0.1803
  220loPI   GL2 3510  13.811  15.824   9.269 -0.1580 -0.1102 -0.3335
  220loPI   C1A 3511  13.291  15.643   8.921 -0.1525 -0.0780 -0.1664
  220loPI   C2A 3512  13.182  15.632   8.614 -0.2504 -0.2518 -0.1930
  220loPI   C3A 3513  13.291  15.649   8.196 -0.1934  0.2616  0.0022
  220loPI   C4A 3514  13.537  16.024   7.926  0.1875  0.3125  0.1632
  220loPI   C5A 3515  13.410  16.315   7.717 -0.0224  0.0142 -0.2636
  220loPI   C6A 3516  13.310  16.487   7.317 -0.0859  0.0223 -0.1518
  220loPI   C1B 3517  13.741  15.587   8.864 -0.1850  0.1196  0.1406
  220loPI   C2B 3518  13.947  15.597   8.408  0.3616 -0.2435 -0.0857
  220loPI   C3B 3519  13.887  15.432   8.019  0.0720 -0.0137  0.1883
  220loPI   C4B 3520  13.917  15.055   7.753 -0.2079 -0.3303 -0.1202
  221loPI    C1 3521  13.435  13.367  10.624 -0.1035 -0.0402 -0.0642
  221loPI    C2 3522  13.718  13.335  10.905  0.0241 -0.0315 -0.1902
  221loPI    C3 3523  13.415  13.592  10.954 -0.0343 -0.1351  0.0055
  221loPI   PO4 3524  13.525  13.128  10.441  0.4174 -0.0600 -0.1376
  221loPI   GL1 3525  13.733  13.019  10.096  0.0653 -0.0368  0.3438
  221loPI   GL2 3526  13.344  12.823  10.010 -0.1912  0.1834  0.1637
  221loPI   C1A 3527  14.049  13.104   9.869 -0.0704 -0.0401 -0.1310
  221loPI   C2A 3528  14.419  13.061   9.605  0.2969 -0.1434 -0.2051
  221loPI   C3A 3529  14.599  13.169   9.344 -0.4402 -0.1496 -0.2291
  221loPI   C4A 3530  14.726  13.371   8.973  0.1395  0.3640 -0.3845
  221loPI   C5A 3531  14.785  13.385   8.523 -0.1856  0.2731 -0.2790
  221loPI   C6A 3532  14.475  13.138   8.273 -0.0852 -0.1443 -0.1511
  221loPI   C1B 3533  13.253  12.910   9.603  0.0780 -0.1158 -0.2165
  221loPI   C2B 3534  13.121  12.802   9.208  0.1725  0.0382 -0.1081
  221loPI   C3B 3535  13.064  13.018   8.878  0.3146 -0.1725  0.2015
  221loPI   C4B 3536  13.051  13.090   8.420 -0.1295  0.0334  0.6915
  222loPI    C1 3537   7.055  16.414   9.885  0.1621 -0.1151  0.2680
  222loPI    C2 3538   6.680  16.280   9.848  0.1302  0.0149  0.1047
  222loPI    C3 3539   6.872  16.243  10.197  0.0144 -0.1744  0.1505
  222loPI   PO4 3540   7.164  16.321   9.617  0.2904  0.0026  0.3063
  222loPI   GL1 3541   7.021  16.445   9.204 -0.0583 -0.0512  0.0654
  222loPI   GL2 3542   6.980  16.176   9.026  0.2786 -0.0399  0.3418
  222loPI   C1A 3543   7.286  16.618   8.886 -0.0676  0.3933 -0.1082
  222loPI   C2A 3544   7.371  16.616   8.549  0.1622  0.0985  0.0012
  222loPI   C3A 3545   7.545  16.451   8.277  0.0673 -0.2205  0.1978
  222loPI   C4A 3546   7.643  16.250   7.926  0.2303  0.0931  0.0591
  222loPI   C5A 3547   7.573  16.315   7.577 -0.3315  0.0418  0.3818
  222loPI   C6A 3548   7.563  16.330   7.114 -0.2109 -0.0312  0.1063
  222loPI   C1B 3549   7.133  16.211   8.598 -0.0816 -0.0200  0.0313
  222loPI   C2B 3550   7.092  16.280   8.210 -0.0014 -0.1693  0.0343
  222loPI   C3B 3551   7.066  16.423   7.848 -0.2587 -0.0082 -0.0255
  222loPI   C4B 3552   6.767  16.430   7.450 -0.1406 -0.1343 -0.0830
  223loPI    C1 3553   3.695   4.076   9.706 -0.1130 -0.1499 -0.0438
  223loPI    C2 3554   3.818   4.150  10.079 -0.2145 -0.1102 -0.0180
  223loPI    C3 3555   3.658   3.795   9.988  0.3419 -0.3360 -0.1595
  223loPI   PO4 3556   3.560   4.295   9.632  0.0577 -0.0336 -0.1293
  223loPI   GL1 3557   3.366   4.337   9.254  0.1096 -0.1485 -0.2653
  223loPI   GL2 3558   3.133   4.187   9.081  0.0786 -0.0247  0.1137
  223loPI   C1A 3559   3.469   4.518   8.888 -0.0615 -0.4793 -0.0008
  223loPI   C2A 3560   3.532   4.264   8.479 -0.2259  0.0117 -0.0590
  223loPI   C3A 3561   3.699   4.230   8.035 -0.2055  0.1444 -0.3177
  223loPI   C4A 3562   3.835   4.524   7.742  0.2079 -0.3177  0.4293
  223loPI   C5A 3563   4.261   4.630   7.698  0.0830  0.1495 -0.3958
  223loPI   C6A 3564   4.392   4.985   7.454  0.1251 -0.0371  0.3443
  223loPI   C1B 3565   3.069   4.141   8.551 -0.2013  0.1650  0.1089
  223loPI   C2B 3566   2.997   3.930   8.168  0.2168  0.0131 -0.2316
  223loPI   C3B 3567   2.768   3.827   7.882  0.0884 -0.1944 -0.0813
  223loPI   C4B 3568   2.424   3.618   7.713 -0.1417 -0.1267 -0.2422
  224loPI    C1 3569   1.845  18.543  10.209  0.1289  0.1508  0.2573
  224loPI    C2 3570   1.627  18.720  10.495 -0.1231  0.1352  0.0783
  224loPI    C3 3571   2.026  18.741  10.505 -0.1355  0.2793  0.3369
  224loPI   PO4 3572   1.864  18.590   9.981  0.0822  0.0008 -0.1749
  224loPI   GL1 3573   1.672  18.516   9.619  0.1771 -0.0315 -0.1464
  224loPI   GL2 3574   1.643  18.204   9.466 -0.1737 -0.1567 -0.2705
  224loPI   C1A 3575   1.648  18.781   9.323 -0.0815 -0.0080 -0.0053
  224loPI   C2A 3576   1.370  18.836   8.964  0.2318  0.0327 -0.1468
  224loPI   C3A 3577   1.488  18.954   8.603 -0.2184 -0.0929 -0.1577
  224loPI   C4A 3578   1.930  18.886   8.492  0.2559 -0.0774  0.2404
  224loPI   C5A 3579   1.945  18.730   8.038  0.0567  0.2074 -0.0164
  224loPI   C6A 3580   1.835  18.809   7.590  0.1326 -0.0019  0.6081
  224loPI   C1B 3581   1.469  18.049   9.093  0.1475  0.2843  0.1913
  224loPI   C2B 3582   1.415  17.752   8.821 -0.0503  0.2191  0.2192
  224loPI   C3B 3583   1.269  17.614   8.482 -0.0362  0.0986 -0.1637
  224loPI   C4B 3584   1.257  17.457   7.981 -0.1231  0.2231 -0.2359
  225loPI    C1 3585  11.674   3.035  10.164 -0.2808  0.0471  0.1063
  225loPI    C2 3586  11.618   3.242  10.501 -0.3950  0.0504  0.0858
  225loPI    C3 3587  11.685   2.848  10.517 -0.3315  0.0623  0.1159
  225loPI   PO4 3588  11.583   3.187   9.928  0.2438  0.2589 -0.0992
  225loPI   GL1 3589  11.693   3.552   9.589 -0.2058  0.2251 -0.0189
  225loPI   GL2 3590  12.085   3.505   9.509 -0.1025  0.0526  0.1862
  225loPI   C1A 3591  11.564   3.552   9.219  0.0423 -0.0994 -0.1350
  225loPI   C2A 3592  11.283   3.193   8.958 -0.1839 -0.1355  0.3469
  225loPI   C3A 3593  11.006   3.223   8.686  0.1405  0.0254 -0.0974
  225loPI   C4A 3594  10.793   3.048   8.364 -0.2849 -0.0953  0.1038
  225loPI   C5A 3595  10.845   2.810   7.876  0.4216  0.0857  0.3553
  225loPI   C6A 3596  10.578   2.600   7.590 -0.2676 -0.0541  0.0943
  225loPI   C1B 3597  12.169   3.494   9.141 -0.2166 -0.0565  0.0827
  225loPI   C2B 3598  11.802   3.380   8.825  0.0223  0.0146 -0.1744
  225loPI   C3B 3599  11.485   3.167   8.496  0.2073 -0.3400  0.3836
  225loPI   C4B 3600  11.336   3.054   8.050 -0.0030  0.1449 -0.0610
  226loPI    C1 3601   4.775   6.615   9.621  0.0084  0.0410  0.0518
  226loPI    C2 3602   4.877   6.295   9.405  0.0441  0.0099  0.1144
  226loPI    C3 3603   5.161   6.533   9.556  0.0170  0.0917  0.0381
  226loPI   PO4 3604   4.504   6.692   9.505  0.1157 -0.0191  0.3669
  226loPI   GL1 3605   4.252   6.905   9.295 -0.0555 -0.1691 -0.2162
  226loPI   GL2 3606   4.557   7.093   9.138  0.1099 -0.0938 -0.0277
  226loPI   C1A 3607   4.184   6.831   8.939  0.1697  0.0088 -0.3824
  226loPI   C2A 3608   4.155   6.786   8.580  0.1793 -0.0938 -0.0426
  226loPI   C3A 3609   4.125   6.771   8.218  0.2422 -0.0965 -0.1194
  226loPI   C4A 3610   4.435   6.761   7.907 -0.1631  0.1156  0.1659
  226loPI   C5A 3611   4.570   6.555   7.498  0.1855 -0.4940  0.1852
  226loPI   C6A 3612   4.946   6.609   7.294  0.0353 -0.3573 -0.0185
  226loPI   C1B 3613   4.537   7.281   8.847  0.0556 -0.1711 -0.3088
  226loPI   C2B 3614   4.258   7.303   8.520  0.1676 -0.0892 -0.1322
  226loPI   C3B 3615   4.055   7.261   8.050  0.1060  0.3918 -0.1094
  226loPI   C4B 3616   3.746   7.092   7.737 -0.0819 -0.0984  0.2806
  227loPI    C1 3617  15.606   3.006  10.636 -0.0981 -0.2788 -0.0228
  227loPI    C2 3618  15.737   2.726  10.890  0.1859 -0.2434 -0.1268
  227loPI    C3 3619  15.994   2.991  10.735 -0.0900  0.1208  0.0245
  227loPI   PO4 3620  15.387   2.839  10.491 -0.0057  0.1134 -0.0317
  227loPI   GL1 3621  15.347   2.858  10.074 -0.3933 -0.0290 -0.0594
  227loPI   GL2 3622  15.277   3.193  10.052  0.0982 -0.1106 -0.0220
  227loPI   C1A 3623  15.478   3.015   9.638  0.4005  0.1238  0.4727
  227loPI   C2A 3624  15.536   3.154   9.304 -0.0002  0.2431 -0.1786
  227loPI   C3A 3625  15.607   3.101   8.823  0.0944  0.1054  0.1406
  227loPI   C4A 3626  15.503   3.148   8.332 -0.6758  0.0111  0.0931
  227loPI   C5A 3627  15.247   2.995   8.032  0.1047 -0.0237  0.3087
  227loPI   C6A 3628  15.042   3.121   7.634  0.1018  0.1601 -0.0473
  227loPI   C1B 3629  14.970   3.142   9.665  0.1309  0.2820  0.1228
  227loPI   C2B 3630  14.730   3.176   9.389 -0.2277 -0.4761 -0.0648
  227loPI   C3B 3631  14.413   3.482   9.413  0.1538 -0.1124 -0.4435
  227loPI   C4B 3632  14.076   3.772   9.450  0.0015 -0.0755  0.2558
  228loPI    C1 3633   0.630  10.031   9.776  0.1578 -0.0112  0.1217
  228loPI    C2 3634   0.473   9.876   9.442  0.0999  0.1813  0.0580
  228loPI    C3 3635   0.647   9.636   9.712 -0.2432 -0.0286  0.0987
  228loPI   PO4 3636   0.675  10.272   9.637 -0.0059  0.1663 -0.0012
  228loPI   GL1 3637   0.655  10.280   9.242 -0.1242 -0.2559  0.1688
  228loPI   GL2 3638   0.935  10.225   9.187  0.0865 -0.1017 -0.4394
  228loPI   C1A 3639   0.634  10.310   8.836  0.3194 -0.1419  0.0854
  228loPI   C2A 3640   0.474  10.507   8.506 -0.0477  0.0704  0.1383
  228loPI   C3A 3641   0.134  10.230   8.338  0.2474  0.4266  0.0867
  228loPI   C4A 3642   0.103  10.039   7.974  0.3178  0.0039  0.0534
  228loPI   C5A 3643  -0.033  10.214   7.597  0.0736  0.0142 -0.2144
  228loPI   C6A 3644  -0.197  10.503   7.421  0.2591  0.1914  0.1509
  228loPI   C1B 3645   1.111   9.976   8.905 -0.3392 -0.3070 -0.1554
  228loPI   C2B 3646   1.188   9.801   8.535  0.0257  0.0069 -0.2699
  228loPI   C3B 3647   1.255   9.507   8.243 -0.2401 -0.0455  0.0906
  228loPI   C4B 3648   1.249   9.272   7.919 -0.2450 -0.1825  0.3398
  229loPI    C1 3649   9.170  10.632  10.989  0.2476 -0.1047 -0.1755
  229loPI    C2 3650   8.792  10.504  10.958  0.1764  0.1016 -0.1744
  229loPI    C3 3651   8.998  10.440  11.295  0.1392 -0.0015 -0.1709
  229loPI   PO4 3652   9.250  10.553  10.605  0.2267 -0.0587  0.1137
  229loPI   GL1 3653   9.524  10.398  10.286 -0.1809  0.0898 -0.2918
  229loPI   GL2 3654   9.480  10.660  10.190 -0.2706 -0.0379 -0.4962
  229loPI   C1A 3655   9.451  10.122  10.102 -0.1252 -0.2227  0.3164
  229loPI   C2A 3656   9.439  10.033   9.710 -0.0371  0.1248 -0.0372
  229loPI   C3A 3657   9.253   9.884   9.469 -0.1141  0.2572  0.0265
  229loPI   C4A 3658   9.391  10.011   9.032  0.1163 -0.3396  0.0724
  229loPI   C5A 3659   9.455   9.779   8.667  0.0521 -0.2104 -0.1367
  229loPI   C6A 3660   9.536   9.403   8.614  0.0554  0.0345 -0.0366
  229loPI   C1B 3661   9.658  10.485   9.804  0.4071 -0.0577 -0.0740
  229loPI   C2B 3662   9.749  10.359   9.406  0.2123  0.0105 -0.0517
  229loPI   C3B 3663   9.744  10.465   9.026 -0.1440  0.2117 -0.0150
  229loPI   C4B 3664   9.565  10.288   8.638 -0.0156 -0.0035 -0.0262
  230loPI    C1 3665  16.633   8.827  10.004 -0.1493  0.0896 -0.0648
  230loPI    C2 3666  16.403   9.118  10.153  0.0017  0.2418 -0.1263
  230loPI    C3 3667  16.565   8.846  10.398 -0.4116  0.0072 -0.1042
  230loPI   PO4 3668  16.791   8.998   9.803 -0.4072  0.2087  0.1693
  230loPI   GL1 3669  16.753   9.147   9.404  0.0336 -0.1710 -0.3044
  230loPI   GL2 3670  16.572   9.470   9.356 -0.0022 -0.1240  0.0589
  230loPI   C1A 3671  16.444   9.028   9.220  0.0661 -0.2650 -0.3811
  230loPI   C2A 3672  16.208   9.064   8.878  0.2637  0.2991  0.2146
  230loPI   C3A 3673  16.048   9.013   8.487  0.1619  0.1955 -0.1831
  230loPI   C4A 3674  15.930   8.970   8.131  0.1536 -0.0318 -0.0051
  230loPI   C5A 3675  15.870   8.866   7.673  0.0719 -0.0944 -0.3239
  230loPI   C6A 3676  15.764   8.864   7.316  0.1412 -0.1569 -0.0162
  230loPI   C1B 3677  16.498   9.493   8.924  0.4343  0.0843  0.1119
  230loPI   C2B 3678  16.586   9.376   8.399 -0.2985  0.3600 -0.3271
  230loPI   C3B 3679  16.703   9.435   7.962  0.1324  0.1791  0.2071
  230loPI   C4B 3680  17.102   9.572   7.749 -0.0992  0.4204  0.2510
  231loPI    C1 3681   6.014   4.767   9.628  0.1789 -0.0165 -0.0014
  231loPI    C2 3682   6.027   5.122   9.812  0.0359  0.0416 -0.1019
  231loPI    C3 3683   6.255   4.821   9.943  0.2911  0.2211 -0.1245
  231loPI   PO4 3684   5.811   4.648   9.669 -0.1648 -0.4504 -0.1599
  231loPI   GL1 3685   5.619   4.612   9.302 -0.3230 -0.2293 -0.0507
  231loPI   GL2 3686   5.274   4.456   9.318  0.1654  0.1320 -0.1440
  231loPI   C1A 3687   5.595   4.515   8.893  0.2284 -0.0613 -0.1387
  231loPI   C2A 3688   5.531   4.749   8.535  0.2932 -0.2479  0.0342
  231loPI   C3A 3689   5.441   4.914   8.185 -0.1058  0.0360 -0.1678
  231loPI   C4A 3690   5.240   4.792   7.803 -0.2830 -0.1542  0.1149
  231loPI   C5A 3691   4.920   4.433   7.850  0.1768 -0.1887 -0.0043
  231loPI   C6A 3692   4.590   4.230   8.125 -0.2695  0.2182 -0.1479
  231loPI   C1B 3693   5.142   4.244   8.897 -0.2881 -0.4226  0.0943
  231loPI   C2B 3694   5.383   4.096   8.597 -0.0808 -0.1313 -0.1182
  231loPI   C3B 3695   5.430   3.986   8.198 -0.2999 -0.1147 -0.0777
  231loPI   C4B 3696   5.652   3.966   7.868 -0.1053  0.0466  0.0155
  232loPI    C1 3697   6.904  17.324   9.720 -0.2543 -0.1856  0.0073
  232loPI    C2 3698   7.292  17.401   9.660 -0.2577 -0.1914 -0.0229
  232loPI    C3 3699   7.173  17.230  10.002 -0.2526 -0.0438  0.0539
  232loPI   PO4 3700   6.805  17.335   9.477  0.1364  0.1806 -0.1771
  232loPI   GL1 3701   6.753  17.211   9.117 -0.3350 -0.1104  0.1250
  232loPI   GL2 3702   6.999  16.959   9.167 -0.2316 -0.2332  0.2962
  232loPI   C1A 3703   6.586  17.077   8.740  0.0815 -0.0262  0.0451
  232loPI   C2A 3704   6.749  17.187   8.331  0.0282 -0.0156 -0.2301
  232loPI   C3A 3705   7.066  17.199   8.163 -0.0294 -0.0125 -0.0544
  232loPI   C4A 3706   7.305  16.917   8.183 -0.2910  0.0824  0.0223
  232loPI   C5A 3707   7.473  16.706   7.829 -0.2993 -0.3381  0.1609
  232loPI   C6A 3708   7.203  16.643   7.345 -0.0959 -0.0447  0.1078
  232loPI   C1B 3709   7.059  17.059   8.735 -0.1399  0.0002  0.0306
  232loPI   C2B 3710   7.333  17.297   8.613 -0.1062  0.0128 -0.0374
  232loPI   C3B 3711   7.565  17.366   8.128  0.4923  0.3120  0.0340
  232loPI   C4B 3712   7.393  17.501   7.833  0.2170  0.0636  0.0234
  233loPI    C1 3713   6.004  15.223   9.821 -0.0315 -0.1354  0.0975
  233loPI    C2 3714   6.353  15.059   9.713 -0.0275 -0.0642  0.0009
  233loPI    C3 3715   6.242  15.059  10.098  0.1317  0.0145  0.0476
  233loPI   PO4 3716   5.971  15.383   9.521  0.1561  0.0287 -0.0432
  233loPI   GL1 3717   5.606  15.309   9.109  0.2007 -0.0678 -0.0245
  233loPI   GL2 3718   5.471  15.013   8.958 -0.2515  0.2728  0.0453
  233loPI   C1A 3719   5.671  15.406   8.729  0.0400 -0.0143  0.1426
  233loPI   C2A 3720   5.679  15.541   8.294  0.2358  0.1707  0.2479
  233loPI   C3A 3721   5.761  15.835   7.908 -0.0352  0.2716 -0.0109
  233loPI   C4A 3722   6.036  16.151   7.592  0.1604  0.0712  0.0407
  233loPI   C5A 3723   6.052  16.083   7.161 -0.0151 -0.0222  0.1335
  233loPI   C6A 3724   6.053  16.024   6.801 -0.3146  0.0191  0.0542
  233loPI   C1B 3725   5.570  14.917   8.493  0.2377  0.3392  0.4047
  233loPI   C2B 3726   5.668  15.009   8.060  0.3278 -0.0726  0.1023
  233loPI   C3B 3727   5.730  15.371   7.784  0.0650 -0.0414 -0.1647
  233loPI   C4B 3728   5.992  15.559   7.460  0.1421 -0.0185 -0.0231
  234loPI    C1 3729   6.686   9.800  10.534  0.1054 -0.1484  0.1919
  234loPI    C2 3730   6.342  10.005  10.548  0.0776 -0.1278 -0.4884
  234loPI    C3 3731   6.350   9.619  10.654 -0.0255  0.0176  0.0804
  234loPI   PO4 3732   6.794   9.863  10.334  0.0346 -0.1032 -0.2410
  234loPI   GL1 3733   7.111   9.828  10.086 -0.2599  0.2227  0.2746
  234loPI   GL2 3734   6.844   9.654   9.931  0.3416 -0.0181 -0.0249
  234loPI   C1A 3735   7.271   9.433   9.794  0.2562 -0.2549  0.2497
  234loPI   C2A 3736   7.122   9.140   9.513 -0.1692  0.1013 -0.1565
  234loPI   C3A 3737   6.988   9.211   9.142  0.0945  0.1956 -0.2623
  234loPI   C4A 3738   6.921   9.015   8.753 -0.2340  0.1918  0.0870
  234loPI   C5A 3739   6.624   8.987   8.427  0.2105  0.0664  0.0434
  234loPI   C6A 3740   6.637   8.757   8.087 -0.1023 -0.1202 -0.3118
  234loPI   C1B 3741   6.780   9.559   9.555 -0.2391 -0.1891  0.1251
  234loPI   C2B 3742   6.588   9.321   9.417 -0.2311  0.1467  0.1750
  234loPI   C3B 3743   6.325   9.149   9.124  0.2337 -0.0883  0.0059
  234loPI   C4B 3744   6.357   9.314   8.681  0.2193 -0.0843  0.1381
  235loPI    C1 3745  12.695  17.202  10.057 -0.0339  0.1367 -0.0234
  235loPI    C2 3746  13.008  17.396  10.212  0.0247 -0.1343  0.2045
  235loPI    C3 3747  13.063  17.051  10.017 -0.0796  0.0665 -0.1905
  235loPI   PO4 3748  12.559  17.409   9.898  0.1152 -0.3454  0.1456
  235loPI   GL1 3749  12.293  17.402   9.583  0.1058 -0.0849 -0.1061
  235loPI   GL2 3750  12.074  17.595   9.668  0.0949  0.0927 -0.0842
  235loPI   C1A 3751  12.064  17.316   9.185 -0.3908 -0.0091  0.2863
  235loPI   C2A 3752  11.869  17.359   8.802 -0.2445 -0.1051  0.2223
  235loPI   C3A 3753  11.500  17.331   8.406  0.0830  0.0435 -0.0785
  235loPI   C4A 3754  11.133  17.372   8.122 -0.2759 -0.2747  0.0251
  235loPI   C5A 3755  11.010  17.047   7.793  0.4381  0.0731 -0.1003
  235loPI   C6A 3756  10.745  16.631   7.704  0.2159 -0.0883  0.1050
  235loPI   C1B 3757  11.687  17.747   9.353 -0.2466  0.0385 -0.1746
  235loPI   C2B 3758  11.631  18.054   9.050 -0.0698  0.0206 -0.1761
  235loPI   C3B 3759  11.654  18.186   8.625  0.0550  0.0959 -0.0143
  235loPI   C4B 3760  11.669  18.502   8.401 -0.0124  0.0113 -0.1110
  236loPI    C1 3761  11.270   5.623  10.396  0.1688  0.3280 -0.0208
  236loPI    C2 3762  11.599   5.396  10.378  0.0019  0.0673  0.1612
  236loPI    C3 3763  11.594   5.722  10.610  0.1675  0.1344  0.0722
  236loPI   PO4 3764  11.215   5.639  10.182  0.0740  0.0423 -0.1693
  236loPI   GL1 3765  11.062   5.877   9.888 -0.1458  0.1151 -0.0549
  236loPI   GL2 3766  10.993   5.489   9.749  0.0899 -0.0955 -0.3297
  236loPI   C1A 3767  11.034   6.044   9.418  0.0872 -0.2984 -0.3665
  236loPI   C2A 3768  11.023   5.930   8.990 -0.1079  0.1962 -0.1214
  236loPI   C3A 3769  11.082   5.971   8.473  0.1835  0.3114  0.0007
  236loPI   C4A 3770  10.985   6.051   8.031  0.3362  0.1866  0.2761
  236loPI   C5A 3771  10.736   5.889   7.829 -0.3005  0.0596  0.1099
  236loPI   C6A 3772  10.309   6.139   7.664 -0.0601 -0.0530 -0.0818
  236loPI   C1B 3773  10.851   5.416   9.450 -0.0797  0.5191  0.2090
  236loPI   C2B 3774  10.972   5.366   9.046  0.0300 -0.1269  0.0596
  236loPI   C3B 3775  10.726   5.476   8.667  0.2815 -0.1639  0.1159
  236loPI   C4B 3776  10.650   5.584   8.221 -0.0085  0.1443  0.1194
  237loPI    C1 3777  11.858  17.086  10.192  0.0873  0.0264  0.0656
  237loPI    C2 3778  12.129  17.381  10.182 -0.0782  0.1812  0.0991
  237loPI    C3 3779  11.987  17.251  10.533 -0.1622  0.2077  0.0752
  237loPI   PO4 3780  11.780  17.191   9.952  0.2711 -0.1504  0.1060
  237loPI   GL1 3781  11.857  17.072   9.537 -0.2742 -0.1194  0.0605
  237loPI   GL2 3782  11.563  16.989   9.558 -0.0902  0.2415  0.0352
  237loPI   C1A 3783  11.723  16.919   9.091 -0.2121  0.0039  0.0154
  237loPI   C2A 3784  11.766  16.873   8.671  0.0464  0.0586 -0.1461
  237loPI   C3A 3785  11.856  17.014   8.355  0.0176  0.3211  0.0994
  237loPI   C4A 3786  12.131  17.160   7.932 -0.3538 -0.0387 -0.2476
  237loPI   C5A 3787  12.167  17.574   7.779 -0.2778 -0.2378 -0.0958
  237loPI   C6A 3788  12.321  18.031   7.673 -0.4420  0.0371  0.0665
  237loPI   C1B 3789  11.505  17.317   9.131  0.0757 -0.1380 -0.0159
  237loPI   C2B 3790  11.312  17.107   8.819  0.2645 -0.2727  0.0550
  237loPI   C3B 3791  11.019  17.183   8.598  0.0064  0.0220  0.2070
  237loPI   C4B 3792  10.782  17.484   8.488  0.0546  0.1598 -0.1703
  238loPI    C1 3793   1.370   3.564   9.827  0.1445  0.1752 -0.0130
  238loPI    C2 3794   1.340   3.829   9.528  0.0849  0.0833 -0.0890
  238loPI    C3 3795   1.698   3.746   9.687  0.1381  0.0150 -0.2423
  238loPI   PO4 3796   1.281   3.415   9.827  0.1167 -0.6153  0.1148
  238loPI   GL1 3797   1.278   3.295   9.395  0.0434  0.0152 -0.0277
  238loPI   GL2 3798   1.635   3.233   9.491 -0.1709  0.0369  0.3209
  238loPI   C1A 3799   1.347   3.589   9.150  0.0114  0.0071  0.1638
  238loPI   C2A 3800   0.940   3.891   9.131  0.0396 -0.2943  0.1865
  238loPI   C3A 3801   0.633   3.923   8.858 -0.1204  0.3617 -0.0222
  238loPI   C4A 3802   0.222   3.764   8.722 -0.0936  0.0099  0.0090
  238loPI   C5A 3803  -0.283   3.604   8.717  0.0066 -0.1417 -0.1699
  238loPI   C6A 3804  -0.491   3.570   8.402 -0.0829 -0.0309 -0.1024
  238loPI   C1B 3805   1.745   3.177   9.016 -0.2389  0.0340  0.0051
  238loPI   C2B 3806   1.767   2.927   8.647 -0.1431 -0.2408 -0.3225
  238loPI   C3B 3807   1.886   3.015   8.207  0.1019  0.1512  0.0095
  238loPI   C4B 3808   1.759   3.114   7.801 -0.1186  0.0069  0.0782
  239loPI    C1 3809  15.095   1.495  11.014 -0.2035  0.1098  0.0157
  239loPI    C2 3810  15.233   1.857  11.115  0.0058 -0.0268  0.2315
  239loPI    C3 3811  14.996   1.656  11.367 -0.1994  0.0033  0.0658
  239loPI   PO4 3812  14.974   1.628  10.675  0.2273 -0.0194  0.3500
  239loPI   GL1 3813  15.152   1.751  10.171  0.0157  0.0212  0.0640
  239loPI   GL2 3814  15.512   1.690  10.115  0.0618 -0.0963 -0.0167
  239loPI   C1A 3815  14.993   1.775   9.685 -0.1897  0.2153 -0.1913
  239loPI   C2A 3816  14.984   1.605   9.277  0.3508  0.0827 -0.1143
  239loPI   C3A 3817  14.861   1.565   8.940 -0.0443 -0.1918 -0.1389
  239loPI   C4A 3818  14.903   1.731   8.504 -0.2166 -0.0909 -0.3227
  239loPI   C5A 3819  14.794   2.089   8.220 -0.0077 -0.0623  0.1784
  239loPI   C6A 3820  14.897   2.157   7.822  0.0650  0.0373  0.1551
  239loPI   C1B 3821  15.615   1.490   9.711  0.2446 -0.1091 -0.1976
  239loPI   C2B 3822  15.475   1.365   9.293 -0.1591 -0.3005  0.0389
  239loPI   C3B 3823  15.442   1.580   8.923  0.3232  0.0823 -0.3291
  239loPI   C4B 3824  15.760   1.878   8.856  0.0799  0.5876 -0.1303
  240loPI    C1 3825   0.792  18.683  10.411 -0.0230  0.0790 -0.0585
  240loPI    C2 3826   1.123  18.567  10.603 -0.0039  0.1415 -0.0536
  240loPI    C3 3827   0.764  18.495  10.763  0.0063  0.0501 -0.0716
  240loPI   PO4 3828   0.879  18.793  10.234  0.2442  0.0624  0.0558
  240loPI   GL1 3829   0.862  18.942   9.783 -0.0062 -0.0082  0.0778
  240loPI   GL2 3830   0.957  18.856   9.381  0.1249  0.4049 -0.0283
  240loPI   C1A 3831   0.495  19.013   9.471 -0.2643 -0.0261 -0.0564
  240loPI   C2A 3832   0.518  18.932   9.018  0.0463  0.1801 -0.0058
  240loPI   C3A 3833   0.904  18.938   8.885  0.1063  0.0586  0.0748
  240loPI   C4A 3834   0.972  18.938   8.461  0.1873 -0.1685 -0.0203
  240loPI   C5A 3835   1.224  19.179   8.175  0.3602  0.4197  0.1902
  240loPI   C6A 3836   1.587  19.218   8.106  0.1092  0.1576 -0.2383
  240loPI   C1B 3837   1.127  18.502   9.197  0.0647  0.0657  0.1504
  240loPI   C2B 3838   1.067  18.438   8.787 -0.2902 -0.1363 -0.0200
  240loPI   C3B 3839   1.249  18.146   8.480  0.2725  0.0533  0.0248
  240loPI   C4B 3840   1.200  17.982   8.111  0.1581 -0.2661  0.0822
  241loPI    C1 3841  15.199   7.405  10.165  0.2080  0.0740  0.0145
  241loPI    C2 3842  15.349   7.718  10.365  0.1907  0.0350  0.0888
  241loPI    C3 3843  15.015   7.539  10.494 -0.0314  0.2430 -0.1855
  241loPI   PO4 3844  15.307   7.486   9.908 -0.1779  0.3972  0.0295
  241loPI   GL1 3845  15.105   7.515   9.515  0.3088  0.2835 -0.0178
  241loPI   GL2 3846  15.116   7.263   9.352 -0.0171  0.3615 -0.2776
  241loPI   C1A 3847  15.171   7.891   9.197  0.2304  0.2451  0.0232
  241loPI   C2A 3848  15.098   7.919   8.696  0.4553 -0.1608 -0.2272
  241loPI   C3A 3849  14.983   7.995   8.248  0.0113 -0.2516  0.2855
  241loPI   C4A 3850  15.119   8.266   7.862  0.0253  0.0305  0.0188
  241loPI   C5A 3851  15.207   8.561   7.544 -0.0681 -0.0145  0.0578
  241loPI   C6A 3852  15.169   8.748   7.090 -0.0491 -0.0127  0.1940
  241loPI   C1B 3853  15.121   7.393   9.001  0.1115 -0.0924 -0.0232
  241loPI   C2B 3854  15.013   7.095   8.533 -0.2178 -0.3176 -0.1334
  241loPI   C3B 3855  15.052   7.218   8.112 -0.1034  0.2078  0.2114
  241loPI   C4B 3856  15.084   7.318   7.634  0.1986  0.0423 -0.0843
  242loPI    C1 3857  17.932   1.541  10.295  0.2428  0.1375 -0.1250
  242loPI    C2 3858  18.078   1.556  10.667 -0.1979  0.1397  0.0536
  242loPI    C3 3859  17.875   1.233  10.544  0.0089  0.1074 -0.2128
  242loPI   PO4 3860  17.779   1.694  10.270  0.1399 -0.1776  0.0881
  242loPI   GL1 3861  17.692   1.811   9.854  0.0717 -0.0816 -0.0330
  242loPI   GL2 3862  17.983   1.716   9.686 -0.2914  0.1872  0.1363
  242loPI   C1A 3863  17.507   1.654   9.634 -0.0178  0.0811  0.2737
  242loPI   C2A 3864  17.341   1.776   9.152  0.2807 -0.1045  0.1397
  242loPI   C3A 3865  17.033   1.881   8.864  0.0524 -0.2124  0.0031
  242loPI   C4A 3866  17.098   2.189   8.411  0.2909 -0.1421  0.4884
  242loPI   C5A 3867  16.880   2.565   8.295  0.0671  0.2169  0.0189
  242loPI   C6A 3868  16.609   2.667   7.864 -0.1830 -0.0476 -0.0632
  242loPI   C1B 3869  17.862   1.859   9.312 -0.1498  0.3439  0.0577
  242loPI   C2B 3870  17.813   1.729   8.971 -0.1080  0.2678  0.1157
  242loPI   C3B 3871  17.473   1.832   8.602 -0.0053  0.2324  0.1774
  242loPI   C4B 3872  17.131   1.603   8.470  0.1662 -0.1364  0.1298
  243loPI    C1 3873  17.421  13.107  10.396 -0.2532 -0.1116  0.1772
  243loPI    C2 3874  17.531  13.161  10.777 -0.0887 -0.0930  0.1277
  243loPI    C3 3875  17.145  13.111  10.686 -0.1847  0.3880  0.2442
  243loPI   PO4 3876  17.517  13.218  10.244 -0.1414  0.0824  0.1031
  243loPI   GL1 3877  17.441  13.300   9.879 -0.0474 -0.0693 -0.0569
  243loPI   GL2 3878  17.817  13.409   9.730 -0.3767  0.0270  0.2908
  243loPI   C1A 3879  17.418  13.571   9.499  0.0847 -0.0193 -0.0605
  243loPI   C2A 3880  17.291  13.668   9.121  0.3747  0.2518  0.1814
  243loPI   C3A 3881  17.263  13.401   8.789  0.3900  0.1208 -0.0700
  243loPI   C4A 3882  17.116  13.519   8.346  0.3416 -0.1887 -0.2032
  243loPI   C5A 3883  16.741  13.877   8.264 -0.2051  0.3156  0.0318
  243loPI   C6A 3884  16.457  13.923   7.921 -0.1281  0.2324  0.2753
  243loPI   C1B 3885  18.116  13.351   9.421  0.2211 -0.0062  0.1607
  243loPI   C2B 3886  18.109  13.287   8.947  0.1994 -0.2802  0.0713
  243loPI   C3B 3887  18.139  13.383   8.506  0.1692  0.2136 -0.2904
  243loPI   C4B 3888  18.316  13.204   8.162 -0.0408  0.1838  0.1519
  244loPI    C1 3889   7.776  15.826   9.958 -0.2333 -0.2236  0.1584
  244loPI    C2 3890   7.819  16.140  10.202 -0.2228 -0.0921 -0.0104
  244loPI    C3 3891   7.591  15.830  10.312 -0.2660 -0.0080  0.1401
  244loPI   PO4 3892   8.022  15.831   9.854 -0.0699 -0.4950 -0.0148
  244loPI   GL1 3893   8.056  15.616   9.422  0.1787 -0.1815 -0.0438
  244loPI   GL2 3894   8.043  15.842   9.220 -0.1423 -0.1343  0.1342
  244loPI   C1A 3895   8.070  15.298   8.989  0.0298  0.1709  0.1375
  244loPI   C2A 3896   8.046  15.168   8.532  0.2889 -0.0776  0.2933
  244loPI   C3A 3897   8.053  15.004   8.164  0.1284 -0.0190  0.0805
  244loPI   C4A 3898   8.211  15.154   7.703 -0.0407  0.0672  0.2799
  244loPI   C5A 3899   8.199  15.312   7.332  0.2392 -0.2026  0.0877
  244loPI   C6A 3900   8.125  15.224   6.890  0.0851  0.1981 -0.1050
  244loPI   C1B 3901   8.201  15.784   8.843  0.1751  0.0750 -0.4055
  244loPI   C2B 3902   8.104  15.622   8.438  0.0854  0.1306  0.1508
  244loPI   C3B 3903   7.937  15.495   7.976 -0.1797 -0.0157 -0.1926
  244loPI   C4B 3904   7.747  15.351   7.675 -0.1111 -0.0947 -0.2252
  245loPI    C1 3905   6.925   3.382  10.299  0.2890  0.0996  0.0496
  245loPI    C2 3906   6.687   3.163  10.534 -0.0149  0.0368 -0.3082
  245loPI    C3 3907   6.737   3.553  10.608  0.0669 -0.0273 -0.0133
  245loPI   PO4 3908   6.992   3.183  10.035  0.2705 -0.0240 -0.0831
  245loPI   GL1 3909   7.186   3.035   9.653  0.0202 -0.0100  0.0193
  245loPI   GL2 3910   7.463   2.899   9.499 -0.1031  0.2136  0.3121
  245loPI   C1A 3911   6.969   3.295   9.216 -0.0741  0.1773 -0.0501
  245loPI   C2A 3912   7.002   3.402   8.829 -0.1313 -0.1019 -0.1922
  245loPI   C3A 3913   6.909   3.360   8.401  0.1182  0.1193 -0.1976
  245loPI   C4A 3914   6.924   3.454   7.963  0.0432  0.3196  0.0750
  245loPI   C5A 3915   7.026   3.611   7.649 -0.0574 -0.0249  0.2199
  245loPI   C6A 3916   7.223   3.808   7.315  0.2192  0.1385  0.0219
  245loPI   C1B 3917   7.805   2.763   9.163 -0.0345 -0.4126 -0.0175
  245loPI   C2B 3918   7.915   2.885   8.775  0.1320 -0.1407  0.1280
  245loPI   C3B 3919   8.249   3.071   8.531 -0.0908 -0.0752 -0.0112
  245loPI   C4B 3920   8.393   3.063   8.140 -0.3357  0.0605  0.2873
  246loPI    C1 3921  16.551  16.646  10.649 -0.2862  0.1667 -0.1414
  246loPI    C2 3922  16.629  17.018  10.774  0.2721  0.0215 -0.0343
  246loPI    C3 3923  16.498  16.744  11.033 -0.1465  0.1384 -0.1147
  246loPI   PO4 3924  16.508  16.709  10.408  0.0599  0.1445 -0.0874
  246loPI   GL1 3925  16.631  16.769  10.004  0.0666  0.0068 -0.4542
  246loPI   GL2 3926  16.303  16.885   9.942 -0.1729  0.1118  0.0253
  246loPI   C1A 3927  16.534  16.577   9.575  0.0734 -0.1853  0.0045
  246loPI   C2A 3928  16.377  16.672   9.153 -0.1375  0.2477  0.1560
  246loPI   C3A 3929  16.357  16.811   8.858 -0.0308  0.0061  0.0296
  246loPI   C4A 3930  16.433  17.111   8.452  0.3143  0.1512 -0.3110
  246loPI   C5A 3931  16.725  17.461   8.306 -0.0782  0.2851  0.1458
  246loPI   C6A 3932  16.675  17.893   8.090  0.2522  0.4518  0.1216
  246loPI   C1B 3933  16.141  16.947   9.540  0.0646 -0.0121 -0.1118
  246loPI   C2B 3934  15.879  16.789   9.232 -0.1326 -0.2260  0.2579
  246loPI   C3B 3935  15.906  16.600   8.830 -0.1271 -0.3093 -0.3992
  246loPI   C4B 3936  16.095  16.614   8.439  0.0049  0.0389  0.0798
  247loPI    C1 3937   3.637   8.801  10.235 -0.1623  0.2757 -0.2533
  247loPI    C2 3938   3.828   9.149  10.194  0.1238  0.1208 -0.2604
  247loPI    C3 3939   4.028   8.824  10.313 -0.2239  0.0491  0.1525
  247loPI   PO4 3940   3.497   8.667   9.992  0.1890  0.0444 -0.2531
  247loPI   GL1 3941   3.533   8.569   9.512  0.0420  0.4258  0.0780
  247loPI   GL2 3942   3.616   8.285   9.719 -0.4028 -0.1897  0.2117
  247loPI   C1A 3943   3.711   8.427   9.140 -0.0764  0.1761  0.1555
  247loPI   C2A 3944   3.853   8.556   8.818  0.0696 -0.1448 -0.3641
  247loPI   C3A 3945   4.180   8.640   8.477  0.2871 -0.3811 -0.2348
  247loPI   C4A 3946   4.296   8.949   8.227 -0.1771  0.0746  0.1769
  247loPI   C5A 3947   4.407   9.231   7.852 -0.0782 -0.0481  0.1282
  247loPI   C6A 3948   4.794   9.547   7.650 -0.0888  0.3246  0.2318
  247loPI   C1B 3949   3.393   8.037   9.289  0.1181  0.0175  0.2748
  247loPI   C2B 3950   3.226   7.894   8.915 -0.2523 -0.1363  0.0799
  247loPI   C3B 3951   3.286   8.000   8.636  0.0397  0.0118 -0.1747
  247loPI   C4B 3952   3.232   7.844   8.245  0.1061 -0.2086  0.2165
  248loPI    C1 3953   6.823  11.472  10.157 -0.1232 -0.2787 -0.1358
  248loPI    C2 3954   6.611  11.571  10.481  0.1575  0.0986 -0.0614
  248loPI    C3 3955   7.007  11.525  10.507  0.1482 -0.1415 -0.2962
  248loPI   PO4 3956   6.685  11.623   9.998  0.0761 -0.2812  0.0526
  248loPI   GL1 3957   6.760  11.746   9.661 -0.0796 -0.1291 -0.3854
  248loPI   GL2 3958   6.941  11.772   9.490  0.2650 -0.0497 -0.2130
  248loPI   C1A 3959   6.484  11.703   9.281  0.0391  0.2523  0.1303
  248loPI   C2A 3960   6.491  11.703   8.867  0.0065  0.0471  0.1038
  248loPI   C3A 3961   6.638  11.621   8.478  0.2498 -0.0298 -0.2464
  248loPI   C4A 3962   6.746  11.677   7.985  0.0259  0.0706  0.2094
  248loPI   C5A 3963   6.544  11.596   7.589  0.1295  0.1062 -0.0745
  248loPI   C6A 3964   6.293  11.549   7.281 -0.2091 -0.1164  0.0360
  248loPI   C1B 3965   6.976  11.736   9.106 -0.1229  0.1345  0.1686
  248loPI   C2B 3966   7.084  11.732   8.783  0.1923  0.1191 -0.1262
  248loPI   C3B 3967   7.168  11.560   8.427 -0.0965  0.0999 -0.3028
  248loPI   C4B 3968   7.196  11.193   8.120  0.0003 -0.0232  0.0643
  249loPI    C1 3969   9.108   2.137  10.077 -0.1518 -0.2446  0.3593
  249loPI    C2 3970   9.105   2.529   9.999  0.1841 -0.2828  0.1292
  249loPI    C3 3971   9.375   2.377  10.252 -0.1403 -0.3277  0.4566
  249loPI   PO4 3972   9.135   2.008   9.804 -0.0606 -0.0766 -0.0558
  249loPI   GL1 3973   9.375   1.688   9.626  0.1574 -0.5675 -0.0626
  249loPI   GL2 3974   9.578   1.865   9.376 -0.2670  0.0469  0.1770
  249loPI   C1A 3975   9.258   1.428   9.246  0.0540  0.3689 -0.1996
  249loPI   C2A 3976   9.131   1.378   8.866 -0.2074 -0.0222 -0.0436
  249loPI   C3A 3977   8.893   1.437   8.470 -0.2459 -0.0684  0.3504
  249loPI   C4A 3978   8.588   1.334   8.135 -0.2678 -0.1143 -0.2888
  249loPI   C5A 3979   8.613   1.185   7.651 -0.4745 -0.0882  0.0022
  249loPI   C6A 3980   8.585   1.302   7.251 -0.0507  0.4503  0.1923
  249loPI   C1B 3981   9.589   1.716   8.891 -0.1308 -0.4014 -0.0340
  249loPI   C2B 3982   9.538   1.519   8.486 -0.0437  0.0618  0.0358
  249loPI   C3B 3983   9.275   1.566   8.208  0.2836  0.0665  0.1400
  249loPI   C4B 3984   8.825   1.742   8.083  0.1279 -0.0714  0.0497
  250loPI    C1 3985  11.897   9.125  10.863 -0.0417  0.0368 -0.0837
  250loPI    C2 3986  12.107   9.408  11.052  0.1476 -0.1857  0.0443
  250loPI    C3 3987  12.271   9.208  10.747  0.0076 -0.1444 -0.0586
  250loPI   PO4 3988  11.716   9.266  10.758 -0.2013 -0.3718  0.1327
  250loPI   GL1 3989  11.453   9.127  10.408 -0.3432 -0.0342 -0.0148
  250loPI   GL2 3990  11.278   9.132  10.518  0.3162  0.4668 -0.0496
  250loPI   C1A 3991  11.480   9.103   9.902 -0.0180 -0.2858 -0.1283
  250loPI   C2A 3992  11.433   9.306   9.527  0.0259 -0.1403 -0.1899
  250loPI   C3A 3993  11.652   9.671   9.380 -0.0025 -0.0929  0.0474
  250loPI   C4A 3994  11.804  10.070   9.186  0.0135  0.0006 -0.2779
  250loPI   C5A 3995  12.259  10.168   9.005 -0.0137  0.0815 -0.1054
  250loPI   C6A 3996  12.396  10.255   8.511  0.3435  0.1208 -0.0774
  250loPI   C1B 3997  11.118   9.447  10.180  0.0674 -0.0220  0.0869
  250loPI   C2B 3998  10.943   9.651   9.821  0.1219 -0.1130 -0.1705
  250loPI   C3B 3999  11.147   9.762   9.402  0.2337  0.1836 -0.0488
  250loPI   C4B 4000  11.253   9.841   8.969  0.3195 -0.0405 -0.0384
  251loPI    C1 4001   5.465   8.305  10.500 -0.0716 -0.0892 -0.1590
  251loPI    C2 4002   5.519   8.698  10.553  0.2357 -0.1649  0.1161
  251loPI    C3 4003   5.224   8.509  10.745 -0.0237 -0.0402 -0.1525
  251loPI   PO4 4004   5.651   8.319  10.193  0.0972  0.2443 -0.1962
  251loPI   GL1 4005   5.637   8.200   9.808 -0.5501  0.0679 -0.1850
  251loPI   GL2 4006   5.721   7.885   9.668 -0.0208  0.2758  0.3881
  251loPI   C1A 4007   5.751   8.302   9.370  0.0542 -0.1107 -0.2279
  251loPI   C2A 4008   5.753   7.997   8.976 -0.3960  0.0338 -0.3229
  251loPI   C3A 4009   6.079   7.764   8.852  0.1130  0.1169  0.1579
  251loPI   C4A 4010   6.191   7.646   8.459 -0.0417  0.0674 -0.1378
  251loPI   C5A 4011   6.537   7.449   8.262 -0.2797  0.1702 -0.0427
  251loPI   C6A 4012   6.923   7.381   8.062  0.0424 -0.2798  0.3545
  251loPI   C1B 4013   5.993   7.802   9.367 -0.0582  0.2314 -0.0397
  251loPI   C2B 4014   6.448   7.869   9.199  0.0221  0.0519 -0.1932
  251loPI   C3B 4015   6.830   7.654   9.082  0.0735  0.0955  0.4124
  251loPI   C4B 4016   7.313   7.542   9.031 -0.2448 -0.2674  0.2635
  252loPI    C1 4017   7.522   1.108   9.889  0.0591 -0.0167 -0.1525
  252loPI    C2 4018   7.605   1.143  10.279 -0.2857 -0.1050 -0.0675
  252loPI    C3 4019   7.446   1.451  10.080  0.1202  0.0243 -0.2016
  252loPI   PO4 4020   7.772   1.031   9.745  0.0815 -0.1489  0.0363
  252loPI   GL1 4021   7.936   0.635   9.500 -0.0306  0.1953 -0.1662
  252loPI   GL2 4022   8.041   0.304   9.632  0.0963  0.0185 -0.1740
  252loPI   C1A 4023   8.294   0.502   9.288  0.0397 -0.3487  0.0690
  252loPI   C2A 4024   8.637   0.192   9.132  0.2525  0.4469  0.2846
  252loPI   C3A 4025   8.746   0.122   8.668 -0.1758  0.4991 -0.0456
  252loPI   C4A 4026   9.009  -0.046   8.322  0.0771  0.1198 -0.0603
  252loPI   C5A 4027   9.347  -0.108   8.173 -0.4790  0.1826  0.1163
  252loPI   C6A 4028   9.733   0.197   8.108  0.1260  0.0826 -0.1104
  252loPI   C1B 4029   7.860   0.274   9.089  0.1502 -0.3839  0.0792
  252loPI   C2B 4030   8.152   0.191   8.805  0.1342  0.0667 -0.2123
  252loPI   C3B 4031   8.040   0.520   8.432 -0.0496  0.0350  0.0398
  252loPI   C4B 4032   7.965   0.703   8.064  0.0048 -0.0383 -0.2487
  253loPI    C1 4033  14.876   9.165  10.217 -0.1299  0.2693 -0.0711
  253loPI    C2 4034  14.896   8.771  10.156 -0.1570  0.2681 -0.0724
  253loPI    C3 4035  14.660   8.917  10.444  0.1163  0.2610  0.1596
  253loPI   PO4 4036  14.873   9.224   9.999  0.1688  0.1377 -0.2823
  253loPI   GL1 4037  15.075   9.402   9.691  0.0825 -0.0248 -0.0161
  253loPI   GL2 4038  15.002   8.967   9.574  0.1108 -0.3571  0.1667
  253loPI   C1A 4039  14.964   9.566   9.353  0.3376 -0.3090 -0.0573
  253loPI   C2A 4040  14.854   9.664   8.982  0.2857 -0.0960  0.1674
  253loPI   C3A 4041  14.689   9.994   8.752  0.1533 -0.1438  0.2786
  253loPI   C4A 4042  14.701  10.244   8.353  0.1443  0.2906  0.0315
  253loPI   C5A 4043  14.836  10.404   8.057  0.4128  0.2391  0.1982
  253loPI   C6A 4044  14.625  10.781   7.956 -0.0315 -0.1814 -0.1464
  253loPI   C1B 4045  14.804   9.104   9.265  0.0161  0.1085 -0.2885
  253loPI   C2B 4046  14.722   9.206   8.822  0.0640  0.1910  0.1631
  253loPI   C3B 4047  14.649   9.207   8.385  0.1332  0.0975  0.3015
  253loPI   C4B 4048  14.711   9.137   7.908  0.3918  0.0336 -0.1204
  254loPI    C1 4049   1.507  11.802   9.942  0.0477 -0.0175 -0.1329
  254loPI    C2 4050   1.346  12.013  10.241  0.0165  0.0534 -0.1995
  254loPI    C3 4051   1.743  12.008  10.191  0.0675 -0.4087  0.1817
  254loPI   PO4 4052   1.246  11.860   9.684  0.0020  0.2281 -0.3018
  254loPI   GL1 4053   0.969  12.331   9.547 -0.0215  0.1338  0.1820
  254loPI   GL2 4054   0.968  12.035   9.295  0.0437 -0.1276 -0.3223
  254loPI   C1A 4055   1.188  12.382   9.077 -0.1356 -0.0168 -0.0599
  254loPI   C2A 4056   1.205  12.499   8.693 -0.2551 -0.2165  0.1516
  254loPI   C3A 4057   1.184  12.748   8.360  0.0468  0.4286  0.2776
  254loPI   C4A 4058   1.197  12.811   7.915 -0.0635 -0.2356 -0.1099
  254loPI   C5A 4059   1.216  12.442   7.704  0.1994  0.1483 -0.2084
  254loPI   C6A 4060   1.483  12.167   7.583  0.1978 -0.2733  0.0545
  254loPI   C1B 4061   1.177  11.802   9.014  0.3534  0.1398  0.0299
  254loPI   C2B 4062   0.822  11.640   8.626  0.1198 -0.1521 -0.1092
  254loPI   C3B 4063   0.955  11.759   8.216 -0.2036  0.1561  0.1429
  254loPI   C4B 4064   0.935  11.881   7.821 -0.0464 -0.2113  0.0665
  255loPI    C1 4065  17.477  18.307  10.996  0.3712  0.0852 -0.1780
  255loPI    C2 4066  17.662  17.953  10.996  0.0312 -0.1032  0.3174
  255loPI    C3 4067  17.738  18.218  11.285  0.0907  0.1281  0.0932
  255loPI   PO4 4068  17.416  18.375  10.763 -0.1006  0.3684  0.2934
  255loPI   GL1 4069  17.119  18.279  10.383 -0.0502  0.6467  0.1749
  255loPI   GL2 4070  16.958  18.575  10.490 -0.1279 -0.0320  0.0041
  255loPI   C1A 4071  17.414  18.250   9.982  0.5285 -0.3994 -0.1508
  255loPI   C2A 4072  17.363  18.141   9.593 -0.2508  0.2216 -0.1082
  255loPI   C3A 4073  17.605  18.091   9.289 -0.3018  0.1431 -0.4831
  255loPI   C4A 4074  17.828  18.219   8.815  0.3550 -0.0219 -0.2913
  255loPI   C5A 4075  18.002  18.255   8.372 -0.1914  0.1031 -0.0928
  255loPI   C6A 4076  18.103  17.852   8.018 -0.3076 -0.3716  0.0955
  255loPI   C1B 4077  16.806  18.760  10.133 -0.3878  0.3150 -0.0515
  255loPI   C2B 4078  16.779  18.760   9.729 -0.0309  0.1048 -0.1398
  255loPI   C3B 4079  16.761  18.904   9.305 -0.1250 -0.2880  0.0152
  255loPI   C4B 4080  16.816  18.624   9.026 -0.3494 -0.3248  0.1700
  256loPI    C1 4081   4.188   5.052   9.880 -0.0799  0.0612 -0.2790
  256loPI    C2 4082   4.174   5.451   9.901  0.0063  0.0652 -0.2963
  256loPI    C3 4083   4.461   5.251  10.095  0.0531  0.0214 -0.4099
  256loPI   PO4 4084   4.255   5.005   9.642 -0.0703  0.0165 -0.0823
  256loPI   GL1 4085   4.314   4.626   9.337  0.2072  0.3391 -0.0352
  256loPI   GL2 4086   4.537   4.782   9.277  0.0889  0.0224 -0.0785
  256loPI   C1A 4087   4.062   4.745   9.046 -0.0134  0.2278  0.1187
  256loPI   C2A 4088   3.996   4.603   8.650 -0.0627 -0.3772  0.0313
  256loPI   C3A 4089   4.071   4.149   8.514  0.0620 -0.1534  0.0274
  256loPI   C4A 4090   4.034   3.858   8.247 -0.2148  0.1862  0.0667
  256loPI   C5A 4091   3.940   3.601   7.929 -0.1172 -0.2808 -0.2233
  256loPI   C6A 4092   3.903   3.238   7.837 -0.1595  0.2542 -0.1363
  256loPI   C1B 4093   4.499   4.787   8.800 -0.1525  0.0035 -0.0889
  256loPI   C2B 4094   4.432   4.665   8.384  0.3646 -0.2335  0.0839
  256loPI   C3B 4095   4.029   4.556   8.172  0.0187 -0.0321 -0.0394
  256loPI   C4B 4096   3.623   4.749   8.209  0.2000  0.3245  0.0679
  257loPI    C1 4097  12.549  18.610  10.576 -0.0737  0.4048 -0.1628
  257loPI    C2 4098  12.748  18.949  10.648  0.4626  0.0917 -0.1117
  257loPI    C3 4099  12.890  18.602  10.786 -0.2524 -0.1235  0.1277
  257loPI   PO4 4100  12.445  18.600  10.312  0.2632 -0.1549  0.5497
  257loPI   GL1 4101  12.474  18.791   9.869  0.0512  0.2195 -0.1999
  257loPI   GL2 4102  12.597  18.675   9.649  0.2245 -0.1905  0.4303
  257loPI   C1A 4103  12.191  19.019   9.712 -0.2623  0.0911  0.2844
  257loPI   C2A 4104  12.258  19.246   9.293  0.1517  0.3905 -0.3032
  257loPI   C3A 4105  12.490  19.430   8.994 -0.1882  0.1368  0.0418
  257loPI   C4A 4106  12.579  19.309   8.593 -0.3801  0.0337 -0.1143
  257loPI   C5A 4107  12.793  19.458   8.276  0.0281  0.1787 -0.4666
  257loPI   C6A 4108  12.886  19.895   8.126 -0.0097  0.0073  0.1386
  257loPI   C1B 4109  12.366  18.729   9.340  0.4592  0.0354 -0.0795
  257loPI   C2B 4110  12.228  18.952   8.881  0.0936 -0.3028 -0.0304
  257loPI   C3B 4111  12.181  19.085   8.514 -0.0049  0.1853 -0.2184
  257loPI   C4B 4112  12.356  19.166   8.171 -0.2035  0.3141  0.2788
  258loPI    C1 4113   7.462   1.888  10.248 -0.0597 -0.3587  0.0646
  258loPI    C2 4114   7.188   1.861   9.957 -0.0310 -0.0135  0.0017
  258loPI    C3 4115   7.134   2.117  10.260  0.3285  0.2324 -0.1343
  258loPI   PO4 4116   7.665   1.859  10.106 -0.0332  0.0697 -0.0173
  258loPI   GL1 4117   7.541   1.768   9.646 -0.3246 -0.2149 -0.1726
  258loPI   GL2 4118   7.460   1.526   9.537 -0.1780  0.0459 -0.0201
  258loPI   C1A 4119   7.661   1.912   9.287 -0.1428 -0.2039  0.0111
  258loPI   C2A 4120   7.580   1.941   8.812 -0.1851 -0.0376 -0.1892
  258loPI   C3A 4121   7.602   1.799   8.391  0.0323 -0.0525  0.1363
  258loPI   C4A 4122   7.637   1.435   8.130  0.2810  0.3077  0.0193
  258loPI   C5A 4123   7.599   1.500   7.604  0.0984 -0.0908 -0.0670
  258loPI   C6A 4124   7.736   1.523   7.149  0.0416  0.0184  0.0324
  258loPI   C1B 4125   7.382   1.571   9.073  0.1215 -0.0662  0.2585
  258loPI   C2B 4126   7.484   1.393   8.664 -0.0526  0.3509 -0.2995
  258loPI   C3B 4127   7.176   1.588   8.397 -0.0958  0.2239 -0.3144
  258loPI   C4B 4128   7.174   1.660   7.950  0.2377  0.0952 -0.2849
  259loPI    C1 4129   8.271   6.213  10.158  0.2668 -0.2350 -0.0548
  259loPI    C2 4130   8.022   6.163  10.467  0.2939 -0.1389 -0.0171
  259loPI    C3 4131   8.178   5.845  10.282  0.0591 -0.2022 -0.1097
  259loPI   PO4 4132   8.089   6.414  10.012 -0.0174  0.1189 -0.3045
  259loPI   GL1 4133   8.055   6.533   9.588 -0.0459  0.1166 -0.2241
  259loPI   GL2 4134   8.302   6.755   9.596 -0.2270  0.0387  0.0219
  259loPI   C1A 4135   8.026   6.599   9.085  0.0481  0.0335  0.2445
  259loPI   C2A 4136   8.075   6.758   8.605  0.2096 -0.2064  0.1870
  259loPI   C3A 4137   8.139   7.138   8.291  0.0796 -0.1701 -0.1356
  259loPI   C4A 4138   8.467   7.254   8.029  0.3038  0.0352 -0.0311
  259loPI   C5A 4139   8.861   7.166   7.913  0.0684 -0.0296  0.5880
  259loPI   C6A 4140   9.075   6.819   7.777 -0.1999 -0.1400 -0.0918
  259loPI   C1B 4141   8.482   6.860   9.265 -0.0118  0.3615  0.2576
  259loPI   C2B 4142   8.231   7.057   9.023 -0.1242 -0.0827 -0.1313
  259loPI   C3B 4143   8.292   7.351   8.777 -0.3416  0.0009  0.2611
  259loPI   C4B 4144   8.276   7.577   8.443  0.0858 -0.1661 -0.0983
  260loPI    C1 4145   7.738   3.786   9.957  0.2375  0.3722 -0.1484
  260loPI    C2 4146   7.445   3.918  10.194  0.0206 -0.0583 -0.1674
  260loPI    C3 4147   7.810   4.079  10.220 -0.1265  0.2455  0.1003
  260loPI   PO4 4148   7.604   3.816   9.758  0.1147 -0.0240  0.0919
  260loPI   GL1 4149   7.191   3.589   9.601  0.0743  0.0272 -0.3288
  260loPI   GL2 4150   7.398   3.465   9.510 -0.1290 -0.2913 -0.0059
  260loPI   C1A 4151   6.902   3.740   9.381  0.0457 -0.5715 -0.3813
  260loPI   C2A 4152   6.866   3.819   8.965  0.1923 -0.0046  0.1295
  260loPI   C3A 4153   6.954   3.834   8.523 -0.1945  0.0184  0.1423
  260loPI   C4A 4154   6.965   3.898   8.120  0.1310  0.0197  0.0113
  260loPI   C5A 4155   7.051   4.118   7.710 -0.0145  0.0192 -0.0678
  260loPI   C6A 4156   7.074   4.295   7.366  0.1477  0.3231  0.1712
  260loPI   C1B 4157   7.425   3.179   9.082  0.0429  0.1010  0.0899
  260loPI   C2B 4158   7.375   3.063   8.744 -0.0944 -0.1215  0.0279
  260loPI   C3B 4159   7.597   3.138   8.393 -0.0778  0.1322  0.1043
  260loPI   C4B 4160   7.796   3.073   8.025  0.0243  0.0107  0.0122
  261loPI    C1 4161  13.342  14.068  10.622  0.0932 -0.0385  0.2516
  261loPI    C2 4162  12.961  14.149  10.715  0.0071 -0.0899 -0.0441
  261loPI    C3 4163  13.227  14.446  10.687 -0.0598 -0.0301 -0.0470
  261loPI   PO4 4164  13.405  13.917  10.375 -0.0902  0.1029  0.1176
  261loPI   GL1 4165  13.621  13.564  10.194 -0.2734  0.4394  0.1261
  261loPI   GL2 4166  13.344  13.340  10.020 -0.3091  0.2583 -0.2837
  261loPI   C1A 4167  13.502  13.867   9.749  0.0777  0.2266 -0.1599
  261loPI   C2A 4168  13.586  13.704   9.334 -0.2807  0.0328  0.1098
  261loPI   C3A 4169  13.806  13.588   8.951  0.0554  0.0204  0.0928
  261loPI   C4A 4170  13.759  13.870   8.460 -0.0385 -0.0548 -0.0535
  261loPI   C5A 4171  14.045  14.018   8.186 -0.2423  0.2339 -0.1401
  261loPI   C6A 4172  14.364  13.881   7.845  0.1549 -0.0139  0.0699
  261loPI   C1B 4173  13.579  13.335   9.716 -0.2949 -0.2444  0.2453
  261loPI   C2B 4174  13.573  13.184   9.277  0.1936 -0.0312 -0.1958
  261loPI   C3B 4175  13.688  13.089   8.795 -0.1352  0.2998 -0.1274
  261loPI   C4B 4176  14.022  12.946   8.394 -0.2599  0.0969 -0.0356
  262loPI    C1 4177  18.198   9.827   9.854  0.1856  0.0964 -0.2229
  262loPI    C2 4178  18.415   9.543  10.034  0.0987  0.1005 -0.1098
  262loPI    C3 4179  18.215   9.811  10.254 -0.0178  0.0991 -0.2132
  262loPI   PO4 4180  18.349   9.926   9.650 -0.2626  0.2111 -0.2978
  262loPI   GL1 4181  18.192  10.147   9.296 -0.1416 -0.0206 -0.0082
  262loPI   GL2 4182  18.146  10.425   9.193  0.2152 -0.0389  0.0582
  262loPI   C1A 4183  18.232  10.057   8.867  0.1646 -0.0390 -0.1973
  262loPI   C2A 4184  18.102  10.084   8.496  0.1751 -0.1367  0.3850
  262loPI   C3A 4185  17.796  10.041   8.228 -0.2556 -0.1850  0.0287
  262loPI   C4A 4186  17.523   9.759   8.133  0.1034  0.0391  0.2949
  262loPI   C5A 4187  17.585   9.410   7.855  0.1281 -0.0120  0.1743
  262loPI   C6A 4188  17.755   8.989   7.826  0.2640 -0.0354  0.1819
  262loPI   C1B 4189  17.961  10.478   8.852  0.1535  0.2128 -0.0360
  262loPI   C2B 4190  17.565  10.428   8.555  0.1168  0.0919  0.0283
  262loPI   C3B 4191  17.455  10.371   8.075 -0.1472  0.1007  0.1545
  262loPI   C4B 4192  17.435  10.095   7.691  0.2166 -0.3605 -0.1709
  263loPI    C1 4193  13.406   2.003  10.506  0.0103  0.2056 -0.1162
  263loPI    C2 4194  13.166   2.097  10.200 -0.0420 -0.1132 -0.1763
  263loPI    C3 4195  13.019   2.080  10.571  0.0115  0.2283 -0.1365
  263loPI   PO4 4196  13.669   2.074  10.370  0.0949 -0.0617 -0.0242
  263loPI   GL1 4197  13.595   2.086   9.897  0.2658 -0.0415  0.1861
  263loPI   GL2 4198  13.379   2.235   9.735 -0.2777  0.0971  0.0280
  263loPI   C1A 4199  13.754   1.853   9.540 -0.0345  0.0825  0.1688
  263loPI   C2A 4200  13.640   1.747   8.990  0.1894 -0.1644 -0.1723
  263loPI   C3A 4201  13.905   1.677   8.626 -0.2898  0.1874  0.1174
  263loPI   C4A 4202  14.004   1.444   8.209 -0.2622 -0.2266  0.0593
  263loPI   C5A 4203  13.879   1.155   7.900  0.0331  0.0222  0.1512
  263loPI   C6A 4204  13.868   0.716   7.807  0.1430  0.0441 -0.1099
  263loPI   C1B 4205  13.583   2.469   9.448 -0.1215  0.0311 -0.2524
  263loPI   C2B 4206  13.589   2.780   9.156 -0.2397  0.1436 -0.3476
  263loPI   C3B 4207  13.738   3.043   8.817  0.2319 -0.0018  0.0696
  263loPI   C4B 4208  13.659   3.029   8.356 -0.0802 -0.0058  0.0588
  264loPI    C1 4209  10.825   5.039  10.041  0.2931 -0.2138  0.2254
  264loPI    C2 4210  10.691   4.676   9.941 -0.0011 -0.0649  0.0664
  264loPI    C3 4211  11.066   4.782   9.851  0.0084 -0.2410 -0.1085
  264loPI   PO4 4212  10.598   5.207  10.012 -0.2054 -0.1633 -0.1037
  264loPI   GL1 4213  10.408   5.257   9.618 -0.0802 -0.3325 -0.0633
  264loPI   GL2 4214  10.666   4.956   9.549 -0.0463 -0.5211  0.1334
  264loPI   C1A 4215  10.412   5.450   9.154 -0.2061 -0.1238  0.0545
  264loPI   C2A 4216  10.292   5.670   8.717 -0.0359 -0.1521  0.1495
  264loPI   C3A 4217   9.996   5.984   8.507 -0.0113  0.1130 -0.2227
  264loPI   C4A 4218   9.788   6.058   8.255  0.0737  0.1829 -0.0663
  264loPI   C5A 4219   9.600   6.356   7.943  0.0828  0.3673  0.3429
  264loPI   C6A 4220   9.086   6.320   7.933  0.1056 -0.3315 -0.3920
  264loPI   C1B 4221  10.691   4.922   9.198 -0.0428 -0.0719 -0.0279
  264loPI   C2B 4222  10.573   5.035   8.820  0.1201 -0.1634  0.1270
  264loPI   C3B 4223  10.512   4.806   8.311  0.2648 -0.1038 -0.0840
  264loPI   C4B 4224  10.422   4.502   7.934 -0.0570  0.3052  0.1897
  265loPI    C1 4225   1.190   1.400  10.173 -0.1273  0.1346  0.3623
  265loPI    C2 4226   1.192   1.102   9.906  0.0399  0.3274  0.1445
  265loPI    C3 4227   1.449   1.097  10.212 -0.1976  0.0719  0.3450
  265loPI   PO4 4228   1.055   1.592   9.946  0.1108 -0.0305  0.1282
  265loPI   GL1 4229   0.848   1.565   9.554  0.0707  0.2854  0.0911
  265loPI   GL2 4230   0.740   1.179   9.532 -0.1485  0.0579 -0.0334
  265loPI   C1A 4231   1.275   1.466   9.171  0.1538  0.3528 -0.0208
  265loPI   C2A 4232   1.291   1.580   8.717  0.2752  0.1265 -0.1276
  265loPI   C3A 4233   1.221   1.719   8.245 -0.5013 -0.1224  0.1255
  265loPI   C4A 4234   0.898   1.773   7.961 -0.0640 -0.1177  0.0293
  265loPI   C5A 4235   0.556   1.954   7.868  0.3750 -0.1522  0.1345
  265loPI   C6A 4236   0.185   1.719   7.728 -0.2276 -0.0620 -0.0531
  265loPI   C1B 4237   0.424   1.163   9.159 -0.1957  0.0743 -0.1830
  265loPI   C2B 4238   0.086   1.243   8.806  0.1072  0.1239 -0.0069
  265loPI   C3B 4239  -0.213   1.254   8.427 -0.0921 -0.0048 -0.0387
  265loPI   C4B 4240  -0.197   1.594   8.061 -0.1821 -0.2915  0.0233
  266loPI    C1 4241  10.729   1.258  10.275 -0.1902 -0.2426 -0.0876
  266loPI    C2 4242  10.860   1.355  10.641 -0.1380  0.1545 -0.2073
  266loPI    C3 4243  10.590   1.063  10.596 -0.0620  0.0270  0.1359
  266loPI   PO4 4244  10.680   1.400  10.069 -0.3046  0.1174 -0.2715
  266loPI   GL1 4245  10.416   1.439   9.619 -0.1344 -0.2202 -0.0200
  266loPI   GL2 4246  10.407   1.095   9.741  0.3061  0.2289  0.0198
  266loPI   C1A 4247  10.384   1.286   9.216  0.1493 -0.1073 -0.2225
  266loPI   C2A 4248  10.346   1.175   8.698 -0.2298  0.2618 -0.2941
  266loPI   C3A 4249  10.326   1.214   8.228 -0.2907  0.1468 -0.0261
  266loPI   C4A 4250  10.395   0.900   7.851  0.1076  0.0998  0.4149
  266loPI   C5A 4251  10.338   0.702   7.437 -0.3164 -0.2204 -0.1892
  266loPI   C6A 4252  10.414   0.648   6.937  0.1010 -0.1100 -0.3677
  266loPI   C1B 4253  10.232   0.892   9.506  0.2208  0.1172  0.0187
  266loPI   C2B 4254   9.953   0.823   9.306  0.0078 -0.1459  0.0017
  266loPI   C3B 4255   9.681   0.499   9.323 -0.2166 -0.0153  0.3186
  266loPI   C4B 4256   9.770   0.171   8.995 -0.0672 -0.1639  0.0077
  267loPI    C1 4257   3.416  10.407   9.587 -0.1975  0.2028 -0.0360
  267loPI    C2 4258   3.340  10.018   9.534  0.1102  0.1363 -0.0090
  267loPI    C3 4259   3.038  10.278   9.566 -0.0992 -0.1117  0.0684
  267loPI   PO4 4260   3.784  10.290   9.549  0.0006 -0.2064 -0.2013
  267loPI   GL1 4261   3.945  10.575   9.223  0.2907  0.0415 -0.2932
  267loPI   GL2 4262   4.205  10.535   9.457  0.1580  0.0466  0.1654
  267loPI   C1A 4263   3.924  10.542   8.753 -0.0703  0.1865  0.1501
  267loPI   C2A 4264   3.948  10.541   8.342 -0.3790  0.1242  0.0548
  267loPI   C3A 4265   3.797  10.872   8.125  0.2345 -0.2573 -0.0349
  267loPI   C4A 4266   3.440  11.091   7.885  0.1046 -0.1323  0.1923
  267loPI   C5A 4267   3.351  11.523   7.737 -0.0901  0.2169  0.0456
  267loPI   C6A 4268   3.150  11.774   7.888 -0.0512  0.2608 -0.0796
  267loPI   C1B 4269   4.390  10.512   9.094 -0.0103 -0.3538 -0.3690
  267loPI   C2B 4270   4.381  10.644   8.696 -0.1683  0.0055  0.0244
  267loPI   C3B 4271   4.452  10.721   8.232  0.1223 -0.2050  0.3042
  267loPI   C4B 4272   4.660  10.944   7.844 -0.3564  0.1647  0.2656
  268loPI    C1 4273  16.047  10.332  10.495 -0.0392 -0.1300 -0.2156
  268loPI    C2 4274  16.438  10.248  10.480 -0.0089 -0.0306 -0.0171
  268loPI    C3 4275  16.172   9.953  10.530  0.0350 -0.1060 -0.2184
  268loPI   PO4 4276  15.947  10.518  10.235 -0.1216 -0.0201  0.2370
  268loPI   GL1 4277  15.912  10.411   9.840 -0.0552 -0.0158  0.2742
  268loPI   GL2 4278  16.111  10.573   9.616  0.4219  0.1080  0.3143
  268loPI   C1A 4279  15.623  10.664   9.632 -0.0744 -0.2308  0.2680
  268loPI   C2A 4280  15.471  10.880   9.262 -0.0450  0.0136 -0.4491
  268loPI   C3A 4281  15.576  10.912   8.875  0.0589 -0.0929  0.1834
  268loPI   C4A 4282  15.426  11.081   8.405  0.2640  0.0488 -0.1193
  268loPI   C5A 4283  15.590  11.436   8.217 -0.0247  0.0519  0.0129
  268loPI   C6A 4284  15.454  11.636   7.811  0.1709  0.4870  0.0805
  268loPI   C1B 4285  15.956  10.715   9.206  0.1367 -0.0830 -0.0290
  268loPI   C2B 4286  16.008  10.602   8.747  0.0400  0.1082 -0.0974
  268loPI   C3B 4287  16.226  10.448   8.381 -0.0320 -0.0063  0.0210
  268loPI   C4B 4288  16.288  10.232   7.973 -0.0494  0.1272 -0.1657
  269loPI    C1 4289  11.108   3.198  10.377  0.0369 -0.1702  0.0292
  269loPI    C2 4290  11.116   3.001  10.725 -0.1797  0.0649  0.1703
  269loPI    C3 4291  10.779   3.179  10.604 -0.0693  0.0954 -0.0986
  269loPI   PO4 4292  11.149   3.088  10.128 -0.0632 -0.1027  0.1440
  269loPI   GL1 4293  11.015   3.000   9.792 -0.0735  0.0803  0.0037
  269loPI   GL2 4294  10.701   2.832   9.593 -0.1644  0.0733 -0.1797
  269loPI   C1A 4295  11.072   3.083   9.363 -0.0284  0.0527  0.1435
  269loPI   C2A 4296  10.795   3.332   9.144 -0.0357 -0.2980  0.0134
  269loPI   C3A 4297  10.496   3.306   8.724  0.0745 -0.0399  0.4026
  269loPI   C4A 4298  10.175   3.087   8.455  0.0729 -0.0118  0.2652
  269loPI   C5A 4299   9.994   3.189   8.058  0.0900  0.1431 -0.4128
  269loPI   C6A 4300   9.901   2.934   7.644 -0.0474 -0.0126 -0.3169
  269loPI   C1B 4301  10.715   2.852   9.126  0.2010 -0.0928 -0.0411
  269loPI   C2B 4302  10.513   2.776   8.746 -0.1942 -0.0959 -0.2561
  269loPI   C3B 4303  10.524   2.690   8.417 -0.0848  0.1494 -0.0717
  269loPI   C4B 4304  10.211   2.680   8.061  0.1125 -0.1077  0.1836
  270loPI    C1 4305  15.723   6.064   9.667 -0.0508  0.2732  0.1002
  270loPI    C2 4306  15.473   5.756   9.723 -0.0541  0.2405 -0.0888
  270loPI    C3 4307  15.649   5.931  10.037 -0.0096  0.0106  0.0162
  270loPI   PO4 4308  15.846   6.011   9.481  0.1350  0.5753  0.2856
  270loPI   GL1 4309  15.883   5.643   9.205 -0.0209  0.3707  0.1311
  270loPI   GL2 4310  16.043   5.369   9.312  0.1922  0.4742 -0.2616
  270loPI   C1A 4311  15.487   5.533   9.125 -0.1741  0.0700 -0.1496
  270loPI   C2A 4312  15.115   5.445   8.956 -0.0741 -0.1663 -0.1754
  270loPI   C3A 4313  15.045   5.296   8.644 -0.0276  0.0629  0.2803
  270loPI   C4A 4314  15.041   5.346   8.223 -0.2895  0.0469  0.2094
  270loPI   C5A 4315  14.748   5.413   7.849  0.0752 -0.2979  0.0809
  270loPI   C6A 4316  14.487   5.365   7.501  0.0742  0.1840 -0.1039
  270loPI   C1B 4317  15.828   5.078   8.973  0.0945 -0.2071  0.0317
  270loPI   C2B 4318  15.853   4.819   8.728 -0.0745 -0.1468  0.0022
  270loPI   C3B 4319  15.801   4.678   8.259  0.1439 -0.2027 -0.0075
  270loPI   C4B 4320  15.597   4.370   7.998  0.1651 -0.0189  0.0884
  271loPI    C1 4321  10.464  12.484  10.669 -0.0015 -0.1120  0.1709
  271loPI    C2 4322  10.358  12.110  10.762 -0.2883 -0.0753  0.0006
  271loPI    C3 4323  10.189  12.295  10.450 -0.1703  0.2076  0.1006
  271loPI   PO4 4324  10.717  12.402  10.604  0.0782 -0.2310 -0.0189
  271loPI   GL1 4325  10.828  12.329  10.222  0.1452 -0.2087 -0.1665
  271loPI   GL2 4326  10.617  12.087  10.180 -0.3274 -0.0226  0.1966
  271loPI   C1A 4327  10.693  12.377   9.780 -0.1642  0.0448 -0.1782
  271loPI   C2A 4328  10.433  12.222   9.500 -0.1165  0.2659  0.0867
  271loPI   C3A 4329  10.232  12.120   9.090  0.3124 -0.2192  0.1394
  271loPI   C4A 4330  10.145  11.955   8.681  0.2568 -0.0414 -0.0651
  271loPI   C5A 4331  10.118  11.771   8.363 -0.0209  0.1978 -0.3564
  271loPI   C6A 4332  10.215  11.445   8.110 -0.2251  0.0573 -0.1882
  271loPI   C1B 4333  10.188  12.082   9.925  0.2289 -0.2522 -0.4211
  271loPI   C2B 4334   9.893  12.180   9.543  0.1609  0.2551  0.1667
  271loPI   C3B 4335   9.723  12.121   9.058  0.2207 -0.1682  0.2902
  271loPI   C4B 4336   9.548  11.951   8.641 -0.1286  0.1201 -0.1978
  272loPI    C1 4337  17.267  12.241  10.157  0.1799 -0.0667 -0.0908
  272loPI    C2 4338  17.041  11.918  10.223 -0.0145  0.0754 -0.0530
  272loPI    C3 4339  17.317  12.026  10.491 -0.1839  0.1353  0.0995
  272loPI   PO4 4340  17.119  12.474  10.151  0.1154 -0.0178 -0.0446
  272loPI   GL1 4341  16.673  12.551   9.961  0.0874 -0.2631 -0.0613
  272loPI   GL2 4342  16.811  12.179   9.887  0.2087  0.1742  0.0289
  272loPI   C1A 4343  16.562  12.495   9.563  0.2174 -0.0380 -0.1383
  272loPI   C2A 4344  16.474  12.523   9.090 -0.1802  0.1997 -0.1345
  272loPI   C3A 4345  16.176  12.620   8.674 -0.1290 -0.1331  0.2185
  272loPI   C4A 4346  16.219  12.521   8.311 -0.0759 -0.0451  0.0011
  272loPI   C5A 4347  16.028  12.232   8.012  0.2149  0.0768  0.0186
  272loPI   C6A 4348  16.012  11.729   8.015 -0.0306  0.1442  0.0574
  272loPI   C1B 4349  16.955  12.244   9.347  0.1711  0.0186 -0.0669
  272loPI   C2B 4350  17.010  12.021   8.934 -0.0115 -0.0569  0.0906
  272loPI   C3B 4351  16.993  11.791   8.564  0.3565 -0.1621 -0.1401
  272loPI   C4B 4352  16.820  11.751   8.121 -0.1342 -0.3154  0.0237
  273loPI    C1 4353   8.470  10.655  10.659  0.0341  0.1639  0.0526
  273loPI    C2 4354   8.193  10.941  10.700 -0.0904  0.0397  0.0869
  273loPI    C3 4355   8.394  10.810  11.020  0.0068  0.1274  0.0625
  273loPI   PO4 4356   8.624  10.663  10.381  0.0531 -0.1782 -0.1099
  273loPI   GL1 4357   8.379  10.798  10.017  0.0064 -0.1765 -0.2476
  273loPI   GL2 4358   8.642  10.896   9.876  0.4827 -0.1427 -0.1647
  273loPI   C1A 4359   8.484  10.521   9.640  0.1154  0.1117 -0.1516
  273loPI   C2A 4360   8.482  10.444   9.129 -0.0313  0.0593  0.1549
  273loPI   C3A 4361   8.499  10.163   8.832 -0.6283 -0.2090 -0.0405
  273loPI   C4A 4362   8.516  10.170   8.364 -0.1256  0.1929  0.2018
  273loPI   C5A 4363   8.321  10.075   8.024  0.1616 -0.1325  0.0029
  273loPI   C6A 4364   8.046  10.132   7.696 -0.0506 -0.4390  0.1521
  273loPI   C1B 4365   8.749  11.004   9.551  0.0273  0.0606 -0.0424
  273loPI   C2B 4366   8.865  10.853   9.032 -0.0687 -0.0325  0.0259
  273loPI   C3B 4367   8.698  10.589   8.677  0.0947 -0.0236 -0.2457
  273loPI   C4B 4368   8.637  10.605   8.262 -0.1954  0.3608  0.5003
  274loPI    C1 4369   8.854  13.729  10.714  0.0780 -0.0578 -0.0508
  274loPI    C2 4370   8.708  13.361  10.654  0.3953 -0.1960  0.0023
  274loPI    C3 4371   8.877  13.455  11.005  0.3031  0.0065 -0.0059
  274loPI   PO4 4372   8.967  13.810  10.450  0.1397  0.0227 -0.3156
  274loPI   GL1 4373   9.087  13.668  10.111 -0.1737  0.1739  0.0010
  274loPI   GL2 4374   9.134  13.361  10.117 -0.2449  0.0265 -0.2335
  274loPI   C1A 4375   9.107  13.682   9.665  0.1366  0.0915 -0.1517
  274loPI   C2A 4376   9.342  13.629   9.297  0.1986  0.1429  0.1503
  274loPI   C3A 4377   9.392  13.283   8.957  0.0236 -0.0252 -0.4601
  274loPI   C4A 4378   9.222  12.984   8.660  0.0973  0.1894 -0.0057
  274loPI   C5A 4379   8.941  12.877   8.353 -0.1246 -0.1546 -0.1534
  274loPI   C6A 4380   8.706  12.673   8.028 -0.2336 -0.1299  0.1535
  274loPI   C1B 4381   9.233  13.187   9.738  0.1755  0.1900  0.0124
  274loPI   C2B 4382   9.212  12.989   9.346  0.0788 -0.0048  0.0687
  274loPI   C3B 4383   9.060  12.653   9.090  0.1101 -0.0376  0.1982
  274loPI   C4B 4384   8.851  12.532   8.732 -0.0832  0.1464 -0.2655
  275loPI    C1 4385   4.394   8.592   9.791 -0.0855  0.1680  0.0639
  275loPI    C2 4386   4.389   8.415  10.149  0.2010  0.0272  0.0007
  275loPI    C3 4387   4.706   8.632  10.037  0.0786  0.1374 -0.1363
  275loPI   PO4 4388   4.276   8.441   9.579 -0.2084 -0.2956 -0.2398
  275loPI   GL1 4389   4.153   8.710   9.240 -0.0427  0.1429  0.1127
  275loPI   GL2 4390   4.267   8.906   9.418 -0.1199  0.1230  0.0414
  275loPI   C1A 4391   4.466   8.655   8.904 -0.0294  0.0798 -0.0922
  275loPI   C2A 4392   4.680   8.666   8.574 -0.1995 -0.2312 -0.5444
  275loPI   C3A 4393   4.656   8.541   8.073 -0.0483  0.0085 -0.4964
  275loPI   C4A 4394   4.252   8.484   7.767  0.3540  0.0543 -0.1891
  275loPI   C5A 4395   3.976   8.715   7.965 -0.0059  0.0194  0.2454
  275loPI   C6A 4396   3.736   8.591   8.270  0.0078  0.3610 -0.0146
  275loPI   C1B 4397   4.557   9.208   9.190  0.0246  0.5998  0.0994
  275loPI   C2B 4398   4.742   9.536   9.020 -0.1224  0.0217 -0.2166
  275loPI   C3B 4399   4.766   9.599   8.629  0.0298  0.2616  0.0210
  275loPI   C4B 4400   4.610   9.746   8.124  0.0830 -0.0572 -0.0820
  276loPI    C1 4401   9.106  16.185  10.219  0.2068  0.0667  0.1691
  276loPI    C2 4402   8.862  16.036  10.499  0.2593  0.0407  0.2012
  276loPI    C3 4403   8.967  16.422  10.509 -0.0531  0.1343 -0.0080
  276loPI   PO4 4404   9.058  16.085   9.968  0.1562  0.1211  0.2488
  276loPI   GL1 4405   8.890  16.184   9.559 -0.0477  0.0487  0.0802
  276loPI   GL2 4406   9.063  15.910   9.464 -0.2211 -0.0036  0.1259
  276loPI   C1A 4407   8.861  16.287   9.082 -0.0514 -0.2258 -0.0750
  276loPI   C2A 4408   8.917  16.240   8.513 -0.1341 -0.0858 -0.1104
  276loPI   C3A 4409   9.024  16.056   8.172  0.1897  0.2269 -0.0336
  276loPI   C4A 4410   9.391  16.030   8.015 -0.0270 -0.1012  0.1588
  276loPI   C5A 4411   9.743  16.226   7.783  0.0078  0.0555  0.0263
  276loPI   C6A 4412  10.053  16.008   7.615  0.2925  0.0941 -0.3380
  276loPI   C1B 4413   9.286  15.965   9.013  0.0143 -0.1474  0.0265
  276loPI   C2B 4414   9.345  16.031   8.552 -0.0358  0.2411 -0.0442
  276loPI   C3B 4415   9.377  15.629   8.447  0.2192  0.0400 -0.0755
  276loPI   C4B 4416   9.372  15.246   8.326 -0.1629 -0.4201 -0.0982
  277loPI    C1 4417  13.424  12.584  10.472 -0.1181 -0.0342  0.2859
  277loPI    C2 4418  13.588  12.735  10.805 -0.0636  0.2751  0.1223
  277loPI    C3 4419  13.201  12.800  10.725 -0.1099  0.0887  0.1886
  277loPI   PO4 4420  13.619  12.429  10.358  0.0070  0.1149 -0.0860
  277loPI   GL1 4421  13.671  12.197   9.970 -0.2207 -0.3624 -0.0800
  277loPI   GL2 4422  13.323  12.307   9.990  0.2163  0.4024  0.1842
  277loPI   C1A 4423  13.679  12.572   9.693  0.3533 -0.4343 -0.0729
  277loPI   C2A 4424  13.595  12.621   9.186  0.0464 -0.0163 -0.0477
  277loPI   C3A 4425  13.660  12.515   8.735  0.0882  0.3348 -0.1402
  277loPI   C4A 4426  13.427  12.756   8.510 -0.0424  0.1651  0.0724
  277loPI   C5A 4427  13.551  13.144   8.303  0.0899 -0.1319  0.0613
  277loPI   C6A 4428  13.876  13.421   8.412 -0.1294  0.0987  0.1574
  277loPI   C1B 4429  13.546  12.179   9.508  0.2130  0.3462 -0.3294
  277loPI   C2B 4430  13.591  12.101   9.135  0.1134  0.1961 -0.1256
  277loPI   C3B 4431  13.316  11.930   8.748 -0.1134  0.2813 -0.1439
  277loPI   C4B 4432  13.010  12.115   8.398  0.1641  0.0006  0.0282
  278loPI    C1 4433   9.967  18.467  10.255  0.0591  0.2036 -0.1746
  278loPI    C2 4434  10.123  18.535  10.617  0.1609 -0.3145 -0.1135
  278loPI    C3 4435  10.061  18.840  10.365  0.2515  0.0300  0.2708
  278loPI   PO4 4436  10.159  18.180  10.167 -0.1330 -0.3964 -0.0057
  278loPI   GL1 4437  10.447  18.241   9.841  0.0590  0.1154  0.1369
  278loPI   GL2 4438  10.562  17.962   9.721  0.1617 -0.0306  0.1503
  278loPI   C1A 4439  10.442  18.323   9.438  0.1262 -0.1256 -0.0431
  278loPI   C2A 4440  10.332  18.112   9.048  0.0047  0.0744  0.4434
  278loPI   C3A 4441  10.308  18.217   8.673  0.0025 -0.2803 -0.0346
  278loPI   C4A 4442  10.378  18.175   8.190  0.0476 -0.4511 -0.3376
  278loPI   C5A 4443  10.518  18.409   7.848  0.1220 -0.4275  0.0559
  278loPI   C6A 4444  10.692  18.733   7.595  0.1023 -0.0740  0.4364
  278loPI   C1B 4445  10.712  17.903   9.302  0.0496  0.0788  0.0357
  278loPI   C2B 4446  10.751  17.880   8.926  0.3826  0.2630  0.3439
  278loPI   C3B 4447  10.813  17.980   8.553 -0.2486 -0.0269  0.2821
  278loPI   C4B 4448  10.895  18.088   8.001 -0.1127  0.0489  0.0779
  279loPI    C1 4449  16.783   7.715   9.700 -0.0834  0.0466 -0.1709
  279loPI    C2 4450  16.838   7.362   9.880 -0.1032 -0.0184 -0.2913
  279loPI    C3 4451  16.657   7.660  10.075  0.0011 -0.0436 -0.1552
  279loPI   PO4 4452  16.941   7.701   9.452  0.0025 -0.0469  0.1385
  279loPI   GL1 4453  16.955   7.928   9.075 -0.0179  0.4288  0.2021
  279loPI   GL2 4454  16.940   7.639   8.923 -0.1719  0.1988  0.0205
  279loPI   C1A 4455  16.584   8.120   8.965  0.1753  0.1464 -0.0353
  279loPI   C2A 4456  16.280   8.122   8.584  0.1076  0.1826  0.0105
  279loPI   C3A 4457  16.128   8.217   8.244 -0.3220 -0.0334  0.0393
  279loPI   C4A 4458  15.947   8.440   7.896 -0.1574  0.1480 -0.0869
  279loPI   C5A 4459  15.627   8.287   7.608 -0.2705 -0.3634  0.0966
  279loPI   C6A 4460  15.489   7.902   7.398  0.1558 -0.0692 -0.0032
  279loPI   C1B 4461  16.840   7.487   8.523 -0.0355  0.5067  0.1679
  279loPI   C2B 4462  16.936   7.642   8.049 -0.0171  0.4717 -0.0282
  279loPI   C3B 4463  16.839   7.956   7.780  0.1504  0.0985 -0.2204
  279loPI   C4B 4464  16.809   8.411   7.603 -0.2913 -0.0612  0.2238
  280loPI    C1 4465   1.519  12.923   9.952  0.1041 -0.1777  0.1110
  280loPI    C2 4466   1.357  13.093  10.275 -0.1011 -0.2299  0.0368
  280loPI    C3 4467   1.383  12.695  10.250 -0.0176 -0.2236  0.0213
  280loPI   PO4 4468   1.508  13.171   9.752 -0.1641  0.1119  0.2602
  280loPI   GL1 4469   1.828  13.229   9.582  0.1420  0.2555 -0.2652
  280loPI   GL2 4470   1.838  13.557   9.594  0.0373  0.2224 -0.2537
  280loPI   C1A 4471   1.855  13.116   9.206  0.0635 -0.2400  0.1584
  280loPI   C2A 4472   1.791  13.253   8.801 -0.1186 -0.0504 -0.0118
  280loPI   C3A 4473   1.958  13.376   8.421 -0.0525 -0.1124 -0.0530
  280loPI   C4A 4474   1.874  13.485   8.069  0.3250  0.0295  0.1294
  280loPI   C5A 4475   1.968  13.672   7.729  0.2413 -0.4376  0.0294
  280loPI   C6A 4476   1.562  13.645   7.329  0.0234 -0.1444  0.1718
  280loPI   C1B 4477   2.003  13.896   9.150  0.0805  0.2235 -0.1945
  280loPI   C2B 4478   1.979  13.899   8.666 -0.2843 -0.1491  0.0940
  280loPI   C3B 4479   1.995  13.992   8.209  0.2945 -0.4167  0.4108
  280loPI   C4B 4480   2.098  14.138   7.847 -0.1619 -0.0033  0.1464
  281loPI    C1 4481  13.992   0.244  10.415  0.1431  0.0078 -0.0681
  281loPI    C2 4482  13.760  -0.049  10.272 -0.1224  0.1912 -0.0195
  281loPI    C3 4483  13.687   0.105  10.634  0.0384  0.2920 -0.0291
  281loPI   PO4 4484  13.988   0.338  10.129  0.0291  0.0478  0.2808
  281loPI   GL1 4485  14.141   0.147   9.769  0.3050 -0.2198  0.1089
  281loPI   GL2 4486  14.292   0.261   9.685 -0.0546 -0.0856  0.0265
  281loPI   C1A 4487  14.283  -0.353   9.650 -0.1729 -0.0556 -0.1769
  281loPI   C2A 4488  14.176  -0.565   9.376 -0.0316  0.0477  0.0672
  281loPI   C3A 4489  13.894  -0.507   9.091 -0.1700  0.0921  0.0168
  281loPI   C4A 4490  13.841  -0.241   8.732 -0.0761 -0.1648  0.4434
  281loPI   C5A 4491  13.619  -0.201   8.322 -0.0681  0.0068  0.1734
  281loPI   C6A 4492  13.347  -0.084   8.048 -0.0124 -0.0901 -0.2102
  281loPI   C1B 4493  14.620   0.443   9.583 -0.2332 -0.3011  0.0843
  281loPI   C2B 4494  14.880   0.556   9.208  0.2120 -0.1353 -0.1362
  281loPI   C3B 4495  15.017   0.610   8.822 -0.0575  0.2108  0.1183
  281loPI   C4B 4496  14.866   0.745   8.359 -0.2398  0.1158  0.1036
  282loPI    C1 4497   4.882  12.145  10.011 -0.2397  0.0544 -0.2011
  282loPI    C2 4498   4.862  11.926  10.346 -0.0420  0.2060 -0.0878
  282loPI    C3 4499   4.527  12.017  10.146 -0.1498  0.0162  0.0033
  282loPI   PO4 4500   5.037  11.996   9.833  0.0009  0.1560  0.2208
  282loPI   GL1 4501   5.048  11.877   9.425 -0.0010  0.0578 -0.2455
  282loPI   GL2 4502   5.002  11.549   9.485  0.1481  0.1326  0.0386
  282loPI   C1A 4503   5.154  11.926   9.010  0.0724  0.2412  0.1446
  282loPI   C2A 4504   5.133  12.116   8.773  0.1253  0.0125  0.2145
  282loPI   C3A 4505   5.169  12.231   8.423  0.0850  0.3903  0.0188
  282loPI   C4A 4506   5.271  12.451   8.109 -0.3311 -0.2280  0.0485
  282loPI   C5A 4507   5.475  12.669   8.033  0.0694  0.1023  0.0251
  282loPI   C6A 4508   5.465  13.115   7.828  0.3476 -0.0455  0.2030
  282loPI   C1B 4509   5.110  11.423   9.146 -0.3869 -0.0951 -0.0785
  282loPI   C2B 4510   5.018  11.439   8.753 -0.1701 -0.0426 -0.1915
  282loPI   C3B 4511   4.996  11.757   8.452 -0.0949  0.0982 -0.1570
  282loPI   C4B 4512   5.140  11.878   8.110  0.1954 -0.3830 -0.3874
  283loPI    C1 4513   2.421  15.329   9.771 -0.0066 -0.0654 -0.0755
  283loPI    C2 4514   2.617  15.262  10.113  0.2532  0.2447 -0.1583
  283loPI    C3 4515   2.725  15.069   9.780  0.1620  0.1273 -0.1205
  283loPI   PO4 4516   2.378  15.615   9.825 -0.1840  0.2739 -0.0488
  283loPI   GL1 4517   2.367  15.722   9.429 -0.3771 -0.4305  0.0421
  283loPI   GL2 4518   2.548  15.960   9.366 -0.1535  0.1646 -0.2025
  283loPI   C1A 4519   2.432  15.562   9.027 -0.1068 -0.0745  0.1674
  283loPI   C2A 4520   2.504  15.640   8.628 -0.0201 -0.2752  0.0053
  283loPI   C3A 4521   2.395  15.708   8.264  0.2627 -0.0085 -0.0933
  283loPI   C4A 4522   2.301  15.819   7.857 -0.2134 -0.3119  0.0899
  283loPI   C5A 4523   2.483  15.924   7.478  0.1015 -0.0138  0.0497
  283loPI   C6A 4524   2.534  16.311   7.291 -0.0086  0.1102  0.1679
  283loPI   C1B 4525   2.656  16.103   9.024 -0.0831 -0.0750 -0.0331
  283loPI   C2B 4526   2.542  16.141   8.598 -0.0040 -0.1725  0.4243
  283loPI   C3B 4527   2.509  16.207   8.118 -0.1494  0.1438 -0.5055
  283loPI   C4B 4528   2.323  16.375   7.743 -0.0541  0.4957 -0.0041
  284loPI    C1 4529  12.609   3.451   9.938 -0.1680 -0.0327 -0.0347
  284loPI    C2 4530  12.471   3.774   9.748 -0.0450 -0.0234 -0.1093
  284loPI    C3 4531  12.791   3.804   9.987  0.0258 -0.1087 -0.1927
  284loPI   PO4 4532  12.514   3.241   9.751 -0.0776  0.1507 -0.0081
  284loPI   GL1 4533  12.216   2.942   9.686  0.4793 -0.1688 -0.0738
  284loPI   GL2 4534  12.006   2.800   9.789 -0.0846 -0.2608 -0.3763
  284loPI   C1A 4535  11.860   3.049   9.342 -0.1645 -0.0465  0.0494
  284loPI   C2A 4536  11.471   2.827   9.178  0.0517 -0.0009 -0.1875
  284loPI   C3A 4537  11.137   2.726   8.891 -0.0288  0.1742 -0.1177
  284loPI   C4A 4538  11.087   2.385   8.593  0.1021  0.1278 -0.1791
  284loPI   C5A 4539  11.002   2.485   8.202  0.0253 -0.0974  0.1076
  284loPI   C6A 4540  10.652   2.336   7.985  0.0484 -0.0090 -0.1008
  284loPI   C1B 4541  11.965   2.566   9.419 -0.2008  0.2754 -0.1533
  284loPI   C2B 4542  11.896   2.662   8.997 -0.1067 -0.2024 -0.1467
  284loPI   C3B 4543  11.806   2.774   8.656 -0.2399 -0.3713  0.1733
  284loPI   C4B 4544  11.542   2.628   8.402 -0.1630 -0.1349  0.3021
  285loPI    C1 4545   1.409  16.740   9.861 -0.1415  0.0853  0.0230
  285loPI    C2 4546   1.187  16.636  10.177 -0.1072  0.1046  0.0535
  285loPI    C3 4547   1.010  16.730   9.831 -0.1397 -0.0261  0.0342
  285loPI   PO4 4548   1.610  16.893  10.030 -0.0301 -0.0359  0.2838
  285loPI   GL1 4549   2.061  16.699   9.880 -0.0415 -0.0184  0.0291
  285loPI   GL2 4550   2.157  16.922   9.615 -0.0798 -0.0763 -0.1751
  285loPI   C1A 4551   1.860  16.603   9.446 -0.3340  0.1760 -0.0687
  285loPI   C2A 4552   1.588  16.668   9.011 -0.0076 -0.0967 -0.0331
  285loPI   C3A 4553   1.535  16.619   8.609 -0.1971  0.1080  0.6347
  285loPI   C4A 4554   1.600  16.435   8.132 -0.2931 -0.1564  0.0326
  285loPI   C5A 4555   1.771  16.506   7.667  0.1264 -0.2430  0.2275
  285loPI   C6A 4556   1.517  16.547   7.363  0.3242  0.2429 -0.2800
  285loPI   C1B 4557   2.031  17.033   9.120  0.1400  0.5472  0.0304
  285loPI   C2B 4558   2.017  17.228   8.703 -0.0168  0.0003  0.2883
  285loPI   C3B 4559   1.812  17.652   8.538 -0.3327 -0.1102  0.2670
  285loPI   C4B 4560   1.650  17.918   8.222 -0.0412 -0.0902 -0.1546
  286loPI    C1 4561  10.477   4.014   9.670  0.1388 -0.0780  0.0584
  286loPI    C2 4562  10.440   3.794  10.002 -0.0765 -0.0463  0.0566
  286loPI    C3 4563  10.586   4.166  10.024  0.3065 -0.1920  0.0570
  286loPI   PO4 4564  10.250   3.989   9.520  0.1610  0.2508 -0.1935
  286loPI   GL1 4565  10.156   4.175   9.159 -0.1937  0.0483 -0.2394
  286loPI   GL2 4566  10.079   4.561   9.126  0.0944  0.1285  0.3472
  286loPI   C1A 4567   9.833   3.993   8.970 -0.0207  0.1298  0.0353
  286loPI   C2A 4568   9.771   3.947   8.562  0.1676  0.2477 -0.0356
  286loPI   C3A 4569   9.713   4.099   8.128  0.1700  0.0271  0.2058
  286loPI   C4A 4570   9.438   3.933   7.804  0.0204  0.0384 -0.1161
  286loPI   C5A 4571   8.919   3.870   7.666  0.0406  0.1816 -0.2035
  286loPI   C6A 4572   8.586   3.622   7.486 -0.0539 -0.1508  0.0713
  286loPI   C1B 4573  10.068   4.668   8.610  0.2554 -0.5896  0.2992
  286loPI   C2B 4574   9.968   4.729   8.142 -0.0379  0.0465  0.3303
  286loPI   C3B 4575   9.729   4.830   7.772  0.1600 -0.3408  0.1893
  286loPI   C4B 4576   9.519   4.658   7.446 -0.1533  0.1469  0.4814
  287loPI    C1 4577  16.150   6.066  10.026 -0.0369 -0.1607  0.2335
  287loPI    C2 4578  15.948   6.342  10.232 -0.0311  0.0016  0.0248
  287loPI    C3 4579  16.243   6.137  10.408 -0.0085  0.1568  0.1699
  287loPI   PO4 4580  16.316   6.012   9.771 -0.0843 -0.2048  0.1707
  287loPI   GL1 4581  16.341   5.779   9.457  0.3229  0.1586  0.0843
  287loPI   GL2 4582  16.296   6.067   9.230 -0.1332 -0.1927  0.2548
  287loPI   C1A 4583  16.367   5.617   9.048 -0.0431 -0.0177 -0.1669
  287loPI   C2A 4584  16.107   5.450   8.778  0.2192 -0.2405  0.2346
  287loPI   C3A 4585  15.917   5.270   8.375 -0.2446  0.1195 -0.2082
  287loPI   C4A 4586  15.512   5.365   8.149 -0.1492 -0.0526 -0.2731
  287loPI   C5A 4587  15.210   5.207   7.771  0.0503  0.1563  0.1712
  287loPI   C6A 4588  15.300   5.093   7.367 -0.2044  0.1812  0.4326
  287loPI   C1B 4589  16.113   5.999   8.853 -0.0550 -0.0269  0.1373
  287loPI   C2B 4590  15.871   6.001   8.522  0.0268  0.1963  0.0346
  287loPI   C3B 4591  15.531   6.252   8.396  0.3099 -0.2951  0.4677
  287loPI   C4B 4592  15.310   6.742   8.437  0.4194  0.1745 -0.2239
  288loPI    C1 4593  10.339   9.344  10.579  0.1185 -0.3690  0.0901
  288loPI    C2 4594  10.317   9.133  10.917  0.2048 -0.0916  0.2723
  288loPI    C3 4595  10.045   9.078  10.630  0.1295 -0.3279  0.3858
  288loPI   PO4 4596  10.298   9.684  10.551 -0.0714 -0.1491 -0.1975
  288loPI   GL1 4597  10.246   9.900  10.197  0.0005 -0.2121 -0.2258
  288loPI   GL2 4598   9.880   9.923  10.176  0.4401 -0.3443  0.0851
  288loPI   C1A 4599  10.561  10.038   9.940  0.5377  0.2071  0.1546
  288loPI   C2A 4600  10.733  10.058   9.497 -0.0022  0.1296 -0.1295
  288loPI   C3A 4601  10.754   9.936   9.084 -0.1220 -0.0588 -0.0908
  288loPI   C4A 4602  10.883   9.550   8.841  0.1118 -0.0130 -0.1680
  288loPI   C5A 4603  10.795   9.130   8.880 -0.2621  0.2066  0.1789
  288loPI   C6A 4604  10.638   9.053   9.351  0.1892 -0.4215  0.0271
  288loPI   C1B 4605   9.963   9.700   9.815  0.0539 -0.0565 -0.0280
  288loPI   C2B 4606   9.924   9.784   9.376  0.0275  0.1171  0.0320
  288loPI   C3B 4607   9.952   9.974   8.967  0.0212 -0.2053  0.1020
  288loPI   C4B 4608  10.081  10.275   8.670 -0.4387  0.1242  0.3187
  289loPI    C1 4609   1.184  10.846   9.688 -0.2073 -0.0441 -0.2658
  289loPI    C2 4610   0.816  10.709   9.763 -0.1469 -0.0898 -0.0468
  289loPI    C3 4611   1.062  10.797  10.066  0.1567 -0.4220 -0.1895
  289loPI   PO4 4612   1.265  10.702   9.471 -0.1492  0.2612  0.0168
  289loPI   GL1 4613   1.414  10.793   9.101  0.1005  0.1481 -0.1068
  289loPI   GL2 4614   1.485  11.142   9.068  0.1662  0.0171  0.2365
  289loPI   C1A 4615   1.401  10.915   8.685  0.4031 -0.0441 -0.1891
  289loPI   C2A 4616   1.432  10.959   8.222  0.3320 -0.1628  0.2877
  289loPI   C3A 4617   1.387  10.977   7.733 -0.1457  0.1486  0.0055
  289loPI   C4A 4618   1.579  10.679   7.407  0.1134 -0.3756 -0.1597
  289loPI   C5A 4619   1.657  10.618   6.994 -0.1234 -0.1990  0.0518
  289loPI   C6A 4620   1.765  10.289   6.694 -0.1529 -0.3354  0.0797
  289loPI   C1B 4621   1.360  11.463   8.727  0.3137 -0.3189  0.2067
  289loPI   C2B 4622   1.407  11.644   8.296  0.0808 -0.0152 -0.1395
  289loPI   C3B 4623   1.455  11.770   7.896  0.3418  0.1287  0.0610
  289loPI   C4B 4624   1.814  11.693   7.662  0.0436  0.0097  0.1372
  290loPI    C1 4625   8.705  16.502  10.031 -0.0076 -0.0175 -0.2265
  290loPI    C2 4626   8.642  16.824  10.260  0.3487 -0.3164  0.3131
  290loPI    C3 4627   8.431  16.490  10.322  0.1662 -0.2784 -0.0702
  290loPI   PO4 4628   8.664  16.636   9.727  0.2430  0.0570 -0.2201
  290loPI   GL1 4629   8.964  16.659   9.402 -0.1691  0.1522 -0.1112
  290loPI   GL2 4630   8.895  16.965   9.472 -0.0920 -0.0322  0.0994
  290loPI   C1A 4631   8.656  16.728   9.082 -0.3150 -0.0933  0.0993
  290loPI   C2A 4632   8.788  16.736   8.632  0.2462 -0.1401 -0.2511
  290loPI   C3A 4633   8.457  16.541   8.354  0.2191  0.2147 -0.2404
  290loPI   C4A 4634   8.409  16.375   7.991  0.2015 -0.2616  0.0749
  290loPI   C5A 4635   8.242  16.163   7.681  0.1841 -0.1333 -0.0431
  290loPI   C6A 4636   7.857  15.933   7.570 -0.0533 -0.2169 -0.1672
  290loPI   C1B 4637   9.211  17.008   9.134  0.2876 -0.2254 -0.2794
  290loPI   C2B 4638   9.122  17.179   8.670  0.1377 -0.2301  0.0268
  290loPI   C3B 4639   9.373  17.452   8.575 -0.1687 -0.1932  0.0327
  290loPI   C4B 4640   9.439  17.871   8.536 -0.0030 -0.3742 -0.0931
  291loPI    C1 4641  11.462   3.871   9.895  0.2164 -0.0209 -0.1258
  291loPI    C2 4642  11.665   4.028  10.202 -0.1914  0.2343  0.0213
  291loPI    C3 4643  11.664   3.632  10.144  0.0297  0.1989  0.2450
  291loPI   PO4 4644  11.511   4.097   9.672 -0.1983  0.3163  0.1130
  291loPI   GL1 4645  11.417   4.469   9.500  0.2835 -0.0430  0.0825
  291loPI   GL2 4646  11.702   4.433   9.438 -0.2379 -0.0187 -0.0695
  291loPI   C1A 4647  11.192   4.620   9.116  0.1688  0.0406 -0.4996
  291loPI   C2A 4648  10.995   4.753   8.759 -0.0740 -0.2011  0.1900
  291loPI   C3A 4649  11.068   5.116   8.537  0.1095 -0.2811 -0.3939
  291loPI   C4A 4650  10.904   5.150   8.254 -0.0684 -0.0091  0.1578
  291loPI   C5A 4651  11.040   5.446   7.830 -0.1194  0.3639 -0.2007
  291loPI   C6A 4652  11.428   5.342   7.534 -0.2098 -0.1577  0.3490
  291loPI   C1B 4653  11.679   4.469   9.013  0.2221 -0.0110  0.0476
  291loPI   C2B 4654  11.469   4.508   8.672  0.0398  0.2242 -0.1390
  291loPI   C3B 4655  11.512   4.587   8.255 -0.0828 -0.1064  0.2016
  291loPI   C4B 4656  11.480   4.416   7.857 -0.1348  0.3095 -0.0809
  292loPI    C1 4657   3.047  17.843   9.615  0.0956 -0.0349  0.1326
  292loPI    C2 4658   3.054  18.077   9.291 -0.0408 -0.1332  0.0575
  292loPI    C3 4659   3.396  17.976   9.472  0.0209  0.1031  0.0760
  292loPI   PO4 4660   2.848  17.644   9.585 -0.0142 -0.0966  0.1751
  292loPI   GL1 4661   2.919  17.508   9.136  0.0234  0.0216  0.1695
  292loPI   GL2 4662   3.327  17.530   9.252 -0.4284  0.1602  0.0320
  292loPI   C1A 4663   3.100  17.794   8.882  0.1517 -0.0254 -0.0475
  292loPI   C2A 4664   3.169  17.934   8.459  0.0334  0.1180  0.1868
  292loPI   C3A 4665   3.162  18.009   8.022 -0.2507 -0.1794 -0.0171
  292loPI   C4A 4666   3.020  18.026   7.610 -0.3378  0.1594  0.1184
  292loPI   C5A 4667   3.063  18.292   7.330 -0.0039  0.0236  0.3818
  292loPI   C6A 4668   2.941  18.598   7.053 -0.0878  0.3224 -0.1397
  292loPI   C1B 4669   3.472  17.458   8.828 -0.1961  0.0848  0.0062
  292loPI   C2B 4670   3.424  17.506   8.416 -0.0950 -0.0387 -0.1442
  292loPI   C3B 4671   3.202  17.487   8.028  0.0738 -0.2509 -0.0001
  292loPI   C4B 4672   3.387  17.685   7.750 -0.1459  0.1382  0.1152
  293loPI    C1 4673  18.299  16.418  10.541  0.2006 -0.0200  0.1398
  293loPI    C2 4674  18.418  16.371  10.921  0.2118 -0.2778  0.1062
  293loPI    C3 4675  18.148  16.121  10.763  0.0047 -0.0082  0.0242
  293loPI   PO4 4676  18.067  16.622  10.474 -0.1836  0.1434  0.1617
  293loPI   GL1 4677  17.932  16.980  10.202  0.3086  0.2638  0.0599
  293loPI   GL2 4678  18.010  17.322  10.158 -0.5669 -0.0534 -0.0985
  293loPI   C1A 4679  17.993  16.790   9.777 -0.0390 -0.1048  0.0161
  293loPI   C2A 4680  18.161  16.853   9.410  0.0455  0.1022 -0.2672
  293loPI   C3A 4681  18.153  16.588   9.035 -0.3873  0.0398  0.2062
  293loPI   C4A 4682  18.243  16.327   8.750 -0.1118 -0.1276  0.1756
  293loPI   C5A 4683  17.952  15.947   8.534  0.1592 -0.0521  0.3684
  293loPI   C6A 4684  17.975  15.847   8.108 -0.0458 -0.2690 -0.0249
  293loPI   C1B 4685  18.020  17.274   9.751  0.1227  0.2212  0.0561
  293loPI   C2B 4686  17.754  17.439   9.368  0.1162 -0.3041  0.1793
  293loPI   C3B 4687  17.708  17.253   8.956  0.2782 -0.0669 -0.0311
  293loPI   C4B 4688  17.569  17.262   8.609 -0.3510  0.1531 -0.1877
  294loPI    C1 4689   3.905   3.327   9.909 -0.0990  0.0171  0.0864
  294loPI    C2 4690   4.235   3.106   9.950 -0.0909 -0.0644 -0.3624
  294loPI    C3 4691   3.917   3.036  10.183  0.2189  0.0486  0.1093
  294loPI   PO4 4692   3.866   3.376   9.655 -0.0236 -0.0523  0.0996
  294loPI   GL1 4693   4.021   3.750   9.298 -0.2333  0.3810  0.2378
  294loPI   GL2 4694   3.862   3.517   9.104  0.0076  0.0360 -0.2954
  294loPI   C1A 4695   4.261   3.730   8.856 -0.2188  0.0754 -0.2700
  294loPI   C2A 4696   4.435   3.562   8.573  0.0827 -0.1990  0.0384
  294loPI   C3A 4697   4.692   3.447   8.275 -0.1825  0.5190 -0.0446
  294loPI   C4A 4698   4.857   3.214   7.966  0.1164 -0.1059  0.0447
  294loPI   C5A 4699   4.715   2.905   7.705  0.0000 -0.0322  0.1290
  294loPI   C6A 4700   4.390   3.064   7.424 -0.2152 -0.2113  0.1923
  294loPI   C1B 4701   3.702   3.379   8.738 -0.1279 -0.3111 -0.3122
  294loPI   C2B 4702   3.810   3.239   8.372  0.3058 -0.0172  0.4188
  294loPI   C3B 4703   4.200   3.260   8.265  0.1536 -0.0272 -0.2878
  294loPI   C4B 4704   4.386   3.184   7.975 -0.1417 -0.1295  0.0631
  295loPI    C1 4705   2.912   4.245   9.927  0.2733  0.0333 -0.3716
  295loPI    C2 4706   3.092   3.923  10.080 -0.1139 -0.0233 -0.0158
  295loPI    C3 4707   3.295   4.265  10.040  0.2281 -0.2367 -0.1600
  295loPI   PO4 4708   2.801   4.126   9.632 -0.4326  0.0452 -0.0638
  295loPI   GL1 4709   2.503   4.250   9.272 -0.0302  0.3547 -0.0498
  295loPI   GL2 4710   2.233   4.171   9.157  0.4380 -0.0505  0.1652
  295loPI   C1A 4711   2.539   4.306   8.799 -0.3125 -0.3242 -0.1969
  295loPI   C2A 4712   2.251   4.403   8.493 -0.0346  0.1607 -0.3297
  295loPI   C3A 4713   2.208   4.456   8.054  0.2517 -0.0968  0.3154
  295loPI   C4A 4714   2.020   4.471   7.602  0.0888  0.2633 -0.0287
  295loPI   C5A 4715   1.945   4.713   7.169  0.1054  0.1348 -0.1914
  295loPI   C6A 4716   1.717   5.131   7.015 -0.0941  0.1817  0.1508
  295loPI   C1B 4717   2.139   4.027   8.825 -0.0851  0.1415 -0.1736
  295loPI   C2B 4718   2.084   3.768   8.416 -0.3868 -0.1876 -0.0258
  295loPI   C3B 4719   1.965   3.499   8.039 -0.1556 -0.0927  0.0602
  295loPI   C4B 4720   1.660   3.583   7.684 -0.2236  0.1761 -0.1767
  296loPI    C1 4721   8.257   1.971   9.693 -0.1389 -0.0446  0.0169
  296loPI    C2 4722   7.886   2.117   9.724 -0.0338  0.2672 -0.1515
  296loPI    C3 4723   8.178   2.263   9.956  0.0388  0.2102 -0.2066
  296loPI   PO4 4724   8.290   1.712   9.519  0.0805 -0.0515  0.0359
  296loPI   GL1 4725   8.467   1.819   9.171 -0.0117 -0.0704  0.2788
  296loPI   GL2 4726   8.573   2.094   9.225  0.1612  0.1636  0.1592
  296loPI   C1A 4727   8.491   1.836   8.781 -0.1592  0.1109  0.0727
  296loPI   C2A 4728   8.512   1.775   8.477  0.1475  0.3696 -0.0315
  296loPI   C3A 4729   8.495   2.106   8.263  0.1267 -0.1253  0.2801
  296loPI   C4A 4730   8.626   2.561   8.159 -0.2842  0.4639 -0.0607
  296loPI   C5A 4731   8.265   2.603   7.831  0.2850 -0.0514  0.1749
  296loPI   C6A 4732   8.012   2.261   7.622  0.0930 -0.2089  0.4685
  296loPI   C1B 4733   8.687   2.315   8.787  0.0635  0.1337  0.1033
  296loPI   C2B 4734   8.856   2.615   8.558 -0.2536  0.0095 -0.0158
  296loPI   C3B 4735   9.190   2.562   8.474  0.0257 -0.1193  0.0216
  296loPI   C4B 4736   9.500   2.396   8.557  0.2241  0.0856 -0.2385
  297loPI    C1 4737   2.353   9.258  10.101 -0.2786  0.0359  0.0704
  297loPI    C2 4738   2.188   9.535  10.338 -0.1298  0.1179  0.0796
  297loPI    C3 4739   2.405   9.238  10.497 -0.0071  0.1881  0.0451
  297loPI   PO4 4740   2.464   9.392   9.931  0.0032  0.1826 -0.1552
  297loPI   GL1 4741   2.450   9.377   9.475 -0.3105  0.2022 -0.1456
  297loPI   GL2 4742   2.416   9.683   9.472  0.0506  0.0729 -0.0696
  297loPI   C1A 4743   2.600   9.253   9.074 -0.2068 -0.3870  0.0209
  297loPI   C2A 4744   2.579   9.233   8.602  0.0939  0.0275  0.0321
  297loPI   C3A 4745   2.884   9.200   8.277 -0.2760 -0.1224 -0.0046
  297loPI   C4A 4746   3.187   9.183   8.074  0.0094  0.0828  0.1142
  297loPI   C5A 4747   3.443   9.224   7.689 -0.0899 -0.1551  0.2926
  297loPI   C6A 4748   3.659   9.134   7.240  0.0252 -0.1916 -0.0323
  297loPI   C1B 4749   2.544   9.749   8.908 -0.1968 -0.0431  0.2192
  297loPI   C2B 4750   2.296   9.697   8.539  0.0092  0.1794  0.2676
  297loPI   C3B 4751   2.271   9.357   8.206  0.0097  0.3780 -0.2163
  297loPI   C4B 4752   2.305   9.324   7.754 -0.1925 -0.0968  0.0361
  298loPI    C1 4753   2.440   1.001   9.724  0.2879 -0.0314 -0.1030
  298loPI    C2 4754   2.462   1.375   9.864 -0.2427 -0.1000  0.1908
  298loPI    C3 4755   2.543   1.065  10.105 -0.0057 -0.1854  0.0057
  298loPI   PO4 4756   2.458   1.010   9.430  0.2155  0.2116 -0.0492
  298loPI   GL1 4757   2.552   0.930   9.064 -0.1531  0.0670 -0.1926
  298loPI   GL2 4758   2.867   0.983   8.975  0.0815 -0.1872 -0.2295
  298loPI   C1A 4759   2.481   0.901   8.605  0.3300 -0.4229  0.3112
  298loPI   C2A 4760   2.423   0.901   8.181  0.2675  0.0972 -0.0099
  298loPI   C3A 4761   2.258   1.084   7.764 -0.0754  0.0002 -0.0929
  298loPI   C4A 4762   2.366   0.820   7.412 -0.3759 -0.1261 -0.0606
  298loPI   C5A 4763   2.400   0.761   6.921 -0.2451  0.0513  0.1511
  298loPI   C6A 4764   2.333   0.352   6.613 -0.0134  0.2544 -0.3703
  298loPI   C1B 4765   2.971   0.790   8.638  0.2942 -0.0109 -0.1984
  298loPI   C2B 4766   2.981   1.009   8.267  0.2068 -0.0392  0.3282
  298loPI   C3B 4767   2.931   0.817   7.889 -0.0475  0.1792  0.0211
  298loPI   C4B 4768   3.145   0.458   7.587  0.4726 -0.0725  0.2291
  299loPI    C1 4769   7.942  11.029  10.246  0.0488  0.0855 -0.1271
  299loPI    C2 4770   7.662  10.752  10.175 -0.0595  0.1758 -0.0548
  299loPI    C3 4771   8.011  10.646  10.339 -0.0627  0.0675 -0.1174
  299loPI   PO4 4772   7.733  11.269  10.229  0.1261 -0.0305  0.3981
  299loPI   GL1 4773   7.784  11.509   9.771  0.0893  0.0644  0.1831
  299loPI   GL2 4774   7.782  11.135   9.717 -0.1948  0.1602  0.0876
  299loPI   C1A 4775   7.984  11.523   9.370 -0.0114  0.2857  0.0577
  299loPI   C2A 4776   8.039  11.380   8.983  0.0272 -0.3886  0.0748
  299loPI   C3A 4777   8.129  11.335   8.580 -0.2271 -0.1302  0.3286
  299loPI   C4A 4778   8.333  11.301   8.253 -0.0031  0.1959 -0.1773
  299loPI   C5A 4779   8.573  11.024   8.025  0.1534 -0.0695 -0.0361
  299loPI   C6A 4780   8.965  10.875   7.891  0.2578  0.2445  0.1861
  299loPI   C1B 4781   7.809  10.930   9.250 -0.1164  0.0063 -0.0669
  299loPI   C2B 4782   7.878  10.971   8.856 -0.0811  0.1608 -0.2216
  299loPI   C3B 4783   7.746  10.705   8.498 -0.1433  0.1276 -0.1684
  299loPI   C4B 4784   7.443  10.765   8.172  0.0376  0.2631 -0.2584
  300loPI    C1 4785   3.153   2.966   9.552  0.2359  0.0406  0.2372
  300loPI    C2 4786   2.828   3.160   9.423  0.3836  0.1844  0.0755
  300loPI    C3 4787   2.874   3.083   9.813  0.1885  0.2228  0.1069
  300loPI   PO4 4788   3.155   2.810   9.482  0.1831  0.0006 -0.2907
  300loPI   GL1 4789   3.153   2.706   9.014 -0.2261  0.3047 -0.2781
  300loPI   GL2 4790   3.187   3.092   9.041  0.2123  0.1054  0.0018
  300loPI   C1A 4791   3.579   2.836   8.814  0.0045 -0.3445  0.2091
  300loPI   C2A 4792   3.650   2.769   8.459  0.1083  0.0827 -0.2713
  300loPI   C3A 4793   3.891   2.798   8.173 -0.2030  0.5006  0.2877
  300loPI   C4A 4794   4.135   2.772   7.695  0.1696  0.2987 -0.1158
  300loPI   C5A 4795   4.426   2.521   7.480  0.2238  0.1417  0.1351
  300loPI   C6A 4796   4.884   2.377   7.593  0.2085 -0.1802  0.4176
  300loPI   C1B 4797   3.274   3.103   8.559  0.1905  0.1628 -0.1179
  300loPI   C2B 4798   3.321   3.147   8.164  0.1567  0.2186  0.0021
  300loPI   C3B 4799   3.402   3.338   7.755  0.1258 -0.1643 -0.2271
  300loPI   C4B 4800   3.582   3.566   7.535  0.0603 -0.1427  0.0931
  301loPI    C1 4801  18.618   4.793   9.906 -0.3343  0.0406 -0.1756
  301loPI    C2 4802  18.439   4.494  10.102  0.0479 -0.0640  0.0238
  301loPI    C3 4803  18.289   4.864  10.122 -0.1370 -0.1465  0.1969
  301loPI   PO4 4804  18.754   4.673   9.717 -0.0496  0.0863 -0.2141
  301loPI   GL1 4805  18.937   4.797   9.226 -0.0982 -0.2371  0.2889
  301loPI   GL2 4806  19.114   4.627   9.385 -0.2067  0.0867 -0.2292
  301loPI   C1A 4807  18.813   4.735   8.838  0.2396  0.0165  0.0257
  301loPI   C2A 4808  18.795   4.775   8.417 -0.2324  0.2005  0.0207
  301loPI   C3A 4809  19.070   4.480   8.051 -0.0860  0.1648 -0.1530
  301loPI   C4A 4810  19.128   4.217   7.817 -0.3694  0.0864  0.0944
  301loPI   C5A 4811  19.447   3.949   7.689 -0.1769 -0.0504 -0.2967
  301loPI   C6A 4812  19.604   3.649   7.328 -0.1175  0.1495  0.2574
  301loPI   C1B 4813  19.086   4.360   8.960 -0.1941  0.2935 -0.3653
  301loPI   C2B 4814  18.776   4.240   8.519 -0.2229 -0.2234  0.3310
  301loPI   C3B 4815  18.656   4.271   8.122 -0.1784  0.1045 -0.0449
  301loPI   C4B 4816  18.561   4.159   7.848 -0.3593 -0.2287 -0.0333
  302loPI    C1 4817   2.004  15.983  10.294  0.1660  0.0119 -0.1524
  302loPI    C2 4818   2.233  15.669  10.388 -0.0587 -0.1045  0.0156
  302loPI    C3 4819   1.836  15.649  10.437 -0.0907  0.1498 -0.1255
  302loPI   PO4 4820   2.064  16.072  10.009  0.1814 -0.1210  0.0090
  302loPI   GL1 4821   2.138  16.130   9.564 -0.1163  0.1704  0.1350
  302loPI   GL2 4822   1.888  15.837   9.605 -0.0824  0.3895  0.1642
  302loPI   C1A 4823   2.149  16.128   9.147 -0.2449  0.1363  0.0294
  302loPI   C2A 4824   2.164  15.959   8.849 -0.3392 -0.1431  0.1897
  302loPI   C3A 4825   2.051  15.744   8.611  0.1808 -0.3075 -0.0640
  302loPI   C4A 4826   1.867  15.448   8.261  0.0680  0.1351  0.0616
  302loPI   C5A 4827   1.530  15.277   8.272  0.0716 -0.4394 -0.1846
  302loPI   C6A 4828   1.144  15.148   8.214  0.0387 -0.0447  0.0009
  302loPI   C1B 4829   1.951  15.634   9.095 -0.0004 -0.0629 -0.1103
  302loPI   C2B 4830   1.602  15.504   8.711 -0.1466  0.3062 -0.3474
  302loPI   C3B 4831   1.292  15.215   8.707 -0.4114  0.2955  0.1016
  302loPI   C4B 4832   0.873  15.289   8.759 -0.0620  0.2553 -0.0323
  303loPI    C1 4833  17.541   5.521  10.486  0.1741 -0.0214  0.0128
  303loPI    C2 4834  17.763   5.830  10.609  0.0400  0.0751  0.0149
  303loPI    C3 4835  17.819   5.467  10.769  0.0073  0.1564  0.2138
  303loPI   PO4 4836  17.387   5.546  10.114 -0.3252 -0.0559 -0.4415
  303loPI   GL1 4837  17.354   5.365   9.649 -0.0391 -0.0292  0.0779
  303loPI   GL2 4838  17.429   5.014   9.792 -0.1636  0.1710 -0.3738
  303loPI   C1A 4839  17.082   5.029   9.313 -0.1988  0.2459 -0.1475
  303loPI   C2A 4840  17.036   5.004   8.878 -0.1242 -0.1190  0.0508
  303loPI   C3A 4841  16.942   4.859   8.438 -0.0540  0.3266  0.1050
  303loPI   C4A 4842  16.702   4.698   8.209  0.0031  0.0049  0.0189
  303loPI   C5A 4843  16.551   4.575   7.835  0.3533  0.0252  0.0688
  303loPI   C6A 4844  16.496   4.956   7.494 -0.2358  0.0223  0.1510
  303loPI   C1B 4845  17.516   4.858   9.465  0.0476 -0.0350  0.0071
  303loPI   C2B 4846  17.561   4.926   9.009 -0.3076 -0.0424 -0.4304
  303loPI   C3B 4847  17.406   4.789   8.573 -0.2439  0.1269  0.1324
  303loPI   C4B 4848  17.599   4.563   8.165 -0.0540 -0.2459 -0.0588
  304loPI    C1 4849  14.472   6.491   9.880 -0.1559 -0.0628 -0.2250
  304loPI    C2 4850  14.678   6.282  10.151 -0.1360  0.1531 -0.0717
  304loPI    C3 4851  14.658   6.681  10.178 -0.3355  0.1570 -0.2496
  304loPI   PO4 4852  14.599   6.313   9.649 -0.0082  0.1698  0.2057
  304loPI   GL1 4853  14.572   6.110   9.241 -0.2656  0.2390  0.1275
  304loPI   GL2 4854  14.409   6.127   9.088  0.1555  0.2205 -0.0644
  304loPI   C1A 4855  14.724   6.126   8.719  0.3137  0.1391  0.0521
  304loPI   C2A 4856  14.566   6.108   8.436  0.1242  0.0479 -0.2192
  304loPI   C3A 4857  14.579   6.319   8.097 -0.1983  0.3232  0.4932
  304loPI   C4A 4858  14.730   6.423   7.767  0.2634 -0.4074 -0.0929
  304loPI   C5A 4859  14.595   6.729   7.365  0.1596  0.1317 -0.0100
  304loPI   C6A 4860  14.182   6.826   7.130  0.3464 -0.1615  0.1021
  304loPI   C1B 4861  14.192   6.001   8.802 -0.1937 -0.0137 -0.1186
  304loPI   C2B 4862  14.094   5.991   8.335 -0.0893  0.3954  0.0360
  304loPI   C3B 4863  14.419   5.836   8.035 -0.2825 -0.0019  0.1626
  304loPI   C4B 4864  14.555   5.846   7.641  0.2932  0.0840 -0.2271
  305loPI    C1 4865  18.557  13.138  10.308  0.1367  0.1272  0.1481
  305loPI    C2 4866  18.359  13.382  10.556 -0.0154 -0.2554  0.4129
  305loPI    C3 4867  18.714  13.231  10.664  0.2197  0.0762  0.1252
  305loPI   PO4 4868  18.425  12.929  10.241 -0.1042 -0.0834 -0.0758
  305loPI   GL1 4869  18.307  12.887   9.771 -0.4169 -0.5067 -0.0844
  305loPI   GL2 4870  17.938  12.737   9.647 -0.0932  0.4528  0.0934
  305loPI   C1A 4871  18.300  12.837   9.338 -0.0153 -0.0894  0.2625
  305loPI   C2A 4872  18.371  12.568   9.026  0.1776  0.6257 -0.0629
  305loPI   C3A 4873  18.551  12.325   8.627 -0.3409 -0.2205 -0.0472
  305loPI   C4A 4874  18.641  12.099   8.173  0.1693  0.2174 -0.5546
  305loPI   C5A 4875  18.655  11.859   7.862  0.0810 -0.2041  0.1830
  305loPI   C6A 4876  18.385  11.707   7.618 -0.2772  0.0725 -0.0348
  305loPI   C1B 4877  17.629  12.826   9.309  0.0642 -0.0602  0.0166
  305loPI   C2B 4878  17.572  13.158   9.021  0.2502  0.3049  0.2249
  305loPI   C3B 4879  17.641  13.189   8.522  0.1639 -0.2045  0.0175
  305loPI   C4B 4880  17.549  13.191   8.098  0.2342  0.0398  0.0735
  306loPI    C1 4881   3.416   9.477   9.663  0.2273  0.1300  0.2218
  306loPI    C2 4882   3.519   9.096   9.733 -0.1282 -0.0467 -0.1741
  306loPI    C3 4883   3.316   9.303  10.009 -0.1628 -0.2296 -0.0607
  306loPI   PO4 4884   3.416   9.517   9.466  0.4401  0.2647  0.0612
  306loPI   GL1 4885   3.305   9.337   9.196 -0.0571 -0.2748  0.2445
  306loPI   GL2 4886   3.286   9.048   9.276 -0.0507  0.5701  0.1039
  306loPI   C1A 4887   3.086   9.215   8.737 -0.0367 -0.2312  0.1541
  306loPI   C2A 4888   3.332   8.895   8.444  0.0781 -0.1238  0.0175
  306loPI   C3A 4889   3.397   8.727   7.957 -0.0673  0.2589  0.2054
  306loPI   C4A 4890   3.270   8.303   7.757 -0.1001 -0.3507 -0.0951
  306loPI   C5A 4891   3.214   7.839   7.688 -0.1311 -0.1084 -0.3185
  306loPI   C6A 4892   2.948   7.639   7.682  0.2852 -0.6106 -0.1321
  306loPI   C1B 4893   3.201   8.821   9.029 -0.1892  0.3272 -0.2936
  306loPI   C2B 4894   3.399   8.497   8.735 -0.0090 -0.1211  0.1868
  306loPI   C3B 4895   3.318   8.356   8.276 -0.0183 -0.1049 -0.1367
  306loPI   C4B 4896   3.639   8.047   8.033 -0.0115 -0.3086 -0.2403
  307loPI    C1 4897  13.586  14.605  10.348 -0.1853  0.0642  0.0316
  307loPI    C2 4898  13.324  14.896  10.429 -0.1831 -0.0103  0.3144
  307loPI    C3 4899  13.595  14.788  10.703  0.0802 -0.0031  0.0616
  307loPI   PO4 4900  13.385  14.433  10.232  0.3049  0.0059 -0.1340
  307loPI   GL1 4901  13.304  14.376   9.684 -0.1127 -0.0208 -0.1265
  307loPI   GL2 4902  13.025  14.609   9.507  0.1705 -0.1504  0.0577
  307loPI   C1A 4903  13.446  14.270   9.233  0.2044 -0.0023  0.2319
  307loPI   C2A 4904  13.766  14.189   8.894  0.1032  0.0931  0.4003
  307loPI   C3A 4905  13.933  14.447   8.647 -0.2269 -0.0376  0.2240
  307loPI   C4A 4906  13.814  14.630   8.157  0.0591 -0.1059 -0.2147
  307loPI   C5A 4907  13.479  14.670   7.777 -0.0615 -0.0466 -0.0998
  307loPI   C6A 4908  13.319  14.388   7.451  0.3177 -0.0953 -0.1991
  307loPI   C1B 4909  13.098  14.591   9.057 -0.2511  0.0442 -0.0844
  307loPI   C2B 4910  12.910  14.471   8.704  0.1618 -0.0355  0.1562
  307loPI   C3B 4911  12.950  14.417   8.175  0.4447  0.3263 -0.1748
  307loPI   C4B 4912  12.917  14.487   7.665 -0.0005  0.1573  0.1228
  308loPI    C1 4913   6.942  14.997   9.812  0.1475 -0.3423  0.0971
  308loPI    C2 4914   6.730  15.258  10.029  0.0101 -0.2771 -0.1126
  308loPI    C3 4915   7.010  15.033  10.205  0.1341  0.0138  0.0702
  308loPI   PO4 4916   6.817  14.865   9.641 -0.0187  0.1966 -0.1973
  308loPI   GL1 4917   6.894  14.689   9.311  0.0177 -0.4667  0.1088
  308loPI   GL2 4918   6.673  14.458   9.230  0.0621  0.1674 -0.0954
  308loPI   C1A 4919   7.122  14.944   8.994  0.1330  0.0252  0.1276
  308loPI   C2A 4920   7.145  15.155   8.653 -0.0213  0.0177 -0.0325
  308loPI   C3A 4921   7.194  15.410   8.245 -0.3271  0.1096 -0.0911
  308loPI   C4A 4922   7.255  15.202   7.746 -0.1699 -0.0725 -0.0994
  308loPI   C5A 4923   7.430  15.091   7.387  0.0345 -0.1075  0.1662
  308loPI   C6A 4924   7.711  14.837   7.162  0.0898 -0.0261 -0.0996
  308loPI   C1B 4925   6.565  14.082   8.991 -0.2750 -0.1835 -0.0700
  308loPI   C2B 4926   6.715  14.036   8.546 -0.2061 -0.1303  0.4127
  308loPI   C3B 4927   6.935  14.273   8.230  0.2743  0.1616  0.0397
  308loPI   C4B 4928   7.098  14.222   7.831 -0.0127  0.1951  0.1198
  309loPI    C1 4929  18.593   7.154   9.421  0.0941 -0.3527 -0.1479
  309loPI    C2 4930  18.315   6.867   9.442 -0.1464 -0.1141 -0.0031
  309loPI    C3 4931  18.534   6.957   9.764  0.0373 -0.2378 -0.0913
  309loPI   PO4 4932  18.590   7.263   9.216  0.2506  0.1694 -0.2664
  309loPI   GL1 4933  18.845   6.988   8.977  0.3580 -0.3158 -0.1539
  309loPI   GL2 4934  18.645   6.726   9.096  0.5250 -0.0475  0.0869
  309loPI   C1A 4935  18.880   7.121   8.616  0.4727  0.1828  0.1108
  309loPI   C2A 4936  18.849   6.927   8.285 -0.1650  0.1371 -0.1944
  309loPI   C3A 4937  18.762   6.777   7.936  0.1766 -0.1633  0.1226
  309loPI   C4A 4938  18.687   6.586   7.546  0.0162  0.1915  0.1677
  309loPI   C5A 4939  18.290   6.554   7.370  0.0567  0.1978  0.0026
  309loPI   C6A 4940  18.010   6.171   7.252  0.1545  0.1180 -0.1081
  309loPI   C1B 4941  18.877   6.606   8.656  0.0062  0.1631  0.1687
  309loPI   C2B 4942  18.963   6.482   8.282  0.0200  0.2921  0.3077
  309loPI   C3B 4943  18.970   6.233   7.841  0.1274 -0.0772  0.0428
  309loPI   C4B 4944  18.886   6.178   7.444 -0.1633 -0.1645 -0.0594
  310loPI    C1 4945  17.314  11.446  10.275  0.0526 -0.3956  0.2938
  310loPI    C2 4946  16.916  11.428  10.313  0.0093  0.0973  0.1479
  310loPI    C3 4947  17.140  11.569  10.614  0.0511  0.0553  0.1366
  310loPI   PO4 4948  17.386  11.475  10.059  0.0388 -0.2198  0.4091
  310loPI   GL1 4949  17.587  11.871   9.914 -0.0762 -0.1706  0.2738
  310loPI   GL2 4950  17.374  11.975   9.735 -0.0375  0.2974  0.2939
  310loPI   C1A 4951  17.716  12.057   9.423 -0.1868 -0.3264 -0.1446
  310loPI   C2A 4952  17.454  12.275   9.137 -0.0306 -0.1295  0.1207
  310loPI   C3A 4953  17.355  12.525   8.839  0.1722  0.2151  0.0301
  310loPI   C4A 4954  17.352  12.771   8.442  0.1620  0.1415 -0.0855
  310loPI   C5A 4955  17.301  12.729   8.113 -0.0305  0.1032 -0.0134
  310loPI   C6A 4956  17.364  12.490   7.710  0.4230  0.1792  0.2015
  310loPI   C1B 4957  17.224  11.728   9.314  0.0595  0.2359 -0.3010
  310loPI   C2B 4958  17.028  11.472   8.931  0.1920 -0.3574 -0.1542
  310loPI   C3B 4959  16.907  11.263   8.467 -0.0917  0.0481 -0.0876
  310loPI   C4B 4960  16.850  11.267   7.965  0.0536  0.0706  0.1297
  311loPI    C1 4961   4.577  10.376   9.896 -0.0816 -0.0312  0.1765
  311loPI    C2 4962   4.336  10.583  10.140 -0.0451  0.2601 -0.0303
  311loPI    C3 4963   4.180  10.326   9.876 -0.0963  0.0878  0.1651
  311loPI   PO4 4964   4.706  10.522   9.814 -0.2275  0.3326  0.1653
  311loPI   GL1 4965   4.623  10.828   9.478 -0.1213 -0.4249  0.1371
  311loPI   GL2 4966   4.813  10.595   9.296 -0.0731 -0.0823 -0.0696
  311loPI   C1A 4967   4.796  11.047   9.025  0.4125 -0.1186  0.0811
  311loPI   C2A 4968   4.699  11.078   8.636  0.0089 -0.1719  0.0024
  311loPI   C3A 4969   4.268  11.153   8.329  0.3309 -0.0498 -0.1801
  311loPI   C4A 4970   3.992  11.422   8.126 -0.2267  0.0679 -0.2650
  311loPI   C5A 4971   3.891  11.498   7.736 -0.0446  0.1717 -0.1522
  311loPI   C6A 4972   4.126  11.163   7.492  0.1098 -0.0295  0.4192
  311loPI   C1B 4973   4.892  10.584   8.877 -0.1962  0.0882 -0.2017
  311loPI   C2B 4974   4.827  10.555   8.484  0.1432 -0.0135 -0.1890
  311loPI   C3B 4975   4.878  10.179   8.133 -0.1891 -0.0166  0.1321
  311loPI   C4B 4976   4.850  10.070   7.780 -0.1029 -0.1631 -0.3480
  312loPI    C1 4977   6.176   3.311  10.000 -0.0907  0.0681  0.1398
  312loPI    C2 4978   6.125   3.695  10.098  0.0892  0.1265  0.0110
  312loPI    C3 4979   6.493   3.538  10.090  0.0416  0.0220 -0.1924
  312loPI   PO4 4980   6.012   3.351   9.695 -0.0890 -0.1483  0.0046
  312loPI   GL1 4981   6.284   3.325   9.381 -0.1507  0.0378  0.0136
  312loPI   GL2 4982   6.192   3.061   9.349  0.2358  0.0139 -0.3772
  312loPI   C1A 4983   6.491   3.493   8.991 -0.2559 -0.3261 -0.1525
  312loPI   C2A 4984   6.460   3.621   8.589 -0.2134  0.1127  0.0295
  312loPI   C3A 4985   6.493   3.735   8.138 -0.3273  0.0827  0.2088
  312loPI   C4A 4986   6.520   3.861   7.747 -0.0795 -0.2281 -0.1840
  312loPI   C5A 4987   6.227   3.790   7.538 -0.3409  0.3032  0.0212
  312loPI   C6A 4988   5.821   3.661   7.531 -0.4997  0.2205  0.1223
  312loPI   C1B 4989   6.089   3.007   8.917  0.0811  0.2531 -0.3277
  312loPI   C2B 4990   6.020   3.034   8.471 -0.0858 -0.0342  0.2566
  312loPI   C3B 4991   6.095   3.070   7.957 -0.1026 -0.2662 -0.0488
  312loPI   C4B 4992   6.376   2.881   7.541  0.2743 -0.0976  0.1952
  313loPI    C1 4993  13.913   7.819  10.089 -0.3185  0.0573 -0.0217
  313loPI    C2 4994  13.566   7.689  10.240 -0.3441  0.2389  0.0792
  313loPI    C3 4995  13.897   7.683  10.465 -0.2120 -0.2198 -0.1146
  313loPI   PO4 4996  13.860   7.931   9.932  0.0941 -0.0029  0.1863
  313loPI   GL1 4997  13.701   7.843   9.547  0.0096 -0.0020  0.3360
  313loPI   GL2 4998  13.678   7.476   9.791 -0.2916 -0.1793 -0.1592
  313loPI   C1A 4999  13.761   7.884   9.124  0.0074 -0.2657  0.2906
  313loPI   C2A 5000  13.586   7.897   8.674 -0.0855 -0.1480 -0.0718
  313loPI   C3A 5001  13.644   8.104   8.217 -0.0795 -0.1819  0.1620
  313loPI   C4A 5002  13.706   8.018   7.787 -0.2391  0.1667 -0.3282
  313loPI   C5A 5003  13.530   8.221   7.427 -0.2268  0.2071  0.3578
  313loPI   C6A 5004  13.385   8.395   7.063 -0.1021 -0.0840  0.4909
  313loPI   C1B 5005  13.426   7.472   9.438 -0.0667  0.0933 -0.1963
  313loPI   C2B 5006  13.419   7.549   8.974  0.3826 -0.2665 -0.1005
  313loPI   C3B 5007  13.089   7.625   8.545 -0.1221  0.0281 -0.1838
  313loPI   C4B 5008  13.209   7.880   8.244  0.4962  0.0501 -0.0692
  314loPI    C1 5009  17.613   8.085  10.099 -0.0230  0.1138  0.1136
  314loPI    C2 5010  17.959   7.929  10.226 -0.1039 -0.1512  0.0157
  314loPI    C3 5011  17.685   8.051  10.491  0.1283  0.2122  0.0951
  314loPI   PO4 5012  17.753   8.293   9.807 -0.2546  0.2380  0.0224
  314loPI   GL1 5013  17.652   8.361   9.310 -0.1385  0.0926  0.2028
  314loPI   GL2 5014  17.342   8.243   9.169 -0.0996 -0.0651  0.1898
  314loPI   C1A 5015  17.658   8.442   8.868  0.1037  0.0564  0.1051
  314loPI   C2A 5016  17.715   8.291   8.463  0.0409  0.1079 -0.2054
  314loPI   C3A 5017  17.678   8.213   8.076  0.0818 -0.4159  0.0894
  314loPI   C4A 5018  17.546   7.918   7.757  0.0144 -0.2284  0.0378
  314loPI   C5A 5019  17.394   7.604   7.963  0.2683  0.1814  0.2985
  314loPI   C6A 5020  17.514   7.163   7.879 -0.1389  0.2251  0.0377
  314loPI   C1B 5021  17.205   8.150   8.735  0.2544  0.0053  0.1022
  314loPI   C2B 5022  16.824   7.971   8.588  0.0036 -0.0700 -0.1878
  314loPI   C3B 5023  16.513   7.796   8.207  0.3020 -0.3032 -0.2664
  314loPI   C4B 5024  16.333   7.744   7.801 -0.1840 -0.0138 -0.1936
  315loPI    C1 5025  11.063  14.230  10.135  0.0357 -0.1290 -0.0558
  315loPI    C2 5026  11.089  14.388  10.502 -0.3406  0.0836 -0.1156
  315loPI    C3 5027  10.903  14.038  10.448  0.0825 -0.1587 -0.0499
  315loPI   PO4 5028  11.266  14.263  10.088  0.0720 -0.0793  0.0546
  315loPI   GL1 5029  11.511  14.116   9.729  0.0635 -0.1557 -0.0444
  315loPI   GL2 5030  11.715  14.350   9.886  0.1146 -0.3337  0.3782
  315loPI   C1A 5031  11.483  14.106   9.310  0.1313 -0.0974 -0.1559
  315loPI   C2A 5032  11.513  14.043   8.951  0.0366  0.3311 -0.3161
  315loPI   C3A 5033  11.565  14.026   8.560 -0.2530  0.3706 -0.3342
  315loPI   C4A 5034  11.651  14.046   8.111  0.5129 -0.2576  0.2592
  315loPI   C5A 5035  11.577  14.501   7.859  0.0037  0.1532 -0.0140
  315loPI   C6A 5036  11.252  14.641   7.635 -0.0380 -0.1443  0.0213
  315loPI   C1B 5037  11.889  14.451   9.423  0.0703 -0.4508 -0.1805
  315loPI   C2B 5038  12.001  14.332   9.006  0.0507 -0.1917  0.0299
  315loPI   C3B 5039  11.969  14.360   8.557 -0.2638 -0.0200 -0.0418
  315loPI   C4B 5040  12.083  14.406   8.220 -0.1189 -0.2296  0.0142
  316loPI    C1 5041   7.156  14.298   9.714  0.1303 -0.0469 -0.1028
  316loPI    C2 5042   7.238  14.588   9.978 -0.0699 -0.0056 -0.0841
  316loPI    C3 5043   7.267  14.660   9.585 -0.1894  0.0621 -0.0808
  316loPI   PO4 5044   7.210  14.055   9.901  0.1152  0.0423 -0.0941
  316loPI   GL1 5045   7.461  13.777   9.750 -0.1644  0.1626 -0.0588
  316loPI   GL2 5046   7.487  14.018   9.405 -0.0976  0.3790  0.1845
  316loPI   C1A 5047   7.764  13.627   9.385 -0.1967  0.2119 -0.3527
  316loPI   C2A 5048   8.039  13.801   9.101  0.1916  0.4033  0.0680
  316loPI   C3A 5049   8.136  13.728   8.752 -0.1424  0.1793 -0.0376
  316loPI   C4A 5050   8.371  13.822   8.374 -0.2855 -0.1330  0.1700
  316loPI   C5A 5051   8.558  14.059   8.150 -0.0168 -0.0050  0.1691
  316loPI   C6A 5052   8.772  14.305   7.935 -0.1346 -0.1939  0.3557
  316loPI   C1B 5053   7.480  13.910   9.011  0.0047 -0.2282  0.2217
  316loPI   C2B 5054   7.648  13.702   8.724 -0.0370 -0.0487  0.2412
  316loPI   C3B 5055   7.902  13.632   8.337  0.2276 -0.0860 -0.0216
  316loPI   C4B 5056   8.101  13.426   8.068  0.1021  0.2079 -0.2933
  317loPI    C1 5057  13.288   3.910  10.166 -0.2461  0.0428  0.0575
  317loPI    C2 5058  13.010   4.181  10.264 -0.1961  0.0888  0.0731
  317loPI    C3 5059  13.002   3.817  10.430 -0.3002  0.0594  0.0048
  317loPI   PO4 5060  13.284   3.867   9.961 -0.3149  0.2988  0.1004
  317loPI   GL1 5061  13.027   3.831   9.578  0.0597  0.1184  0.0467
  317loPI   GL2 5062  12.921   3.466   9.411  0.4561 -0.1382  0.1776
  317loPI   C1A 5063  12.960   4.102   9.251 -0.2812  0.2044  0.0830
  317loPI   C2A 5064  13.196   4.370   8.930  0.2545 -0.0731 -0.1164
  317loPI   C3A 5065  13.237   4.411   8.565 -0.3450  0.0309 -0.1170
  317loPI   C4A 5066  13.405   4.145   8.255 -0.3566  0.1256  0.1673
  317loPI   C5A 5067  13.692   3.998   8.012  0.2072 -0.0661 -0.1215
  317loPI   C6A 5068  13.661   4.104   7.657  0.1466 -0.1871  0.0518
  317loPI   C1B 5069  13.087   3.651   9.102  0.1441  0.0200 -0.1057
  317loPI   C2B 5070  12.851   3.991   8.763  0.3039  0.0817 -0.2492
  317loPI   C3B 5071  12.956   4.041   8.280  0.0637  0.1681 -0.0179
  317loPI   C4B 5072  13.077   4.223   7.913  0.1584 -0.1778 -0.3760
  318loPI    C1 5073   2.066  12.271   9.873 -0.2177  0.0640 -0.0568
  318loPI    C2 5074   1.869  12.494  10.140  0.0586  0.1205  0.1048
  318loPI    C3 5075   2.258  12.559  10.074  0.0851 -0.1542 -0.0247
  318loPI   PO4 5076   1.867  12.132   9.721  0.0316  0.0091  0.1474
  318loPI   GL1 5077   1.579  12.279   9.426 -0.0870 -0.0322 -0.1997
  318loPI   GL2 5078   1.494  12.046   9.295  0.0288 -0.1077 -0.2145
  318loPI   C1A 5079   1.710  12.639   9.193  0.0360  0.0848  0.1287
  318loPI   C2A 5080   1.717  12.761   8.795 -0.1233  0.0779  0.4703
  318loPI   C3A 5081   1.791  12.836   8.439 -0.0215  0.0392  0.0150
  318loPI   C4A 5082   1.679  12.843   8.056 -0.3275 -0.0467 -0.1776
  318loPI   C5A 5083   1.579  13.100   7.753  0.1743 -0.2495 -0.2402
  318loPI   C6A 5084   1.498  13.061   7.377 -0.1621 -0.1851  0.0959
  318loPI   C1B 5085   1.631  12.273   8.825  0.1662  0.0396 -0.1798
  318loPI   C2B 5086   1.711  12.347   8.430 -0.4304  0.2826 -0.0619
  318loPI   C3B 5087   1.803  12.233   8.033  0.0623 -0.2549 -0.0803
  318loPI   C4B 5088   2.146  12.056   7.831  0.0743  0.1004 -0.1297
  319loPI    C1 5089  11.037   9.827  10.992 -0.1550  0.1358 -0.0026
  319loPI    C2 5090  10.824   9.946  11.308 -0.1223 -0.1087  0.1140
  319loPI    C3 5091  10.997   9.586  11.308 -0.0514 -0.0766 -0.1489
  319loPI   PO4 5092  10.825   9.989  10.760  0.2696 -0.2196  0.3128
  319loPI   GL1 5093  10.839   9.971  10.358  0.0994  0.0454  0.0484
  319loPI   GL2 5094  10.856  10.304  10.209  0.0376  0.1097  0.0441
  319loPI   C1A 5095  11.211   9.976  10.126 -0.1499 -0.5629  0.3428
  319loPI   C2A 5096  11.526  10.314  10.082 -0.1079  0.3513 -0.0607
  319loPI   C3A 5097  11.704  10.731  10.003  0.1561 -0.0428  0.0726
  319loPI   C4A 5098  11.955  10.946   9.690  0.6351  0.1471 -0.2228
  319loPI   C5A 5099  12.228  11.005   9.294 -0.0112  0.1859 -0.1533
  319loPI   C6A 5100  12.198  11.275   9.038 -0.5166 -0.3789 -0.1835
  319loPI   C1B 5101  11.090  10.339   9.797  0.2743  0.4241 -0.3459
  319loPI   C2B 5102  11.370  10.585   9.637 -0.1176  0.1330 -0.0788
  319loPI   C3B 5103  11.275  10.724   9.264 -0.0846  0.3249  0.1404
  319loPI   C4B 5104  11.144  10.807   8.882 -0.2445  0.1387 -0.0843
  320loPI    C1 5105   0.030   9.384   9.604 -0.1974  0.0883 -0.3538
  320loPI    C2 5106  -0.195   9.092   9.450 -0.0739 -0.0155 -0.3395
  320loPI    C3 5107  -0.352   9.455   9.511 -0.3088 -0.1551 -0.0950
  320loPI   PO4 5108   0.220   9.392   9.500  0.0566  0.0967  0.1265
  320loPI   GL1 5109   0.305   9.582   9.089  0.0151 -0.1619 -0.2942
  320loPI   GL2 5110   0.625   9.774   8.885  0.4556 -0.1089  0.0110
  320loPI   C1A 5111   0.221   9.480   8.668  0.1140 -0.0286  0.2741
  320loPI   C2A 5112   0.452   9.200   8.315 -0.4359  0.2030  0.2928
  320loPI   C3A 5113   0.852   9.076   8.116  0.1983 -0.3727 -0.2463
  320loPI   C4A 5114   0.733   9.078   7.644 -0.0849 -0.0210  0.0750
  320loPI   C5A 5115   0.538   9.270   7.327  0.2698 -0.2154  0.1200
  320loPI   C6A 5116   0.884   9.507   7.035  0.2190 -0.2826  0.0690
  320loPI   C1B 5117   0.593   9.959   8.370  0.4249 -0.0767 -0.0760
  320loPI   C2B 5118   0.565  10.296   8.080  0.0471  0.1564  0.1524
  320loPI   C3B 5119   0.411  10.593   7.883  0.0077  0.2983 -0.2235
  320loPI   C4B 5120   0.345  11.020   7.992 -0.0636 -0.0264  0.3389
  321loPI    C1 5121  16.736  10.682   9.805  0.2074 -0.1806  0.2310
  321loPI    C2 5122  16.690  10.782  10.190  0.1167 -0.2416  0.2363
  321loPI    C3 5123  16.464  10.494  10.029  0.0934 -0.1563  0.1140
  321loPI   PO4 5124  16.724  10.934   9.619 -0.0057 -0.0797 -0.2143
  321loPI   GL1 5125  16.778  11.196   9.276 -0.0091 -0.1742  0.1502
  321loPI   GL2 5126  16.380  10.993   9.303  0.0687 -0.1737 -0.2885
  321loPI   C1A 5127  16.749  11.051   8.877  0.0032  0.0854  0.1249
  321loPI   C2A 5128  16.648  10.785   8.446 -0.1027  0.0480  0.0031
  321loPI   C3A 5129  16.607  10.633   8.037  0.0180  0.1850  0.2691
  321loPI   C4A 5130  16.964  10.393   7.721 -0.0870 -0.1022  0.0680
  321loPI   C5A 5131  17.067  10.221   7.335 -0.0354 -0.0667  0.2099
  321loPI   C6A 5132  17.249  10.176   6.924  0.1259  0.0831 -0.0384
  321loPI   C1B 5133  16.168  11.112   8.891 -0.2239 -0.0609 -0.4402
  321loPI   C2B 5134  16.037  11.003   8.405 -0.0888 -0.2129  0.2104
  321loPI   C3B 5135  16.097  10.789   7.965 -0.3348  0.2763 -0.3059
  321loPI   C4B 5136  16.030  10.583   7.570  0.3213  0.0157 -0.1493
  322loPI    C1 5137   0.112  12.537  10.051  0.2459  0.2240  0.1164
  322loPI    C2 5138   0.146  12.244  10.321  0.0258 -0.0168 -0.1108
  322loPI    C3 5139   0.073  12.619  10.440  0.0435 -0.0998  0.1683
  322loPI   PO4 5140  -0.058  12.429   9.892  0.1476  0.2514 -0.0229
  322loPI   GL1 5141  -0.278  12.415   9.509 -0.2022 -0.1098 -0.1762
  322loPI   GL2 5142  -0.518  12.253   9.546 -0.0887 -0.0729  0.0687
  322loPI   C1A 5143  -0.046  12.294   9.148  0.0389  0.0595 -0.0909
  322loPI   C2A 5144   0.281  12.570   8.872  0.0532  0.2026 -0.2118
  322loPI   C3A 5145   0.406  12.500   8.477 -0.5372  0.0173 -0.0319
  322loPI   C4A 5146   0.240  12.465   8.075 -0.2563  0.4504 -0.3882
  322loPI   C5A 5147   0.339  12.423   7.699  0.0616  0.2638  0.0866
  322loPI   C6A 5148  -0.030  12.436   7.527 -0.4112  0.1054 -0.5069
  322loPI   C1B 5149  -0.790  12.473   9.263 -0.1331  0.2491 -0.0936
  322loPI   C2B 5150  -0.844  12.361   8.839 -0.1836  0.1917 -0.2958
  322loPI   C3B 5151  -0.671  12.471   8.447 -0.0316 -0.0231  0.0287
  322loPI   C4B 5152  -0.816  12.872   8.288  0.0334 -0.0308  0.1686
  323loPI    C1 5153  17.189   2.198  10.594 -0.0319  0.1189 -0.2554
  323loPI    C2 5154  17.024   2.257  10.954 -0.2867  0.0440 -0.3574
  323loPI    C3 5155  17.166   1.896  10.856  0.0119  0.1268 -0.2424
  323loPI   PO4 5156  16.925   2.295  10.411  0.0665  0.3512  0.0421
  323loPI   GL1 5157  16.667   2.214   9.985  0.3502  0.1313  0.0292
  323loPI   GL2 5158  16.481   1.838   9.731  0.1801 -0.0959  0.3342
  323loPI   C1A 5159  16.476   2.302   9.551 -0.3338 -0.0575 -0.1750
  323loPI   C2A 5160  16.344   2.129   9.143 -0.0902  0.0324  0.4569
  323loPI   C3A 5161  16.152   2.214   8.801 -0.2220  0.1719  0.2099
  323loPI   C4A 5162  15.740   2.239   8.473 -0.0564  0.1748 -0.0444
  323loPI   C5A 5163  15.502   1.940   8.337 -0.1265  0.0387 -0.3383
  323loPI   C6A 5164  15.206   1.812   8.061 -0.3517  0.0064 -0.0001
  323loPI   C1B 5165  16.614   1.721   9.303  0.1236 -0.3664  0.0034
  323loPI   C2B 5166  16.568   1.678   8.890 -0.1614 -0.1314 -0.3593
  323loPI   C3B 5167  16.226   1.811   8.526 -0.0727  0.1374  0.0275
  323loPI   C4B 5168  15.896   1.597   8.431 -0.0911  0.3111  0.2770
  324loPI    C1 5169  15.516   6.460   9.851 -0.2626  0.0659 -0.0851
  324loPI    C2 5170  15.594   6.742  10.124 -0.0178 -0.0062 -0.0783
  324loPI    C3 5171  15.399   6.409  10.231 -0.1068  0.0583 -0.0376
  324loPI   PO4 5172  15.554   6.540   9.642 -0.2600  0.1371 -0.0525
  324loPI   GL1 5173  15.762   6.426   9.199 -0.0819 -0.1758  0.2423
  324loPI   GL2 5174  15.960   6.634   9.165  0.1692  0.1352  0.0921
  324loPI   C1A 5175  15.566   5.960   8.949  0.0609  0.2122 -0.2503
  324loPI   C2A 5176  15.576   5.526   8.670  0.1026 -0.3037  0.0520
  324loPI   C3A 5177  15.472   5.061   8.516 -0.1353  0.0827  0.1111
  324loPI   C4A 5178  15.304   4.781   8.165 -0.0953 -0.1022  0.0178
  324loPI   C5A 5179  15.090   4.506   7.887  0.0217  0.0241 -0.6466
  324loPI   C6A 5180  14.762   4.357   7.679 -0.1055 -0.1836  0.0344
  324loPI   C1B 5181  16.023   6.943   8.755 -0.2574 -0.3113  0.1991
  324loPI   C2B 5182  15.912   7.433   8.634 -0.3724  0.2016  0.2244
  324loPI   C3B 5183  15.991   7.724   8.247 -0.0093  0.0580  0.1468
  324loPI   C4B 5184  15.818   7.697   7.752  0.0984  0.0435  0.3325
  325loPI    C1 5185  16.369   5.240   9.867  0.0855 -0.1494 -0.1295
  325loPI    C2 5186  16.489   5.249  10.248 -0.0787  0.0159 -0.0798
  325loPI    C3 5187  16.545   5.568  10.014 -0.1456 -0.0178 -0.1420
  325loPI   PO4 5188  16.068   5.115   9.861  0.0833  0.2222  0.1347
  325loPI   GL1 5189  15.943   4.822   9.782  0.0755 -0.1861 -0.1636
  325loPI   GL2 5190  15.717   4.624   9.715  0.1935  0.2787  0.3198
  325loPI   C1A 5191  16.073   4.813   9.313  0.3373  0.0802 -0.0500
  325loPI   C2A 5192  16.223   4.523   9.012  0.2145 -0.2999 -0.2039
  325loPI   C3A 5193  16.329   4.518   8.566  0.1552  0.0788 -0.2903
  325loPI   C4A 5194  16.407   4.222   8.270 -0.2381 -0.0935 -0.0825
  325loPI   C5A 5195  16.525   3.836   8.022 -0.2442 -0.2034 -0.0663
  325loPI   C6A 5196  16.869   3.771   7.799 -0.0384  0.1178  0.1158
  325loPI   C1B 5197  15.681   4.507   9.343 -0.2757  0.0512  0.2050
  325loPI   C2B 5198  15.666   4.378   8.834 -0.0448 -0.0192  0.2173
  325loPI   C3B 5199  15.587   4.122   8.490  0.5367  0.2966  0.0133
  325loPI   C4B 5200  15.197   4.099   8.176 -0.1460  0.1477 -0.0138
  326loPI    C1 5201  16.131   7.814   9.844  0.2494 -0.0410 -0.1691
  326loPI    C2 5202  16.108   8.185   9.696  0.0618 -0.0857 -0.2547
  326loPI    C3 5203  16.403   8.089   9.949 -0.0538  0.2026 -0.0039
  326loPI   PO4 5204  16.251   7.680   9.613  0.0293 -0.3023 -0.1792
  326loPI   GL1 5205  16.056   7.821   9.300 -0.1464 -0.2195 -0.0741
  326loPI   GL2 5206  16.445   7.676   9.173 -0.4063  0.3647  0.1903
  326loPI   C1A 5207  16.015   7.845   8.908 -0.2301 -0.2016  0.1707
  326loPI   C2A 5208  15.744   8.062   8.588 -0.1111 -0.2540  0.0030
  326loPI   C3A 5209  15.621   8.019   8.099 -0.3932 -0.1041  0.2047
  326loPI   C4A 5210  15.358   7.810   7.842 -0.0911 -0.0371 -0.0177
  326loPI   C5A 5211  14.936   7.804   7.800  0.1429  0.1988 -0.3501
  326loPI   C6A 5212  14.560   7.693   7.478 -0.0203 -0.0735  0.1370
  326loPI   C1B 5213  16.413   7.447   8.709 -0.0264  0.3300 -0.0145
  326loPI   C2B 5214  16.326   7.374   8.237  0.0719 -0.1817 -0.1122
  326loPI   C3B 5215  16.580   7.247   7.925 -0.0174 -0.4335 -0.0388
  326loPI   C4B 5216  16.725   7.515   7.583 -0.0185  0.0011 -0.0617
  327loPI    C1 5217  11.971   5.282  10.014 -0.4100  0.0288  0.1929
  327loPI    C2 5218  12.142   4.941   9.893  0.1232  0.3839 -0.0882
  327loPI    C3 5219  12.060   4.996  10.280 -0.4500 -0.2616 -0.0986
  327loPI   PO4 5220  12.057   5.505   9.892  0.1603  0.0814 -0.3329
  327loPI   GL1 5221  12.040   5.674   9.531  0.1220  0.1810 -0.2260
  327loPI   GL2 5222  12.332   5.786   9.420 -0.0412  0.0053 -0.0810
  327loPI   C1A 5223  11.719   5.925   9.304  0.2118  0.1115 -0.6032
  327loPI   C2A 5224  11.426   6.118   9.165 -0.0567 -0.1371 -0.1338
  327loPI   C3A 5225  11.206   6.432   8.865 -0.4145 -0.0094 -0.2072
  327loPI   C4A 5226  11.139   6.762   8.486  0.0104  0.2764  0.1657
  327loPI   C5A 5227  11.383   6.970   8.194  0.1639  0.1492 -0.2603
  327loPI   C6A 5228  11.822   7.241   8.166  0.0761 -0.2592 -0.1345
  327loPI   C1B 5229  12.144   5.959   9.067  0.1411 -0.0814  0.2128
  327loPI   C2B 5230  12.175   6.049   8.720  0.1220  0.1075  0.0202
  327loPI   C3B 5231  12.102   6.321   8.380  0.3358 -0.0160  0.2446
  327loPI   C4B 5232  12.092   6.546   8.019 -0.0447 -0.2477  0.0702
  328loPI    C1 5233   3.206   1.738   9.516 -0.1663  0.0661 -0.2276
  328loPI    C2 5234   3.213   2.079   9.725 -0.0858  0.1024 -0.2889
  328loPI    C3 5235   3.254   1.729   9.913 -0.4305  0.1094 -0.1928
  328loPI   PO4 5236   3.038   1.793   9.389 -0.0973  0.3013  0.0473
  328loPI   GL1 5237   2.726   1.869   9.057  0.2721 -0.1822  0.0558
  328loPI   GL2 5238   2.391   1.872   8.950 -0.2041 -0.3777 -0.1452
  328loPI   C1A 5239   2.774   1.928   8.647  0.7316  0.2089  0.1424
  328loPI   C2A 5240   2.761   1.900   8.247 -0.0484  0.3270 -0.4174
  328loPI   C3A 5241   2.858   1.700   7.969  0.2270  0.4000 -0.2501
  328loPI   C4A 5242   2.749   1.312   7.828  0.0087  0.0737  0.1905
  328loPI   C5A 5243   2.789   1.168   7.519 -0.1969 -0.2402 -0.1970
  328loPI   C6A 5244   2.943   0.820   7.227  0.3329  0.0453  0.0265
  328loPI   C1B 5245   2.232   1.867   8.464  0.0700 -0.0437 -0.1490
  328loPI   C2B 5246   2.264   2.032   8.061 -0.0510  0.0484 -0.1093
  328loPI   C3B 5247   2.097   2.027   7.742 -0.4692 -0.1291  0.0891
  328loPI   C4B 5248   2.056   2.186   7.351  0.0942  0.0972 -0.0718
  329loPI    C1 5249  17.935  12.897  10.125 -0.0733  0.0032  0.0534
  329loPI    C2 5250  17.908  13.024  10.503  0.2150 -0.0324  0.0882
  329loPI    C3 5251  18.027  13.276  10.215  0.0183 -0.0117  0.0240
  329loPI   PO4 5252  17.602  12.739  10.127 -0.0125  0.0234  0.2754
  329loPI   GL1 5253  17.449  12.805   9.802  0.0053  0.0124 -0.2631
  329loPI   GL2 5254  17.125  12.566   9.621  0.4929  0.1644  0.1880
  329loPI   C1A 5255  17.266  13.100   9.458  0.2708 -0.0451 -0.2336
  329loPI   C2A 5256  17.030  13.203   9.192  0.1006  0.2010  0.0917
  329loPI   C3A 5257  16.929  13.049   8.791  0.1322 -0.3317  0.2857
  329loPI   C4A 5258  16.815  12.865   8.339 -0.2360  0.1210  0.0227
  329loPI   C5A 5259  16.651  12.570   7.989  0.0066 -0.3992  0.1300
  329loPI   C6A 5260  16.500  12.382   7.564  0.2443  0.0633  0.3193
  329loPI   C1B 5261  16.959  12.678   9.127 -0.0356 -0.3582 -0.0799
  329loPI   C2B 5262  16.820  12.464   8.756 -0.1216 -0.0399 -0.1465
  329loPI   C3B 5263  17.049  12.260   8.473  0.2497 -0.0674  0.1374
  329loPI   C4B 5264  17.209  12.085   8.093 -0.1904 -0.0301  0.0773
  330loPI    C1 5265  12.828  14.333  10.301 -0.0696  0.1964 -0.1471
  330loPI    C2 5266  12.687  14.360   9.928  0.2428 -0.1156 -0.2933
  330loPI    C3 5267  12.950  14.629  10.062  0.1793 -0.0402 -0.3190
  330loPI   PO4 5268  12.893  14.009  10.227 -0.2558  0.0827 -0.1562
  330loPI   GL1 5269  13.014  13.725   9.924 -0.0941 -0.0274 -0.1979
  330loPI   GL2 5270  12.975  14.012   9.730  0.0477  0.4288  0.1705
  330loPI   C1A 5271  13.141  13.458   9.593 -0.0481 -0.1801 -0.2395
  330loPI   C2A 5272  13.128  13.398   9.233  0.1776  0.0069  0.4797
  330loPI   C3A 5273  13.346  13.407   8.893  0.0566 -0.0651 -0.2269
  330loPI   C4A 5274  13.288  13.556   8.454  0.1023  0.0285  0.0080
  330loPI   C5A 5275  12.817  13.561   8.333 -0.0382  0.0997 -0.1174
  330loPI   C6A 5276  12.441  13.752   8.492 -0.3918  0.0032  0.2558
  330loPI   C1B 5277  13.154  13.914   9.339  0.1067 -0.0858 -0.1023
  330loPI   C2B 5278  13.307  13.938   8.856  0.1415  0.0054  0.5008
  330loPI   C3B 5279  13.372  14.118   8.470  0.0185  0.1339 -0.2252
  330loPI   C4B 5280  13.444  14.293   8.102  0.1730 -0.0813 -0.0099
  331loPI    C1 5281   6.360   6.166   9.674  0.1504 -0.0284 -0.1548
  331loPI    C2 5282   6.706   5.975   9.610  0.1541 -0.1246  0.1416
  331loPI    C3 5283   6.450   5.839   9.886 -0.0646  0.0189  0.0118
  331loPI   PO4 5284   6.276   6.137   9.494 -0.2239  0.2883  0.1936
  331loPI   GL1 5285   6.375   5.886   9.208 -0.2724 -0.0911  0.0325
  331loPI   GL2 5286   6.728   5.928   9.119 -0.3035  0.0451  0.1111
  331loPI   C1A 5287   6.356   6.008   8.777  0.0666  0.0910  0.1617
  331loPI   C2A 5288   6.447   6.011   8.422 -0.1484 -0.1278 -0.1749
  331loPI   C3A 5289   6.244   6.216   8.050  0.0031  0.0766 -0.0658
  331loPI   C4A 5290   6.312   6.524   7.740 -0.2459  0.3883 -0.2280
  331loPI   C5A 5291   6.522   6.944   7.585  0.1146 -0.1589 -0.0338
  331loPI   C6A 5292   6.690   7.327   7.620  0.1092  0.0540 -0.1271
  331loPI   C1B 5293   6.810   6.140   8.767  0.0199 -0.1233  0.1413
  331loPI   C2B 5294   7.023   6.142   8.319 -0.2152  0.0936  0.0541
  331loPI   C3B 5295   7.419   6.244   8.059 -0.1160  0.1722 -0.0889
  331loPI   C4B 5296   7.743   5.914   7.883  0.2421  0.3772 -0.4117
  332loPI    C1 5297   5.514   9.460  10.194  0.0760 -0.3120 -0.0178
  332loPI    C2 5298   5.232   9.189  10.277 -0.0571 -0.1799 -0.0358
  332loPI    C3 5299   5.560   9.212  10.505 -0.2459 -0.0693  0.2302
  332loPI   PO4 5300   5.420   9.443   9.884  0.0298  0.0128 -0.2313
  332loPI   GL1 5301   5.103   9.412   9.568 -0.4734  0.3234  0.0755
  332loPI   GL2 5302   4.894   9.593   9.453  0.2750 -0.0506  0.1129
  332loPI   C1A 5303   5.266   9.012   9.362 -0.0531  0.0155  0.1565
  332loPI   C2A 5304   5.465   8.819   9.063 -0.2995  0.1577 -0.0289
  332loPI   C3A 5305   5.637   8.551   8.809 -0.1524  0.1040  0.3509
  332loPI   C4A 5306   5.771   8.611   8.417  0.1571 -0.0056  0.4754
  332loPI   C5A 5307   5.882   8.606   7.975 -0.1476 -0.0342  0.1240
  332loPI   C6A 5308   5.846   8.791   7.512 -0.1988  0.0242 -0.0767
  332loPI   C1B 5309   5.167   9.697   9.177 -0.0208 -0.4953  0.1937
  332loPI   C2B 5310   5.299   9.651   8.726  0.0215  0.1699  0.0786
  332loPI   C3B 5311   5.131   9.584   8.278 -0.3887 -0.1404  0.0576
  332loPI   C4B 5312   5.190   9.686   7.870 -0.0433  0.1739 -0.0159
  333loPI    C1 5313   6.567  13.036  10.270 -0.2064 -0.0644 -0.0983
  333loPI    C2 5314   6.626  13.343  10.520 -0.2158 -0.0325 -0.1352
  333loPI    C3 5315   6.263  13.178  10.488 -0.1309 -0.2873  0.1583
  333loPI   PO4 5316   6.768  13.144  10.059 -0.0089 -0.0561  0.1003
  333loPI   GL1 5317   6.886  13.288   9.565  0.2728 -0.4732 -0.2972
  333loPI   GL2 5318   6.622  13.536   9.614  0.0822  0.0196 -0.0886
  333loPI   C1A 5319   7.001  13.136   9.106  0.2514 -0.0589 -0.0688
  333loPI   C2A 5320   6.945  13.302   8.737  0.1207 -0.5102  0.3877
  333loPI   C3A 5321   7.000  13.456   8.360 -0.3486 -0.1626 -0.4452
  333loPI   C4A 5322   7.371  13.723   8.252 -0.0574 -0.0904  0.1523
  333loPI   C5A 5323   7.582  13.888   7.937  0.0032  0.2470 -0.1227
  333loPI   C6A 5324   7.795  13.587   7.626  0.0866 -0.1857  0.1643
  333loPI   C1B 5325   6.789  13.554   9.206  0.2060 -0.0236  0.0541
  333loPI   C2B 5326   6.991  13.699   9.016 -0.0427 -0.2673 -0.3578
  333loPI   C3B 5327   7.153  13.868   8.653 -0.0916 -0.0184  0.0336
  333loPI   C4B 5328   7.384  14.185   8.493  0.1541  0.1212  0.0191
  334loPI    C1 5329  18.734  14.178  10.225  0.0263  0.3322  0.3073
  334loPI    C2 5330  18.452  14.054  10.480 -0.0908  0.0693  0.0564
  334loPI    C3 5331  18.829  14.105  10.606 -0.0124 -0.6481  0.1552
  334loPI   PO4 5332  18.560  14.161  10.018  0.0347 -0.1361  0.0946
  334loPI   GL1 5333  18.383  14.223   9.620  0.1439  0.2097  0.1284
  334loPI   GL2 5334  18.657  14.244   9.512  0.0187 -0.0729  0.2001
  334loPI   C1A 5335  18.152  14.681   9.413 -0.0982  0.1276 -0.0196
  334loPI   C2A 5336  17.850  14.892   9.086  0.1827 -0.2793  0.2561
  334loPI   C3A 5337  17.584  14.629   8.724 -0.0227  0.0646 -0.1089
  334loPI   C4A 5338  17.322  14.680   8.449 -0.1001  0.0408  0.2049
  334loPI   C5A 5339  17.095  14.499   8.047 -0.1411 -0.0449 -0.1737
  334loPI   C6A 5340  17.060  14.743   7.696  0.2940 -0.0095 -0.1169
  334loPI   C1B 5341  18.958  14.294   9.164  0.1761 -0.1221 -0.1003
  334loPI   C2B 5342  18.890  14.378   8.786  0.0568 -0.1452  0.2355
  334loPI   C3B 5343  18.690  14.401   8.398 -0.0075 -0.0580 -0.1617
  334loPI   C4B 5344  18.693  14.027   8.189 -0.1836 -0.0870 -0.1066
  335loPI    C1 5345  15.843   9.698  10.267  0.5335  0.1854 -0.0227
  335loPI    C2 5346  15.541   9.898  10.437  0.3226 -0.1586  0.0161
  335loPI    C3 5347  15.732  10.054  10.122 -0.0102 -0.0143 -0.1188
  335loPI   PO4 5348  15.843   9.339  10.182  0.3387 -0.2574 -0.0064
  335loPI   GL1 5349  15.783   9.289   9.751  0.0158 -0.1752 -0.1897
  335loPI   GL2 5350  15.497   9.148   9.573  0.1392 -0.2162  0.5039
  335loPI   C1A 5351  15.811   9.408   9.294 -0.2150  0.2584 -0.0641
  335loPI   C2A 5352  15.751   9.279   8.926  0.0473 -0.2672 -0.0997
  335loPI   C3A 5353  16.004   9.501   8.673  0.1185 -0.2648 -0.3600
  335loPI   C4A 5354  15.813   9.446   8.212 -0.0300 -0.6402  0.1082
  335loPI   C5A 5355  15.857   9.706   7.695  0.0443  0.0048 -0.2270
  335loPI   C6A 5356  16.126  10.041   7.509  0.1396 -0.0852 -0.1333
  335loPI   C1B 5357  15.282   9.234   9.179  0.0232  0.0390 -0.2236
  335loPI   C2B 5358  15.184   9.346   8.753  0.0453  0.0970  0.0302
  335loPI   C3B 5359  15.065   9.511   8.355 -0.0892  0.0054 -0.0700
  335loPI   C4B 5360  15.060   9.471   7.795  0.0950 -0.0884  0.2058
  336loPI    C1 5361   5.865  14.061  10.031  0.1249 -0.0141 -0.1324
  336loPI    C2 5362   5.661  13.757  10.193 -0.1166  0.0091 -0.3868
  336loPI    C3 5363   5.466  14.051  10.003  0.1059  0.3783 -0.0598
  336loPI   PO4 5364   6.087  13.840   9.837  0.0806 -0.0551  0.2000
  336loPI   GL1 5365   6.100  13.601   9.523  0.0686 -0.0131 -0.0224
  336loPI   GL2 5366   5.934  13.381   9.404  0.0791  0.1569  0.2182
  336loPI   C1A 5367   6.307  13.611   9.139  0.0879  0.0429 -0.3034
  336loPI   C2A 5368   6.446  13.594   8.823  0.0301  0.1632 -0.1006
  336loPI   C3A 5369   6.509  13.445   8.477 -0.2617 -0.1518 -0.0409
  336loPI   C4A 5370   6.597  13.668   8.088  0.2326 -0.0700  0.0772
  336loPI   C5A 5371   6.926  13.757   7.917 -0.1338  0.3140 -0.1073
  336loPI   C6A 5372   7.244  13.468   7.805  0.0883  0.0885  0.2485
  336loPI   C1B 5373   5.875  13.466   8.979  0.1281 -0.0263  0.2708
  336loPI   C2B 5374   5.946  13.364   8.620 -0.1744 -0.4652  0.0319
  336loPI   C3B 5375   6.053  13.435   8.253  0.1135  0.2200  0.0041
  336loPI   C4B 5376   5.971  13.335   7.768 -0.3366 -0.0672 -0.1460
  337loPI    C1 5377  17.557   0.385  10.839 -0.0498  0.1284  0.1598
  337loPI    C2 5378  17.845   0.661  10.868  0.0029  0.0924 -0.0114
  337loPI    C3 5379  17.468   0.753  10.967 -0.0001  0.2589 -0.1737
  337loPI   PO4 5380  17.465   0.229  10.600  0.1180 -0.2222  0.1613
  337loPI   GL1 5381  17.211   0.207  10.288 -0.1379  0.0361  0.0128
  337loPI   GL2 5382  17.344   0.427  10.063 -0.0391  0.0636  0.0723
  337loPI   C1A 5383  17.284  -0.003   9.815  0.2653  0.0583  0.0710
  337loPI   C2A 5384  17.195  -0.204   9.408 -0.0117 -0.0657  0.0001
  337loPI   C3A 5385  17.496  -0.287   9.033  0.0484 -0.1338 -0.0679
  337loPI   C4A 5386  17.619  -0.139   8.675  0.0171 -0.1861  0.3765
  337loPI   C5A 5387  17.949  -0.021   8.350  0.1191 -0.3513  0.1643
  337loPI   C6A 5388  18.166   0.280   8.091 -0.3269 -0.1208  0.1677
  337loPI   C1B 5389  17.087   0.420   9.667 -0.1485  0.0221 -0.2961
  337loPI   C2B 5390  17.228   0.322   9.315  0.0460 -0.0166  0.1396
  337loPI   C3B 5391  17.160   0.178   9.019  0.0323  0.0682  0.1001
  337loPI   C4B 5392  16.820   0.272   8.745 -0.0923  0.2775 -0.2298
  338loPI    C1 5393  14.440  17.751  10.645  0.1575 -0.1173  0.1299
  338loPI    C2 5394  14.225  17.688  10.977 -0.0806 -0.1853 -0.0343
  338loPI    C3 5395  14.250  18.056  10.821  0.2720 -0.0959  0.2177
  338loPI   PO4 5396  14.364  17.652  10.467 -0.3370 -0.2034 -0.0673
  338loPI   GL1 5397  14.683  17.744  10.198  0.0140 -0.1961  0.0625
  338loPI   GL2 5398  15.022  17.731  10.106  0.0090  0.0365  0.2537
  338loPI   C1A 5399  14.458  18.006   9.917 -0.1205  0.0725  0.1032
  338loPI   C2A 5400  14.670  18.099   9.516  0.0255 -0.2864  0.1713
  338loPI   C3A 5401  14.596  18.235   9.031  0.1880 -0.1414  0.0127
  338loPI   C4A 5402  14.280  18.173   8.734  0.3496  0.1658  0.1374
  338loPI   C5A 5403  13.873  17.999   8.651  0.3080 -0.4779  0.1867
  338loPI   C6A 5404  13.435  18.117   8.458 -0.0822 -0.1646 -0.1769
  338loPI   C1B 5405  14.845  17.693   9.748  0.1821  0.0563  0.2856
  338loPI   C2B 5406  14.822  17.560   9.294  0.1045 -0.0493  0.2426
  338loPI   C3B 5407  14.773  17.501   8.914  0.2085  0.4378 -0.1213
  338loPI   C4B 5408  14.852  17.394   8.569  0.0037  0.0424  0.2461
  339POPI    C1 5409   2.135   0.620   9.406  0.0349 -0.2228  0.1383
  339POPI    C2 5410   1.978   0.793   9.730  0.0109  0.3620 -0.1717
  339POPI    C3 5411   1.739   0.675   9.432  0.0725  0.2534 -0.1787
  339POPI   PO4 5412   2.257   0.382   9.476 -0.1258  0.0448 -0.0293
  339POPI   GL1 5413   2.126   0.063   9.327 -0.1560  0.1349  0.3651
  339POPI   GL2 5414   2.188  -0.070   9.099  0.1139 -0.0691 -0.0723
  339POPI   C1A 5415   1.809   0.335   8.992 -0.0322  0.0078  0.2166
  339POPI   D2A 5416   1.685   0.672   8.614 -0.4838 -0.2863 -0.2095
  339POPI   C3A 5417   2.063   0.612   8.409 -0.0762 -0.1585  0.1866
  339POPI   C4A 5418   2.261   0.409   8.099  0.0008  0.0280 -0.0390
  339POPI   C1B 5419   2.268  -0.190   8.719  0.1770  0.0125 -0.4868
  339POPI   C2B 5420   2.415  -0.015   8.263  0.1613  0.4263  0.5218
  339POPI   C3B 5421   2.346   0.050   7.730 -0.0031  0.0065 -0.2094
  339POPI   C4B 5422   2.753   0.023   7.458  0.1518 -0.1999 -0.0559
  340POPI    C1 5423   9.775  12.006  10.879 -0.0008  0.2215 -0.3116
  340POPI    C2 5424   9.386  11.962  10.961  0.1040 -0.2426 -0.0287
  340POPI    C3 5425   9.614  12.193  11.193  0.0603 -0.2202 -0.0079
  340POPI   PO4 5426   9.848  11.893  10.581  0.3995  0.0719 -0.0172
  340POPI   GL1 5427  10.253  11.757  10.353  0.0385 -0.0317 -0.1835
  340POPI   GL2 5428  10.464  11.543  10.285  0.2215  0.1086  0.1013
  340POPI   C1A 5429  10.027  11.517   9.996 -0.1913 -0.1546  0.2897
  340POPI   D2A 5430  10.028  11.681   9.627  0.1548  0.3696 -0.0602
  340POPI   C3A 5431  10.029  11.652   9.199  0.0174  0.0749  0.1284
  340POPI   C4A 5432  10.465  11.679   8.992 -0.1087  0.3278 -0.2238
  340POPI   C1B 5433  10.474  11.675   9.856 -0.0606 -0.1266 -0.1145
  340POPI   C2B 5434  10.499  11.729   9.509  0.1828 -0.2011  0.2958
  340POPI   C3B 5435  10.844  11.528   9.283 -0.2463 -0.0918 -0.1766
  340POPI   C4B 5436  11.284  11.349   9.079  0.1921  0.1953  0.0907
  341POPI    C1 5437   5.599  14.491   9.720 -0.1416  0.1207 -0.0055
  341POPI    C2 5438   5.347  14.793   9.652 -0.0837  0.1751  0.0212
  341POPI    C3 5439   5.668  14.849   9.884 -0.0282  0.1154 -0.0407
  341POPI   PO4 5440   5.390  14.302   9.578 -0.3760  0.0201  0.2900
  341POPI   GL1 5441   5.322  14.067   9.295  0.0674  0.1996  0.1467
  341POPI   GL2 5442   5.295  14.119   8.939  0.1597 -0.1119 -0.1232
  341POPI   C1A 5443   5.477  13.728   9.132  0.1622 -0.2429  0.0296
  341POPI   D2A 5444   5.492  13.714   8.704  0.0765 -0.3871 -0.0951
  341POPI   C3A 5445   5.598  13.767   8.278  0.0692  0.1035  0.1702
  341POPI   C4A 5446   5.559  13.637   7.807 -0.0973  0.0196 -0.1674
  341POPI   C1B 5447   5.348  14.109   8.437  0.3691  0.2003  0.1099
  341POPI   C2B 5448   5.315  14.048   7.952 -0.1643 -0.2727 -0.2668
  341POPI   C3B 5449   5.692  14.094   7.670  0.2028  0.1096 -0.2423
  341POPI   C4B 5450   6.086  14.194   7.704  0.2124  0.2114 -0.2507
  342POPI    C1 5451   4.497   4.289   9.691  0.0439  0.2338 -0.0351
  342POPI    C2 5452   4.497   4.610   9.931  0.2802  0.2567 -0.0626
  342POPI    C3 5453   4.729   4.295  10.017 -0.0310  0.0456  0.0230
  342POPI   PO4 5454   4.219   4.228   9.602 -0.1932 -0.0478 -0.1786
  342POPI   GL1 5455   3.877   4.227   9.268  0.2117 -0.0215 -0.1727
  342POPI   GL2 5456   4.289   4.225   9.004 -0.2036  0.0555 -0.0805
  342POPI   C1A 5457   3.702   4.034   9.014 -0.2735  0.0317  0.2488
  342POPI   D2A 5458   3.378   3.807   8.772  0.0444  0.1197  0.4458
  342POPI   C3A 5459   3.418   3.644   8.352 -0.0819  0.0987 -0.0081
  342POPI   C4A 5460   3.417   3.760   8.013  0.1896 -0.3219  0.2207
  342POPI   C1B 5461   4.619   4.288   8.728  0.0366 -0.0393  0.1516
  342POPI   C2B 5462   4.954   4.370   8.405 -0.1103  0.0791 -0.0228
  342POPI   C3B 5463   5.277   4.474   8.223 -0.3234  0.0152 -0.0285
  342POPI   C4B 5464   5.752   4.415   8.155  0.0292 -0.1593 -0.1334
  343POPI    C1 5465   0.215  17.214  10.141 -0.1824  0.0751  0.0303
  343POPI    C2 5466  -0.117  17.351  10.317 -0.1251  0.2325  0.0175
  343POPI    C3 5467   0.222  17.318  10.527 -0.1074  0.2287 -0.0118
  343POPI   PO4 5468   0.166  16.857   9.996 -0.3052  0.1695 -0.1098
  343POPI   GL1 5469  -0.058  16.842   9.595 -0.1046  0.1510  0.1038
  343POPI   GL2 5470   0.053  16.588   9.522 -0.2077  0.0087 -0.0030
  343POPI   C1A 5471  -0.015  17.082   9.192  0.1846  0.4602  0.0975
  343POPI   D2A 5472  -0.184  16.911   8.802 -0.1956 -0.1968 -0.1122
  343POPI   C3A 5473   0.092  16.867   8.429 -0.0393 -0.2685  0.3554
  343POPI   C4A 5474   0.261  17.168   8.085 -0.0178 -0.0359  0.2338
  343POPI   C1B 5475  -0.154  16.541   9.191  0.0698  0.4672  0.1234
  343POPI   C2B 5476  -0.012  16.489   8.678 -0.0511  0.1543  0.1875
  343POPI   C3B 5477   0.340  16.409   8.450 -0.2718 -0.0591 -0.0710
  343POPI   C4B 5478   0.484  16.406   8.066 -0.1193 -0.0513 -0.1022
  344POPI    C1 5479  14.977   5.094   9.981 -0.0265 -0.0132  0.3338
  344POPI    C2 5480  15.084   5.478   9.950 -0.5223  0.1341  0.3473
  344POPI    C3 5481  15.187   5.267  10.274  0.5847 -0.0393 -0.0710
  344POPI   PO4 5482  15.068   5.029   9.693 -0.0811 -0.0112  0.3184
  344POPI   GL1 5483  14.826   4.876   9.438 -0.0001 -0.1760 -0.0145
  344POPI   GL2 5484  14.846   5.056   9.243 -0.0300  0.2995 -0.0642
  344POPI   C1A 5485  14.497   4.596   9.246 -0.4618  0.1540 -0.0857
  344POPI   D2A 5486  14.294   4.157   9.124 -0.2079 -0.1511  0.0839
  344POPI   C3A 5487  13.947   4.037   8.998  0.0393 -0.0176  0.2212
  344POPI   C4A 5488  13.760   4.019   8.565  0.0515  0.0392  0.0644
  344POPI   C1B 5489  14.718   5.013   8.883  0.4254 -0.1112 -0.0814
  344POPI   C2B 5490  14.783   4.968   8.388 -0.0847 -0.1193 -0.2637
  344POPI   C3B 5491  14.787   4.941   7.921  0.0977  0.0663 -0.2185
  344POPI   C4B 5492  14.864   4.839   7.512 -0.1313  0.1365  0.2586
  345POPI    C1 5493   1.729   5.246   9.875 -0.1744 -0.0439 -0.1749
  345POPI    C2 5494   1.364   5.297   9.720 -0.2437 -0.0017 -0.0008
  345POPI    C3 5495   1.422   5.340  10.113 -0.0732 -0.1221 -0.0116
  345POPI   PO4 5496   1.888   4.958   9.683 -0.0644  0.0749 -0.0838
  345POPI   GL1 5497   1.944   4.983   9.273 -0.1352 -0.0508  0.2499
  345POPI   GL2 5498   2.256   5.208   9.246 -0.2727 -0.1625 -0.2371
  345POPI   C1A 5499   1.815   4.978   8.804 -0.0919  0.0395 -0.1227
  345POPI   D2A 5500   1.699   5.327   8.550  0.2251  0.1497  0.2879
  345POPI   C3A 5501   1.893   5.451   8.206  0.0919 -0.1785  0.2214
  345POPI   C4A 5502   2.108   5.424   7.807 -0.2918 -0.1513  0.2508
  345POPI   C1B 5503   2.556   5.044   8.957 -0.2931 -0.4694  0.0775
  345POPI   C2B 5504   2.632   4.811   8.562  0.1110 -0.0229 -0.0657
  345POPI   C3B 5505   2.669   4.763   8.100 -0.1304 -0.2673 -0.0657
  345POPI   C4B 5506   2.742   4.335   8.273  0.0370 -0.0035  0.3185
  346POPI    C1 5507   5.055   7.058   9.714 -0.1491  0.3056 -0.0133
  346POPI    C2 5508   4.821   7.106  10.035  0.0946 -0.0211  0.2195
  346POPI    C3 5509   5.049   6.779  10.000  0.1463  0.0572 -0.2423
  346POPI   PO4 5510   4.953   7.094   9.446 -0.3989  0.2328 -0.1230
  346POPI   GL1 5511   5.106   7.321   9.184 -0.2530  0.2154 -0.2076
  346POPI   GL2 5512   5.145   7.565   9.395  0.1059 -0.0173  0.3331
  346POPI   C1A 5513   4.989   7.471   8.830  0.1592 -0.1217  0.1078
  346POPI   D2A 5514   4.674   7.756   8.731  0.0684 -0.1592 -0.1193
  346POPI   C3A 5515   4.762   7.596   8.329 -0.1353  0.1446  0.1688
  346POPI   C4A 5516   4.544   7.352   8.035 -0.3608  0.0332  0.1966
  346POPI   C1B 5517   5.391   7.890   9.343 -0.3573 -0.0182 -0.0007
  346POPI   C2B 5518   5.278   8.313   9.113 -0.0312  0.1586 -0.0612
  346POPI   C3B 5519   5.139   8.609   8.746 -0.0079 -0.1000 -0.0905
  346POPI   C4B 5520   5.171   8.655   8.332  0.1786 -0.0376 -0.0509
  347POPI    C1 5521  13.934   3.172  10.495  0.0572  0.1451 -0.0418
  347POPI    C2 5522  14.225   2.915  10.593 -0.0293 -0.0477 -0.2795
  347POPI    C3 5523  14.282   3.309  10.635  0.1679 -0.0964 -0.0761
  347POPI   PO4 5524  13.908   3.151  10.264  0.0686  0.1117 -0.2193
  347POPI   GL1 5525  13.897   2.861   9.903 -0.2179  0.2961 -0.1159
  347POPI   GL2 5526  13.633   2.968   9.605 -0.2007 -0.0935 -0.0867
  347POPI   C1A 5527  14.254   2.929   9.635  0.0521  0.0330 -0.0489
  347POPI   D2A 5528  14.511   2.688   9.699 -0.1736 -0.0501 -0.0288
  347POPI   C3A 5529  14.645   2.603   9.361  0.0798  0.0932 -0.3220
  347POPI   C4A 5530  14.697   2.639   8.867  0.0093 -0.0325 -0.0565
  347POPI   C1B 5531  13.890   3.189   9.322 -0.1584  0.1303 -0.1409
  347POPI   C2B 5532  14.090   3.386   8.990 -0.4356  0.2582 -0.0178
  347POPI   C3B 5533  14.331   3.685   8.839  0.2846 -0.3043  0.1200
  347POPI   C4B 5534  14.651   3.842   9.066  0.1368  0.2334  0.0959
  348POPI    C1 5535   8.170  15.042  10.150 -0.0564  0.4724 -0.0408
  348POPI    C2 5536   8.055  14.840  10.475  0.0297  0.2072 -0.1721
  348POPI    C3 5537   7.841  15.153  10.347 -0.0919  0.2155  0.0473
  348POPI   PO4 5538   8.238  14.936   9.919 -0.2494  0.3802  0.2072
  348POPI   GL1 5539   8.481  15.035   9.547  0.1049 -0.0805  0.1630
  348POPI   GL2 5540   8.527  15.215   9.334 -0.2451  0.0709 -0.2256
  348POPI   C1A 5541   8.121  14.880   9.261 -0.0898  0.1333  0.0713
  348POPI   D2A 5542   8.273  14.643   8.882 -0.0667  0.0637 -0.1850
  348POPI   C3A 5543   8.405  14.753   8.537 -0.1845 -0.0182 -0.0992
  348POPI   C4A 5544   8.504  14.722   8.023  0.2373 -0.0293 -0.3221
  348POPI   C1B 5545   8.550  15.281   8.961  0.1074  0.0554 -0.0900
  348POPI   C2B 5546   8.489  15.393   8.598  0.2629 -0.0311  0.0084
  348POPI   C3B 5547   8.440  15.240   8.135  0.3317  0.2089 -0.1785
  348POPI   C4B 5548   8.663  15.237   7.626 -0.0409 -0.1188 -0.2560
  349POPI    C1 5549   6.708  12.203   9.987 -0.0748 -0.2385 -0.0783
  349POPI    C2 5550   6.692  12.062  10.361 -0.1623 -0.0389 -0.0055
  349POPI    C3 5551   7.006  11.978  10.129  0.0787  0.1552  0.2434
  349POPI   PO4 5552   6.734  12.471  10.040  0.1639 -0.0910  0.0986
  349POPI   GL1 5553   6.921  12.755   9.774 -0.2065  0.0679 -0.0722
  349POPI   GL2 5554   6.829  12.821   9.525  0.2487  0.0762  0.4006
  349POPI   C1A 5555   7.277  12.784   9.461 -0.3122 -0.1311  0.1254
  349POPI   D2A 5556   7.408  12.824   9.005  0.1230  0.0573  0.1432
  349POPI   C3A 5557   7.119  12.799   8.598  0.2176  0.0438  0.0291
  349POPI   C4A 5558   6.784  13.018   8.340  0.1077  0.3369  0.0454
  349POPI   C1B 5559   6.722  12.702   9.270  0.2507 -0.2025  0.4745
  349POPI   C2B 5560   6.794  12.601   8.864 -0.2809  0.2150 -0.1236
  349POPI   C3B 5561   6.745  12.545   8.447  0.3312 -0.0108 -0.2662
  349POPI   C4B 5562   6.775  12.618   8.011  0.1663 -0.1770 -0.1047
  350POPI    C1 5563  17.445  16.526  10.885  0.0168  0.1764 -0.1527
  350POPI    C2 5564  17.843  16.480  10.878 -0.0157 -0.1147 -0.2006
  350POPI    C3 5565  17.679  16.767  11.102  0.2073 -0.1647  0.0305
  350POPI   PO4 5566  17.407  16.567  10.612 -0.1644  0.0508 -0.0687
  350POPI   GL1 5567  17.553  16.616  10.223  0.1576 -0.1018 -0.0547
  350POPI   GL2 5568  17.687  16.323  10.110 -0.1535 -0.1129  0.3947
  350POPI   C1A 5569  17.283  16.486   9.956 -0.0230 -0.0474 -0.0892
  350POPI   D2A 5570  17.059  16.430   9.597 -0.0155  0.2872 -0.0088
  350POPI   C3A 5571  17.067  16.548   9.258  0.3331 -0.1111 -0.2699
  350POPI   C4A 5572  16.859  16.504   8.798 -0.2103 -0.0574 -0.0989
  350POPI   C1B 5573  17.610  16.291   9.679  0.0931 -0.3746 -0.2380
  350POPI   C2B 5574  17.434  16.180   9.262  0.0626  0.2545 -0.0977
  350POPI   C3B 5575  17.384  16.350   8.819  0.1210  0.1625  0.0310
  350POPI   C4B 5576  17.214  16.523   8.401 -0.1845  0.0063  0.3907
  351POPI    C1 5577   7.924   5.239   9.735 -0.3288 -0.2792 -0.1880
  351POPI    C2 5578   8.200   5.046   9.951  0.2461  0.2055 -0.4578
  351POPI    C3 5579   7.828   5.086  10.092  0.3695 -0.2458  0.0306
  351POPI   PO4 5580   8.036   5.411   9.690  0.0849  0.0001  0.0109
  351POPI   GL1 5581   8.303   5.312   9.369 -0.2983  0.1768  0.1524
  351POPI   GL2 5582   8.545   5.615   9.435 -0.0432 -0.0384 -0.0197
  351POPI   C1A 5583   8.323   5.336   8.926  0.3297  0.0511  0.2186
  351POPI   D2A 5584   8.452   5.328   8.566 -0.4580  0.0814  0.1537
  351POPI   C3A 5585   8.777   5.142   8.340 -0.1428  0.0047 -0.1262
  351POPI   C4A 5586   9.009   5.094   7.935 -0.2313  0.1988  0.4355
  351POPI   C1B 5587   8.733   5.512   9.070 -0.1018 -0.0760  0.0944
  351POPI   C2B 5588   8.867   5.587   8.715 -0.0621  0.0177  0.2436
  351POPI   C3B 5589   8.846   5.619   8.280 -0.1668 -0.0736 -0.0689
  351POPI   C4B 5590   8.991   5.586   7.902  0.3300 -0.1252  0.1475
  352POPI    C1 5591  13.836  15.114  10.409  0.0844 -0.2248  0.1045
  352POPI    C2 5592  14.227  15.193  10.438  0.0600 -0.0913  0.0740
  352POPI    C3 5593  13.959  15.457  10.574 -0.0260 -0.0503 -0.1706
  352POPI   PO4 5594  13.844  14.992  10.161  0.2308  0.0632  0.0903
  352POPI   GL1 5595  13.861  14.667   9.797  0.1422 -0.4413  0.0409
  352POPI   GL2 5596  14.017  14.823   9.589 -0.2750  0.0466  0.0964
  352POPI   C1A 5597  13.837  14.251   9.595 -0.1006  0.0010  0.2215
  352POPI   D2A 5598  14.090  14.056   9.257  0.0067 -0.0389  0.1590
  352POPI   C3A 5599  14.301  14.227   8.888  0.1723  0.3566  0.2782
  352POPI   C4A 5600  14.414  14.223   8.474  0.1351  0.2286 -0.0664
  352POPI   C1B 5601  14.081  14.622   9.163  0.1127  0.1505  0.2071
  352POPI   C2B 5602  14.391  14.730   8.840 -0.0771  0.1310 -0.0161
  352POPI   C3B 5603  14.543  14.674   8.426  0.1201 -0.0125 -0.2147
  352POPI   C4B 5604  14.322  14.520   8.078  0.0826  0.5024 -0.1662
  353POPI    C1 5605  13.148  16.590  10.177  0.2213 -0.1605 -0.2332
  353POPI    C2 5606  13.437  16.582  10.453  0.1727 -0.0119 -0.1772
  353POPI    C3 5607  13.146  16.855  10.477 -0.1168 -0.3227 -0.0873
  353POPI   PO4 5608  13.216  16.573   9.978 -0.2044 -0.0682 -0.3006
  353POPI   GL1 5609  13.356  16.458   9.611 -0.0192 -0.1435  0.1980
  353POPI   GL2 5610  13.305  16.172   9.520 -0.2014  0.4827 -0.2362
  353POPI   C1A 5611  13.199  16.632   9.321  0.2233  0.1452 -0.1541
  353POPI   D2A 5612  13.187  16.626   8.878 -0.1212 -0.0673 -0.2923
  353POPI   C3A 5613  13.063  16.414   8.531 -0.0772  0.0980 -0.2932
  353POPI   C4A 5614  13.368  16.070   8.455 -0.2039 -0.1917 -0.3789
  353POPI   C1B 5615  12.980  16.192   9.096  0.2347 -0.2931  0.1127
  353POPI   C2B 5616  12.883  16.022   8.718 -0.2138 -0.0764 -0.0371
  353POPI   C3B 5617  12.590  16.088   8.481 -0.1760  0.1119  0.2614
  353POPI   C4B 5618  12.680  16.502   8.211 -0.0145 -0.2569 -0.1042
  354POPI    C1 5619  17.493  14.199  10.150 -0.0484  0.0491 -0.1599
  354POPI    C2 5620  17.119  14.059  10.167 -0.0678  0.1209  0.0223
  354POPI    C3 5621  17.317  14.142  10.505  0.1229  0.0572 -0.0726
  354POPI   PO4 5622  17.431  14.477   9.910 -0.0269 -0.1932 -0.0305
  354POPI   GL1 5623  17.456  14.925   9.718  0.1285  0.0991  0.1071
  354POPI   GL2 5624  17.472  15.313   9.603  0.1233  0.0240  0.1875
  354POPI   C1A 5625  17.092  14.817   9.323 -0.3181  0.0584  0.0102
  354POPI   D2A 5626  16.840  14.990   8.931  0.2161  0.0996  0.0442
  354POPI   C3A 5627  16.811  14.948   8.439  0.2270 -0.2473  0.0702
  354POPI   C4A 5628  16.696  14.899   8.060 -0.1893  0.0553  0.0502
  354POPI   C1B 5629  17.431  15.113   9.186 -0.1023  0.0964 -0.0316
  354POPI   C2B 5630  17.361  15.071   8.802 -0.0666  0.1727 -0.0731
  354POPI   C3B 5631  17.400  15.178   8.462 -0.2398 -0.3655 -0.0475
  354POPI   C4B 5632  17.234  15.001   8.078  0.0741 -0.1011 -0.0087
  355POPI    C1 5633   0.137   4.239  10.060  0.1266 -0.1994 -0.0577
  355POPI    C2 5634   0.414   4.364   9.800  0.0211  0.1178 -0.0209
  355POPI    C3 5635   0.327   4.585  10.122 -0.2244 -0.0135  0.0056
  355POPI   PO4 5636   0.006   4.127   9.953 -0.0914 -0.1816  0.0450
  355POPI   GL1 5637   0.040   4.095   9.582  0.3582 -0.3082 -0.3297
  355POPI   GL2 5638   0.003   4.271   9.358 -0.1552 -0.3977  0.0690
  355POPI   C1A 5639   0.010   3.643   9.374 -0.1371 -0.2053  0.0427
  355POPI   D2A 5640  -0.048   3.341   9.208 -0.3045 -0.1875 -0.0403
  355POPI   C3A 5641   0.163   3.339   8.908 -0.2000  0.2037  0.1420
  355POPI   C4A 5642   0.172   3.318   8.472 -0.0333 -0.0564 -0.1966
  355POPI   C1B 5643  -0.102   3.954   9.005 -0.0408 -0.1551 -0.3283
  355POPI   C2B 5644  -0.445   4.026   8.612 -0.0132 -0.0757 -0.0049
  355POPI   C3B 5645  -0.473   4.031   8.230  0.2119 -0.0698  0.2182
  355POPI   C4B 5646  -0.431   3.726   7.893 -0.1754 -0.0427 -0.0806
  356POPI    C1 5647  16.084  17.830  10.645 -0.0300  0.0949  0.0571
  356POPI    C2 5648  15.749  17.811  10.863 -0.0500 -0.3346 -0.0023
  356POPI    C3 5649  16.061  17.578  10.955  0.1872 -0.0332 -0.0290
  356POPI   PO4 5650  16.010  18.124  10.549 -0.1458  0.1797 -0.3684
  356POPI   GL1 5651  15.701  18.404  10.364 -0.2454 -0.0028  0.1763
  356POPI   GL2 5652  15.908  18.382  10.013  0.1157  0.3102  0.2555
  356POPI   C1A 5653  15.961  18.814  10.219 -0.2399  0.3498  0.3232
  356POPI   D2A 5654  15.975  19.143  10.131 -0.2758 -0.1299  0.0192
  356POPI   C3A 5655  15.979  19.245   9.764  0.4704  0.2213  0.4359
  356POPI   C4A 5656  16.265  19.633   9.534  0.0241 -0.0515  0.3044
  356POPI   C1B 5657  15.801  18.227   9.596 -0.1157 -0.0343 -0.1565
  356POPI   C2B 5658  15.910  18.237   9.220  0.1129  0.1765  0.0780
  356POPI   C3B 5659  16.114  18.100   8.770  0.2005 -0.4174 -0.2911
  356POPI   C4B 5660  16.296  18.293   8.453 -0.0446 -0.0241 -0.0393
  357POPI    C1 5661  17.988  11.073   9.863 -0.1275 -0.0754  0.0266
  357POPI    C2 5662  18.258  11.221  10.118  0.0393 -0.0949 -0.1358
  357POPI    C3 5663  17.935  11.437  10.021  0.0605 -0.0185 -0.0386
  357POPI   PO4 5664  18.090  11.006   9.699  0.0418  0.5803 -0.1059
  357POPI   GL1 5665  18.020  10.965   9.255  0.2299 -0.0781  0.0592
  357POPI   GL2 5666  18.345  10.879   9.217  0.0092 -0.1980  0.1778
  357POPI   C1A 5667  17.774  10.970   8.903 -0.0038 -0.2169  0.2053
  357POPI   D2A 5668  17.837  10.861   8.442  0.2550 -0.0784  0.3874
  357POPI   C3A 5669  18.329  10.846   8.122 -0.0184  0.1957  0.0884
  357POPI   C4A 5670  18.641  11.020   7.937  0.0872 -0.2557 -0.2524
  357POPI   C1B 5671  18.354  11.115   8.891  0.0882  0.1063 -0.4809
  357POPI   C2B 5672  18.437  11.184   8.496 -0.0627  0.3461 -0.0905
  357POPI   C3B 5673  18.837  11.320   8.407 -0.3772 -0.2458 -0.1984
  357POPI   C4B 5674  18.875  11.535   8.109 -0.0558  0.1420  0.3011
  358POPI    C1 5675  13.065  15.727  10.068  0.0807 -0.2143  0.0332
  358POPI    C2 5676  13.031  16.016  10.343 -0.0254 -0.1504 -0.0463
  358POPI    C3 5677  13.251  16.077  10.015 -0.1027 -0.1347 -0.0958
  358POPI   PO4 5678  12.790  15.754   9.946  0.2856  0.1406  0.1560
  358POPI   GL1 5679  12.825  16.029   9.585  0.1154 -0.0346  0.3437
  358POPI   GL2 5680  12.905  15.738   9.459  0.1567 -0.0787  0.0471
  358POPI   C1A 5681  12.576  15.907   9.149 -0.1976  0.0457  0.1150
  358POPI   D2A 5682  12.286  15.942   8.803  0.1380  0.0670  0.1945
  358POPI   C3A 5683  12.126  16.177   8.440  0.0560 -0.0266 -0.1356
  358POPI   C4A 5684  11.957  16.110   8.111  0.0919 -0.2199 -0.0558
  358POPI   C1B 5685  12.821  15.515   8.990 -0.0752  0.0744  0.2090
  358POPI   C2B 5686  12.542  15.485   8.664 -0.0060 -0.2718  0.0037
  358POPI   C3B 5687  12.377  15.370   8.333 -0.1561  0.3155  0.1474
  358POPI   C4B 5688  12.483  15.329   7.902  0.2659 -0.0887  0.2298
  359POPI    C1 5689   6.006   0.828  10.149 -0.1305  0.1825  0.1848
  359POPI    C2 5690   6.045   0.434  10.088  0.0188  0.2580 -0.2469
  359POPI    C3 5691   5.734   0.575  10.298 -0.0705 -0.0830 -0.1439
  359POPI   PO4 5692   6.113   0.943   9.882  0.1344 -0.0371 -0.2298
  359POPI   GL1 5693   6.101   1.022   9.488  0.2166 -0.1665 -0.1256
  359POPI   GL2 5694   6.213   0.651   9.429 -0.3724 -0.0872 -0.1599
  359POPI   C1A 5695   6.453   1.196   9.302 -0.2159  0.0012 -0.1080
  359POPI   D2A 5696   6.701   1.268   8.923  0.0319  0.0033  0.2463
  359POPI   C3A 5697   6.581   1.215   8.464  0.1383 -0.0467  0.1189
  359POPI   C4A 5698   6.662   1.337   8.005  0.1582  0.0002 -0.0900
  359POPI   C1B 5699   6.418   0.668   9.090 -0.3643 -0.0135  0.0430
  359POPI   C2B 5700   6.254   0.917   8.736 -0.1490 -0.0280  0.0475
  359POPI   C3B 5701   6.048   1.010   8.421 -0.1308 -0.2605  0.2201
  359POPI   C4B 5702   5.723   1.172   8.094 -0.0660 -0.0075  0.0299
  360POPI    C1 5703   2.542  13.738  10.099 -0.0509  0.0219 -0.0680
  360POPI    C2 5704   2.235  13.488  10.042 -0.0335 -0.0266  0.0489
  360POPI    C3 5705   2.406  13.516  10.403  0.0474  0.0600  0.0043
  360POPI   PO4 5706   2.603  13.770   9.775 -0.1870  0.0460 -0.0159
  360POPI   GL1 5707   2.371  13.755   9.424 -0.2189 -0.1709 -0.1080
  360POPI   GL2 5708   2.300  13.467   9.542 -0.2779 -0.2661  0.0099
  360POPI   C1A 5709   2.595  13.831   9.052 -0.3157  0.0041 -0.0502
  360POPI   D2A 5710   2.458  14.215   8.853  0.1096  0.0183  0.1439
  360POPI   C3A 5711   2.399  14.217   8.402 -0.1393 -0.0280 -0.3766
  360POPI   C4A 5712   2.592  14.296   8.092  0.1346 -0.1210  0.2639
  360POPI   C1B 5713   2.156  13.450   9.104 -0.1617 -0.2395  0.0588
  360POPI   C2B 5714   2.271  13.557   8.776 -0.0879  0.3081  0.0118
  360POPI   C3B 5715   2.401  13.646   8.329  0.0802 -0.1891  0.2050
  360POPI   C4B 5716   2.388  13.371   8.096 -0.1190  0.2598  0.0376
  361POPI    C1 5717  18.679   5.665   9.672 -0.0272  0.3867 -0.1463
  361POPI    C2 5718  18.295   5.618   9.569 -0.0617  0.2171  0.0508
  361POPI    C3 5719  18.404   5.588   9.953  0.1471  0.2809 -0.0021
  361POPI   PO4 5720  18.794   5.736   9.431  0.1948  0.4898 -0.0171
  361POPI   GL1 5721  18.959   6.034   9.083 -0.0684 -0.3003 -0.2211
  361POPI   GL2 5722  19.203   6.336   9.121 -0.1707  0.0910 -0.2076
  361POPI   C1A 5723  18.851   5.693   8.723  0.4832 -0.0575 -0.0246
  361POPI   D2A 5724  19.062   5.624   8.435 -0.1436  0.2167 -0.1971
  361POPI   C3A 5725  19.162   5.604   7.997 -0.3733  0.0436 -0.0574
  361POPI   C4A 5726  19.348   5.499   7.509 -0.4227 -0.1687 -0.0648
  361POPI   C1B 5727  19.143   6.187   8.661  0.0052  0.0053  0.1735
  361POPI   C2B 5728  19.322   6.042   8.170  0.0137  0.1809 -0.0760
  361POPI   C3B 5729  19.474   5.947   7.720  0.0343  0.2167  0.2420
  361POPI   C4B 5730  19.441   6.325   7.455  0.0377 -0.0644  0.0170
  362POPI    C1 5731   7.281   4.759  10.109 -0.0117  0.2640 -0.0369
  362POPI    C2 5732   7.428   4.889  10.457  0.0054 -0.0872  0.0916
  362POPI    C3 5733   7.040   4.799  10.425  0.0641 -0.3576  0.1140
  362POPI   PO4 5734   7.423   4.785   9.987 -0.0746 -0.0717  0.0190
  362POPI   GL1 5735   7.661   4.782   9.711  0.0734  0.3652 -0.1888
  362POPI   GL2 5736   7.927   4.707   9.649  0.0334 -0.3222 -0.0174
  362POPI   C1A 5737   7.683   4.398   9.383  0.0287  0.2310 -0.2203
  362POPI   D2A 5738   7.833   4.392   8.965  0.0441  0.1470 -0.1177
  362POPI   C3A 5739   8.011   4.430   8.500  0.0759  0.0844  0.0259
  362POPI   C4A 5740   7.828   4.575   8.126  0.1270 -0.0886 -0.0919
  362POPI   C1B 5741   7.970   4.835   9.256  0.2972 -0.0242  0.0421
  362POPI   C2B 5742   8.195   4.862   8.900 -0.0601 -0.0928  0.2574
  362POPI   C3B 5743   8.291   4.917   8.394  0.3185 -0.0220 -0.0377
  362POPI   C4B 5744   8.427   4.938   8.068  0.2088  0.1907  0.1411
  363POPI    C1 5745   3.180  12.359   9.804 -0.0814  0.1950  0.0557
  363POPI    C2 5746   3.070  12.495  10.164  0.0225  0.2967  0.0496
  363POPI    C3 5747   3.453  12.519  10.049 -0.0179  0.3043 -0.0850
  363POPI   PO4 5748   2.970  12.190   9.779 -0.0861  0.2453  0.2130
  363POPI   GL1 5749   2.756  12.208   9.476  0.1173  0.1344 -0.0469
  363POPI   GL2 5750   2.474  12.072   9.553 -0.1824  0.0161 -0.0104
  363POPI   C1A 5751   2.727  12.200   8.940 -0.1321 -0.1658 -0.1627
  363POPI   D2A 5752   2.718  12.081   8.551 -0.1456  0.2373 -0.2318
  363POPI   C3A 5753   2.700  11.771   8.266 -0.1500  0.0430 -0.0493
  363POPI   C4A 5754   2.289  11.548   8.056  0.1211 -0.1632  0.0642
  363POPI   C1B 5755   2.549  11.607   9.348  0.0766 -0.0647  0.1909
  363POPI   C2B 5756   2.779  11.589   9.041  0.0246  0.0238 -0.3160
  363POPI   C3B 5757   3.120  11.712   9.043  0.2623  0.1646  0.2390
  363POPI   C4B 5758   3.476  11.480   8.900  0.3380 -0.1464  0.2035
  364POPI    C1 5759  12.868  10.379  10.617 -0.2026 -0.0224  0.1997
  364POPI    C2 5760  12.774  10.761  10.689 -0.0681  0.0643 -0.0734
  364POPI    C3 5761  12.578  10.556  10.406  0.0481  0.0168 -0.1202
  364POPI   PO4 5762  13.173  10.508  10.545 -0.1138 -0.1652  0.0425
  364POPI   GL1 5763  13.279  10.560  10.039  0.1353  0.2544 -0.1605
  364POPI   GL2 5764  13.274  10.377   9.781  0.1102  0.0941  0.1929
  364POPI   C1A 5765  12.814  10.682   9.978  0.3014 -0.2359  0.2182
  364POPI   D2A 5766  12.518  10.824   9.733 -0.2517  0.1565  0.0042
  364POPI   C3A 5767  12.393  11.203   9.778  0.0325  0.2945 -0.1421
  364POPI   C4A 5768  12.404  11.672   9.942 -0.1030 -0.0679  0.3000
  364POPI   C1B 5769  12.914  10.424   9.523  0.1988  0.4387  0.0649
  364POPI   C2B 5770  12.632  10.550   9.280 -0.1330  0.1950  0.3987
  364POPI   C3B 5771  12.323  10.682   8.901 -0.2068 -0.5500 -0.0009
  364POPI   C4B 5772  12.292  10.981   8.653 -0.1565 -0.1374 -0.1005
  365POPI    C1 5773   3.810   4.971   9.461  0.0029 -0.0111  0.1767
  365POPI    C2 5774   3.596   5.265   9.628 -0.1442 -0.0193  0.0060
  365POPI    C3 5775   3.908   5.353   9.395 -0.2323  0.0044 -0.1038
  365POPI   PO4 5776   3.557   4.797   9.473  0.1523 -0.2628 -0.1917
  365POPI   GL1 5777   3.185   4.985   9.184 -0.0734 -0.0160 -0.3003
  365POPI   GL2 5778   3.035   5.209   8.943  0.1112 -0.0497  0.1668
  365POPI   C1A 5779   3.455   4.984   8.762  0.3908  0.2109 -0.0300
  365POPI   D2A 5780   3.540   5.291   8.298  0.2081  0.2516 -0.0948
  365POPI   C3A 5781   3.831   5.441   8.033  0.0852 -0.1448  0.2441
  365POPI   C4A 5782   4.068   5.340   7.634  0.1079  0.1561 -0.2991
  365POPI   C1B 5783   3.249   5.521   8.645  0.4489  0.0232  0.0720
  365POPI   C2B 5784   3.536   5.766   8.355  0.6400 -0.0603  0.3537
  365POPI   C3B 5785   3.600   6.073   8.006 -0.0156 -0.0278 -0.0261
  365POPI   C4B 5786   3.371   6.469   7.652 -0.2467  0.0896 -0.0124
  366POPI    C1 5787   0.275  11.420   9.694  0.1135 -0.1008 -0.3024
  366POPI    C2 5788   0.505  11.397  10.021  0.0742  0.0602 -0.2627
  366POPI    C3 5789   0.421  11.067   9.812 -0.0343 -0.0691 -0.0168
  366POPI   PO4 5790   0.297  11.508   9.575 -0.1622 -0.2766  0.1227
  366POPI   GL1 5791  -0.042  11.567   9.270 -0.0152  0.2456 -0.0204
  366POPI   GL2 5792  -0.280  11.364   9.292 -0.0537  0.1374  0.0884
  366POPI   C1A 5793  -0.169  11.540   8.840 -0.0068 -0.0725  0.0286
  366POPI   D2A 5794  -0.185  11.703   8.526 -0.1254  0.0266 -0.1821
  366POPI   C3A 5795  -0.391  11.608   8.197  0.1344  0.2091 -0.3386
  366POPI   C4A 5796  -0.781  11.615   7.968 -0.0961 -0.1468 -0.4349
  366POPI   C1B 5797  -0.701  11.490   8.969 -0.0532 -0.1066  0.0959
  366POPI   C2B 5798  -0.727  11.450   8.575  0.1050 -0.2601 -0.2130
  366POPI   C3B 5799  -1.069  11.390   8.347 -0.0142  0.2282 -0.0639
  366POPI   C4B 5800  -1.392  11.627   8.302 -0.0332 -0.0863  0.1615
  367POPI    C1 5801  10.778  11.441  10.887 -0.0362 -0.0989  0.0302
  367POPI    C2 5802  10.970  11.753  11.047 -0.0596 -0.0970  0.0550
  367POPI    C3 5803  10.570  11.742  11.049 -0.0664  0.0172 -0.2188
  367POPI   PO4 5804  10.873  11.415  10.572 -0.2710  0.1957  0.1716
  367POPI   GL1 5805  10.809  11.135  10.293 -0.1276  0.2044  0.2031
  367POPI   GL2 5806  10.751  10.853  10.193  0.4082 -0.0344  0.2692
  367POPI   C1A 5807  10.893  11.370   9.882 -0.2726  0.2607  0.1443
  367POPI   D2A 5808  11.243  11.559   9.644  0.0988 -0.0216  0.1038
  367POPI   C3A 5809  11.558  11.694   9.410 -0.1059  0.2071 -0.0720
  367POPI   C4A 5810  11.804  11.536   9.109 -0.1849  0.1621  0.0423
  367POPI   C1B 5811  10.924  10.864   9.791 -0.4546 -0.5131  0.1127
  367POPI   C2B 5812  10.974  11.066   9.437  0.0455  0.0051  0.3662
  367POPI   C3B 5813  10.863  11.220   8.892 -0.0421 -0.1471 -0.2187
  367POPI   C4B 5814  11.048  11.164   8.486 -0.0109 -0.2483  0.0458
  368POPI    C1 5815  10.906   7.482  10.685 -0.0049  0.2203  0.1757
  368POPI    C2 5816  10.960   7.821  10.479 -0.2258  0.1751  0.0396
  368POPI    C3 5817  11.191   7.503  10.405 -0.1208  0.2461  0.0587
  368POPI   PO4 5818  10.613   7.449  10.711  0.2666  0.0956  0.2515
  368POPI   GL1 5819  10.255   7.301  10.462 -0.2063  0.2323 -0.2207
  368POPI   GL2 5820  10.337   7.671  10.360 -0.0151 -0.0003 -0.3964
  368POPI   C1A 5821  10.048   7.423  10.084  0.2862  0.1794 -0.0593
  368POPI   D2A 5822   9.943   7.310   9.602  0.0930  0.1415 -0.2758
  368POPI   C3A 5823  10.251   7.092   9.354  0.1052  0.0227 -0.2264
  368POPI   C4A 5824  10.409   6.785   9.109 -0.0614 -0.3462  0.2265
  368POPI   C1B 5825  10.265   7.850   9.911 -0.1624 -0.0754  0.2398
  368POPI   C2B 5826  10.168   7.760   9.420 -0.1492  0.1117 -0.0339
  368POPI   C3B 5827  10.225   7.471   9.097 -0.2783  0.3462 -0.2199
  368POPI   C4B 5828   9.848   7.270   9.110 -0.0226  0.1454 -0.0704
  369POPI    C1 5829  11.323   1.407   9.925  0.1435  0.3193 -0.1026
  369POPI    C2 5830  11.173   1.641  10.213 -0.0246  0.1280 -0.0323
  369POPI    C3 5831  11.226   1.251  10.280  0.1646  0.1264 -0.1807
  369POPI   PO4 5832  11.636   1.558   9.853 -0.1706 -0.1910 -0.2600
  369POPI   GL1 5833  11.823   1.537   9.543  0.3256  0.1576 -0.0080
  369POPI   GL2 5834  12.083   1.253   9.647 -0.1860 -0.1498 -0.0024
  369POPI   C1A 5835  11.949   1.395   9.207 -0.1532  0.3441  0.0252
  369POPI   D2A 5836  11.938   1.425   8.718 -0.1409  0.3840 -0.0168
  369POPI   C3A 5837  11.828   1.176   8.294  0.0322 -0.0102 -0.1725
  369POPI   C4A 5838  12.204   0.955   8.002  0.0365 -0.0980  0.3344
  369POPI   C1B 5839  12.336   1.017   9.304  0.0304  0.0449 -0.0221
  369POPI   C2B 5840  12.359   1.193   8.923  0.1275 -0.0220 -0.2507
  369POPI   C3B 5841  12.590   1.145   8.530  0.0498  0.2658 -0.0751
  369POPI   C4B 5842  12.231   0.870   8.432  0.2416 -0.0113 -0.1617
  370POPI    C1 5843  14.245  14.694  10.131  0.2075 -0.0039 -0.0367
  370POPI    C2 5844  14.266  14.362  10.353  0.2314  0.0638  0.0632
  370POPI    C3 5845  14.059  14.678  10.485 -0.2855 -0.1136 -0.2925
  370POPI   PO4 5846  14.512  14.714  10.017  0.3482 -0.0146 -0.0879
  370POPI   GL1 5847  14.480  14.823   9.632 -0.1997  0.1628  0.2561
  370POPI   GL2 5848  14.497  14.395   9.596 -0.3189 -0.0273  0.0709
  370POPI   C1A 5849  14.653  14.920   9.250 -0.1152 -0.1298  0.0201
  370POPI   D2A 5850  14.547  15.234   8.946  0.1423 -0.1719 -0.2090
  370POPI   C3A 5851  14.287  15.640   8.959 -0.3838  0.1263 -0.3745
  370POPI   C4A 5852  14.328  15.944   8.593 -0.2933 -0.1795 -0.0263
  370POPI   C1B 5853  14.563  14.454   9.181 -0.1226  0.2027 -0.1578
  370POPI   C2B 5854  14.735  14.378   8.774 -0.5052 -0.2693  0.1284
  370POPI   C3B 5855  15.019  14.468   8.325  0.1818 -0.1311 -0.1838
  370POPI   C4B 5856  15.050  14.519   7.915  0.0332  0.0220  0.0930
  371POPI    C1 5857  11.242  12.463  10.725  0.0183 -0.3010 -0.0563
  371POPI    C2 5858  11.600  12.608  10.621 -0.0205 -0.2545 -0.1255
  371POPI    C3 5859  11.485  12.615  11.004 -0.0545 -0.0288 -0.1384
  371POPI   PO4 5860  11.209  12.204  10.626  0.2189  0.2067 -0.4431
  371POPI   GL1 5861  11.346  12.105  10.244 -0.1909  0.1963 -0.0610
  371POPI   GL2 5862  11.158  11.830  10.174 -0.0418 -0.0503  0.1676
  371POPI   C1A 5863  11.414  12.030   9.794  0.0357  0.2178 -0.1503
  371POPI   D2A 5864  11.524  12.252   9.411 -0.0930  0.3000  0.0311
  371POPI   C3A 5865  11.491  12.063   9.061  0.0749 -0.0167 -0.2369
  371POPI   C4A 5866  11.442  11.756   8.832 -0.0649 -0.0179 -0.2751
  371POPI   C1B 5867  10.922  11.949   9.751 -0.0431 -0.1356 -0.2758
  371POPI   C2B 5868  10.998  12.017   9.270 -0.0978  0.0029 -0.0774
  371POPI   C3B 5869  10.723  12.181   8.986  0.1110  0.3790 -0.0908
  371POPI   C4B 5870  10.593  12.166   8.595 -0.0150  0.2448  0.0286
  372POPI    C1 5871   5.041  16.843   9.619  0.3663  0.0853  0.1180
  372POPI    C2 5872   4.795  16.833   9.934  0.1639  0.2044 -0.0336
  372POPI    C3 5873   4.937  16.492   9.780  0.0076  0.1286 -0.0111
  372POPI   PO4 5874   4.933  16.984   9.501  0.0273 -0.3278  0.1440
  372POPI   GL1 5875   4.666  16.956   9.205  0.2091 -0.0591 -0.0059
  372POPI   GL2 5876   4.657  17.312   9.071 -0.0755 -0.3409  0.1757
  372POPI   C1A 5877   4.791  16.865   8.779  0.1113 -0.3046 -0.1353
  372POPI   D2A 5878   4.749  16.809   8.334  0.0736 -0.1007 -0.2489
  372POPI   C3A 5879   4.982  16.616   8.019  0.0372  0.0630 -0.3106
  372POPI   C4A 5880   5.404  16.691   8.039  0.0484 -0.0282  0.5072
  372POPI   C1B 5881   4.410  17.199   8.754  0.0493  0.2508 -0.0718
  372POPI   C2B 5882   4.330  17.132   8.386  0.0130 -0.0221  0.3069
  372POPI   C3B 5883   4.428  17.073   8.039  0.0028 -0.2889 -0.0112
  372POPI   C4B 5884   4.841  17.018   7.647 -0.1824 -0.2440 -0.2720
  373POPI    C1 5885  16.614  18.531  10.900 -0.1123  0.0737  0.1345
  373POPI    C2 5886  16.837  18.708  11.180  0.0178 -0.0316  0.0987
  373POPI    C3 5887  16.988  18.406  10.966 -0.1392 -0.0639  0.0322
  373POPI   PO4 5888  16.498  18.753  10.721 -0.1216  0.3870 -0.1472
  373POPI   GL1 5889  16.455  19.094  10.398  0.3058  0.0332  0.0174
  373POPI   GL2 5890  16.737  19.285  10.242  0.2761 -0.1505 -0.0652
  373POPI   C1A 5891  16.439  18.990   9.952 -0.1905  0.0676 -0.3399
  373POPI   D2A 5892  16.263  18.882   9.523  0.1285  0.0924  0.1156
  373POPI   C3A 5893  16.090  19.130   9.174 -0.0197 -0.4578 -0.1122
  373POPI   C4A 5894  15.782  19.248   8.817 -0.1456  0.1481  0.1871
  373POPI   C1B 5895  16.631  19.513   9.986 -0.0337  0.1589  0.1502
  373POPI   C2B 5896  16.575  19.284   9.617  0.1515  0.3140 -0.1742
  373POPI   C3B 5897  16.532  19.401   9.131  0.0421  0.1396 -0.2533
  373POPI   C4B 5898  16.293  19.179   8.749  0.0796  0.0623  0.0731
  374POPI    C1 5899  17.781   7.788   9.609 -0.0094 -0.0198 -0.0825
  374POPI    C2 5900  18.140   7.853   9.773  0.0214 -0.2270 -0.0644
  374POPI    C3 5901  17.926   7.532   9.880 -0.1496 -0.1299 -0.1099
  374POPI   PO4 5902  17.821   7.895   9.322 -0.2417 -0.0950  0.1031
  374POPI   GL1 5903  18.108   8.172   9.002  0.0750 -0.2507 -0.2150
  374POPI   GL2 5904  18.289   8.477   8.968  0.3561 -0.0756  0.3205
  374POPI   C1A 5905  18.253   7.996   8.607  0.0490 -0.1732 -0.1503
  374POPI   D2A 5906  18.372   7.754   8.349  0.1820 -0.2227 -0.1173
  374POPI   C3A 5907  18.373   7.632   7.862  0.0420 -0.1745 -0.1626
  374POPI   C4A 5908  18.289   7.671   7.492 -0.0949 -0.0249 -0.0232
  374POPI   C1B 5909  18.179   8.494   8.525 -0.2839 -0.2869  0.1822
  374POPI   C2B 5910  18.242   8.233   8.110 -0.0646 -0.5179 -0.1240
  374POPI   C3B 5911  18.012   7.991   7.715 -0.0904 -0.4023  0.1044
  374POPI   C4B 5912  17.866   7.887   7.242  0.1141 -0.1538 -0.1924
  375POPI    C1 5913  17.355   3.404  10.599  0.0779  0.1587  0.0428
  375POPI    C2 5914  17.544   3.147  10.357 -0.0220  0.0028  0.1293
  375POPI    C3 5915  17.749   3.441  10.535  0.0687  0.0642 -0.0737
  375POPI   PO4 5916  17.107   3.431  10.379  0.1735  0.2241 -0.0566
  375POPI   GL1 5917  17.128   3.469   9.839 -0.0898 -0.0951  0.0436
  375POPI   GL2 5918  16.812   3.554   9.916  0.1199  0.1788 -0.0074
  375POPI   C1A 5919  17.059   3.577   9.377  0.1834 -0.0853 -0.0413
  375POPI   D2A 5920  16.783   3.630   9.016  0.0221 -0.3339  0.0145
  375POPI   C3A 5921  16.839   3.442   8.666  0.1491  0.1500  0.1864
  375POPI   C4A 5922  16.935   3.662   8.249  0.1735  0.1934  0.0784
  375POPI   C1B 5923  16.573   3.475   9.547 -0.1170  0.2334  0.0659
  375POPI   C2B 5924  16.507   3.189   9.246  0.0072  0.0408  0.1330
  375POPI   C3B 5925  16.574   3.078   8.795  0.0783  0.1585 -0.1728
  375POPI   C4B 5926  16.902   2.714   8.827  0.1218  0.2046  0.1679
  376POPI    C1 5927  12.467   4.170  10.085 -0.0202  0.0252 -0.0489
  376POPI    C2 5928  12.124   4.214  10.285  0.0556  0.2045  0.0436
  376POPI    C3 5929  12.467   4.163  10.485  0.1003  0.1539 -0.0457
  376POPI   PO4 5930  12.444   4.444   9.922 -0.2172 -0.0476 -0.0101
  376POPI   GL1 5931  12.248   4.532   9.547 -0.1558 -0.0695 -0.0556
  376POPI   GL2 5932  12.450   4.232   9.442 -0.2077 -0.0272  0.1401
  376POPI   C1A 5933  12.167   4.428   9.118 -0.0703  0.4097  0.0997
  376POPI   D2A 5934  12.273   4.173   8.744 -0.0129 -0.2981  0.3059
  376POPI   C3A 5935  12.384   4.209   8.299 -0.0222 -0.2191 -0.0223
  376POPI   C4A 5936  12.345   4.611   8.136  0.1653  0.0474  0.0450
  376POPI   C1B 5937  12.409   3.961   9.145  0.0825 -0.0614 -0.1287
  376POPI   C2B 5938  12.418   3.674   8.730  0.1988  0.3513  0.0195
  376POPI   C3B 5939  12.368   3.607   8.259  0.1942 -0.0146 -0.1280
  376POPI   C4B 5940  12.153   3.847   7.994 -0.0499  0.3316  0.1563
  377POPI    C1 5941   6.334   2.101   9.806 -0.0808  0.1119 -0.1018
  377POPI    C2 5942   5.950   2.001   9.760 -0.0983  0.1499 -0.0388
  377POPI    C3 5943   6.100   2.054  10.127 -0.0271  0.1125 -0.0625
  377POPI   PO4 5944   6.368   2.089   9.499 -0.3652 -0.3244 -0.3057
  377POPI   GL1 5945   6.754   2.066   9.199  0.0529  0.2142  0.0427
  377POPI   GL2 5946   6.899   1.697   9.210 -0.0628 -0.2326  0.1338
  377POPI   C1A 5947   6.730   2.171   8.751  0.2264  0.1718  0.3025
  377POPI   D2A 5948   6.662   2.337   8.339  0.2972  0.0465  0.1748
  377POPI   C3A 5949   6.564   2.344   7.983 -0.1810 -0.2025  0.1134
  377POPI   C4A 5950   6.636   2.460   7.589  0.2281 -0.0061 -0.0831
  377POPI   C1B 5951   6.908   1.698   8.758 -0.2441 -0.0620 -0.4827
  377POPI   C2B 5952   6.677   1.701   8.436  0.1061  0.0641 -0.1098
  377POPI   C3B 5953   6.595   1.847   8.059  0.0120  0.0650 -0.0457
  377POPI   C4B 5954   6.714   2.015   7.625 -0.1232 -0.0488  0.1594
  378POPI    C1 5955   2.917  10.792  10.097  0.0547 -0.0538 -0.1361
  378POPI    C2 5956   2.867  10.587  10.437  0.0642 -0.0255 -0.1176
  378POPI    C3 5957   2.774  10.976  10.423  0.0897 -0.0202 -0.1396
  378POPI   PO4 5958   2.840  10.587   9.918 -0.0416 -0.0528  0.4563
  378POPI   GL1 5959   2.695  10.640   9.543  0.2451 -0.0635  0.3077
  378POPI   GL2 5960   2.478  10.572   9.408 -0.0653  0.3607  0.3250
  378POPI   C1A 5961   2.916  10.863   9.252  0.0885 -0.0436  0.2263
  378POPI   D2A 5962   2.948  11.094   8.780  0.0058 -0.1965 -0.2957
  378POPI   C3A 5963   2.597  11.389   8.624  0.0024 -0.0412 -0.2515
  378POPI   C4A 5964   2.287  11.508   8.552  0.0071  0.1931  0.0795
  378POPI   C1B 5965   2.533  10.688   8.913  0.1984  0.2337 -0.0014
  378POPI   C2B 5966   2.814  10.758   8.432 -0.0026  0.0011  0.0257
  378POPI   C3B 5967   3.108  11.058   8.331  0.1744 -0.0926 -0.2436
  378POPI   C4B 5968   3.082  11.478   8.507  0.1320 -0.1410 -0.0434
  379POPI    C1 5969  14.336   7.577  10.232  0.0184  0.0968  0.0267
  379POPI    C2 5970  14.378   7.921  10.033 -0.0422  0.0551 -0.0584
  379POPI    C3 5971  14.612   7.843  10.347  0.1073  0.0872 -0.1606
  379POPI   PO4 5972  14.203   7.443   9.985  0.2129  0.2455  0.2646
  379POPI   GL1 5973  14.109   7.378   9.584 -0.1459  0.2853 -0.1729
  379POPI   GL2 5974  14.279   7.816   9.524  0.0123  0.0440 -0.0629
  379POPI   C1A 5975  13.857   7.375   9.219  0.0749  0.0685 -0.0142
  379POPI   D2A 5976  13.905   7.474   8.704  0.0055 -0.1071 -0.2376
  379POPI   C3A 5977  13.516   7.312   8.503 -0.0837  0.0238  0.0940
  379POPI   C4A 5978  13.294   7.386   8.070 -0.1084  0.1004  0.0394
  379POPI   C1B 5979  14.262   7.913   9.062  0.1567  0.2207 -0.1007
  379POPI   C2B 5980  14.116   7.942   8.566  0.1463 -0.1774  0.0960
  379POPI   C3B 5981  14.272   8.064   8.196  0.4810  0.2736 -0.0230
  379POPI   C4B 5982  14.593   8.188   7.976  0.0833 -0.2271 -0.1898
  380POPI    C1 5983  14.750  12.477  10.583 -0.2006  0.0827  0.0685
  380POPI    C2 5984  14.511  12.784  10.489 -0.0912  0.0912 -0.1908
  380POPI    C3 5985  14.865  12.852  10.662 -0.2067  0.0883  0.0508
  380POPI   PO4 5986  14.831  12.385  10.407  0.0566  0.0710  0.1242
  380POPI   GL1 5987  14.763  12.383  10.102 -0.0372 -0.0997 -0.1721
  380POPI   GL2 5988  14.650  12.730  10.010 -0.3178 -0.1748 -0.1772
  380POPI   C1A 5989  14.702  12.449   9.608 -0.0191  0.0427  0.2985
  380POPI   D2A 5990  14.609  12.666   9.249  0.1775 -0.2864  0.3158
  380POPI   C3A 5991  14.622  12.930   8.858  0.0939  0.3520 -0.1383
  380POPI   C4A 5992  14.259  13.233   8.723  0.0153  0.1719 -0.0415
  380POPI   C1B 5993  14.265  12.639   9.706 -0.2693  0.0855 -0.0159
  380POPI   C2B 5994  14.076  12.450   9.359 -0.1969 -0.1502  0.0169
  380POPI   C3B 5995  14.078  12.287   8.839  0.1721 -0.1140 -0.2817
  380POPI   C4B 5996  14.017  12.295   8.408 -0.0026 -0.4613  0.2804
  381POPI    C1 5997  13.204  10.003  10.410  0.0713 -0.0006 -0.0815
  381POPI    C2 5998  13.549  10.187  10.498 -0.0069  0.0143  0.2029
  381POPI    C3 5999  13.301  10.075  10.791 -0.1274 -0.2250  0.0135
  381POPI   PO4 6000  13.261   9.978  10.159 -0.2602  0.0412  0.1031
  381POPI   GL1 6001  13.622   9.783   9.964  0.0339  0.4587 -0.2494
  381POPI   GL2 6002  13.627   9.704   9.701  0.1158  0.1607  0.0495
  381POPI   C1A 6003  13.739  10.150   9.678 -0.1809  0.1073 -0.2407
  381POPI   D2A 6004  13.675  10.363   9.413  0.0041 -0.6214  0.1667
  381POPI   C3A 6005  13.351  10.351   9.261 -0.0153 -0.0829 -0.2519
  381POPI   C4A 6006  13.177  10.512   8.965 -0.0987 -0.3458 -0.2516
  381POPI   C1B 6007  13.351   9.823   9.358 -0.3461  0.3209  0.3158
  381POPI   C2B 6008  13.288   9.941   8.991  0.1752 -0.0034  0.1378
  381POPI   C3B 6009  13.600   9.978   8.650 -0.0023  0.1289  0.0700
  381POPI   C4B 6010  13.960   9.923   8.632 -0.0561  0.3161 -0.0892
  382POPI    C1 6011   0.906  17.337   9.845  0.1734 -0.1600 -0.2637
  382POPI    C2 6012   1.142  17.119  10.084  0.0029 -0.2476 -0.1730
  382POPI    C3 6013   1.281  17.253   9.734  0.3331  0.0809  0.0760
  382POPI   PO4 6014   0.712  17.133   9.830  0.0022 -0.1112 -0.0928
  382POPI   GL1 6015   0.373  17.129   9.646 -0.2231  0.2712 -0.1107
  382POPI   GL2 6016   0.186  17.296   9.643  0.0016  0.0702  0.2568
  382POPI   C1A 6017   0.494  17.034   9.172 -0.0368 -0.0823  0.2153
  382POPI   D2A 6018   0.342  16.712   8.951 -0.1508 -0.3588 -0.2593
  382POPI   C3A 6019   0.345  16.421   9.161 -0.0540  0.1081  0.3628
  382POPI   C4A 6020   0.250  16.006   9.101 -0.0772  0.3244  0.0542
  382POPI   C1B 6021   0.024  17.667   9.556 -0.0592  0.2447  0.2804
  382POPI   C2B 6022  -0.186  17.671   9.207  0.0150 -0.1864  0.0801
  382POPI   C3B 6023  -0.186  17.448   8.778  0.0171 -0.4451 -0.1078
  382POPI   C4B 6024  -0.207  17.468   8.370 -0.0733 -0.1626 -0.1510
  383POPI    C1 6025   4.138  13.735   9.924  0.0662  0.1946 -0.1194
  383POPI    C2 6026   4.032  13.949  10.245 -0.2261  0.0861 -0.1406
  383POPI    C3 6027   3.953  13.557  10.231 -0.1212  0.0700 -0.3023
  383POPI   PO4 6028   4.041  13.826   9.755 -0.1646  0.0040  0.1747
  383POPI   GL1 6029   3.851  13.775   9.401 -0.0505 -0.1672  0.2229
  383POPI   GL2 6030   4.067  13.947   9.149  0.0662  0.1050  0.2092
  383POPI   C1A 6031   3.811  13.439   9.197  0.0454 -0.0760  0.1517
  383POPI   D2A 6032   4.086  13.081   9.071 -0.0778  0.2413  0.0163
  383POPI   C3A 6033   4.472  13.203   8.962 -0.1323  0.3062  0.4325
  383POPI   C4A 6034   4.790  13.194   8.562 -0.1047  0.2233 -0.3583
  383POPI   C1B 6035   4.122  13.599   8.780  0.1468  0.3252 -0.3479
  383POPI   C2B 6036   4.125  13.399   8.403 -0.0558 -0.0649 -0.0971
  383POPI   C3B 6037   3.890  13.138   8.200 -0.0592  0.2505 -0.0834
  383POPI   C4B 6038   3.784  12.833   8.315  0.2524  0.2340 -0.1485
  384POPI    C1 6039  14.689  15.174  10.218 -0.0564 -0.1326  0.2270
  384POPI    C2 6040  14.932  15.026  10.499 -0.2248 -0.4003  0.2350
  384POPI    C3 6041  14.752  15.378  10.556  0.0115 -0.2896  0.3103
  384POPI   PO4 6042  14.859  15.141   9.946  0.2768  0.0497 -0.1378
  384POPI   GL1 6043  15.105  15.165   9.604 -0.1882 -0.0487 -0.2114
  384POPI   GL2 6044  15.397  14.938   9.649 -0.1834 -0.0587 -0.1174
  384POPI   C1A 6045  15.154  14.988   9.108 -0.1558 -0.1285 -0.2903
  384POPI   D2A 6046  14.915  14.890   8.794 -0.0330  0.0850 -0.0010
  384POPI   C3A 6047  14.745  15.192   8.471  0.0110  0.2112  0.0618
  384POPI   C4A 6048  14.446  15.549   8.288 -0.1592  0.2157 -0.0194
  384POPI   C1B 6049  15.543  15.315   9.319  0.1733 -0.0763 -0.2839
  384POPI   C2B 6050  15.542  15.334   8.842 -0.1445  0.1782  0.1809
  384POPI   C3B 6051  15.666  15.297   8.397 -0.0944 -0.0626 -0.0875
  384POPI   C4B 6052  15.753  15.027   7.955 -0.3326 -0.1526  0.0598
  385POPI    C1 6053  13.182   8.192  10.255  0.2470 -0.0413  0.1037
  385POPI    C2 6054  13.571   8.136  10.333  0.2519  0.0034  0.1119
  385POPI    C3 6055  13.295   8.034  10.605  0.2734  0.2412  0.2263
  385POPI   PO4 6056  13.163   8.486  10.160 -0.0461  0.1155 -0.0508
  385POPI   GL1 6057  12.967   8.392   9.812  0.0145  0.0082  0.0914
  385POPI   GL2 6058  12.871   8.085   9.836  0.0001  0.0488 -0.1246
  385POPI   C1A 6059  12.893   8.395   9.402  0.0556  0.2647 -0.0644
  385POPI   D2A 6060  12.916   8.443   9.014 -0.0476 -0.0519  0.0049
  385POPI   C3A 6061  12.748   8.706   8.761  0.1821  0.0561 -0.0887
  385POPI   C4A 6062  12.716   8.871   8.363  0.0296 -0.0832 -0.2439
  385POPI   C1B 6063  12.700   7.906   9.555  0.2243 -0.2371  0.1424
  385POPI   C2B 6064  12.637   8.035   9.206 -0.0286  0.1453 -0.0175
  385POPI   C3B 6065  12.651   8.034   8.741 -0.2813  0.1589  0.1468
  385POPI   C4B 6066  12.432   8.340   8.385 -0.0514 -0.0582 -0.2708
  386POPI    C1 6067   1.733  17.793   9.996 -0.1402  0.1570  0.0229
  386POPI    C2 6068   2.130  17.786  10.043 -0.1612 -0.0456  0.1873
  386POPI    C3 6069   1.955  18.097   9.862  0.0465  0.1723  0.3548
  386POPI   PO4 6070   1.656  17.512   9.820 -0.1617  0.1033  0.1677
  386POPI   GL1 6071   1.925  17.437   9.453  0.2566  0.3900  0.0275
  386POPI   GL2 6072   1.731  17.705   9.390 -0.0174 -0.1491  0.4506
  386POPI   C1A 6073   1.648  17.360   9.035 -0.2475  0.2068 -0.2225
  386POPI   D2A 6074   1.414  17.110   8.739  0.1262 -0.0245  0.0515
  386POPI   C3A 6075   1.574  17.031   8.267 -0.3196  0.1898  0.0315
  386POPI   C4A 6076   1.415  16.844   7.813 -0.0663  0.1521  0.1749
  386POPI   C1B 6077   1.905  17.781   9.016 -0.0310 -0.0417 -0.6406
  386POPI   C2B 6078   1.915  18.141   8.688 -0.1347  0.2670  0.2085
  386POPI   C3B 6079   2.018  18.276   8.334 -0.2245 -0.2260  0.0203
  386POPI   C4B 6080   2.224  18.289   8.023  0.0990  0.1168  0.1177
  387POPI    C1 6081  15.462  15.405   9.900 -0.1411  0.0288  0.1995
  387POPI    C2 6082  15.218  15.419  10.217 -0.3513 -0.2486  0.0544
  387POPI    C3 6083  15.097  15.566   9.864 -0.1775 -0.0822  0.0625
  387POPI   PO4 6084  15.716  15.544   9.991  0.3281  0.0302  0.4710
  387POPI   GL1 6085  15.897  15.794   9.726 -0.2302  0.0991  0.0285
  387POPI   GL2 6086  16.195  15.787   9.876 -0.2346 -0.0691  0.0710
  387POPI   C1A 6087  16.020  15.499   9.453 -0.2370 -0.2991 -0.0745
  387POPI   D2A 6088  16.007  15.075   9.346 -0.1926 -0.2719 -0.1122
  387POPI   C3A 6089  16.046  14.979   9.078 -0.2202 -0.0618  0.0269
  387POPI   C4A 6090  16.024  14.499   8.856  0.2453 -0.1415 -0.0427
  387POPI   C1B 6091  16.468  15.656   9.537 -0.0804 -0.1283 -0.1757
  387POPI   C2B 6092  16.563  15.701   9.127  0.3783 -0.3182  0.0517
  387POPI   C3B 6093  16.504  15.699   8.599 -0.0491  0.1255 -0.2777
  387POPI   C4B 6094  16.548  15.724   8.208  0.2937 -0.2126  0.1510
  388POPI    C1 6095  13.453  17.475  10.647 -0.2124 -0.1087 -0.2938
  388POPI    C2 6096  13.185  17.252  10.844  0.1090 -0.1313  0.1303
  388POPI    C3 6097  13.522  17.369  11.026  0.2771  0.1046 -0.3160
  388POPI   PO4 6098  13.447  17.254  10.349 -0.0130 -0.2665  0.0271
  388POPI   GL1 6099  13.433  17.331   9.853  0.1119  0.1312 -0.0498
  388POPI   GL2 6100  13.788  17.232   9.791  0.2975 -0.1668 -0.3545
  388POPI   C1A 6101  13.502  17.505   9.467 -0.0421  0.2872  0.1034
  388POPI   D2A 6102  13.194  17.559   9.186 -0.1739  0.0602 -0.1883
  388POPI   C3A 6103  13.239  17.574   8.824  0.2156 -0.1225  0.0795
  388POPI   C4A 6104  13.374  17.624   8.355  0.0299 -0.1890  0.0022
  388POPI   C1B 6105  14.052  17.191   9.478  0.0546  0.3471 -0.1933
  388POPI   C2B 6106  14.056  17.259   8.987 -0.2568  0.1153 -0.3583
  388POPI   C3B 6107  14.111  17.146   8.597 -0.1872 -0.3383  0.1113
  388POPI   C4B 6108  14.323  17.329   8.217 -0.1645 -0.0414  0.0205
  389POPI    C1 6109  18.496   1.237  10.622 -0.0592  0.0796  0.3519
  389POPI    C2 6110  18.236   1.042  10.854 -0.0718 -0.4082 -0.0560
  389POPI    C3 6111  18.585   0.872  10.758  0.1314 -0.0198 -0.0257
  389POPI   PO4 6112  18.358   1.270  10.409  0.1707 -0.2806  0.1367
  389POPI   GL1 6113  18.584   1.148  10.022  0.0777  0.3748 -0.3486
  389POPI   GL2 6114  18.677   0.893  10.229 -0.0571  0.1478 -0.0145
  389POPI   C1A 6115  18.498   1.498   9.733 -0.0313  0.1161  0.1891
  389POPI   D2A 6116  18.302   1.568   9.291  0.2481 -0.3026 -0.0186
  389POPI   C3A 6117  18.456   1.236   9.118 -0.2204  0.2512  0.2587
  389POPI   C4A 6118  18.487   0.875   8.915 -0.0596  0.1809 -0.1483
  389POPI   C1B 6119  18.623   0.797   9.746  0.2062 -0.0305  0.4737
  389POPI   C2B 6120  18.731   0.870   9.363 -0.1646  0.2253 -0.3063
  389POPI   C3B 6121  19.042   0.698   9.048  0.1611 -0.4056  0.1730
  389POPI   C4B 6122  18.981   0.699   8.599  0.2670 -0.1525  0.1589
  390POPI    C1 6123  15.429  14.359  10.135 -0.0461 -0.3443 -0.0513
  390POPI    C2 6124  15.562  14.639  10.388  0.0233 -0.0915 -0.3604
  390POPI    C3 6125  15.450  14.280  10.527 -0.0772  0.0898  0.0427
  390POPI   PO4 6126  15.506  14.437   9.863 -0.0304 -0.1593 -0.1306
  390POPI   GL1 6127  15.732  14.511   9.532 -0.0170 -0.0545 -0.1642
  390POPI   GL2 6128  16.010  14.406   9.394 -0.1863 -0.1368  0.0814
  390POPI   C1A 6129  15.648  14.725   9.191  0.0694 -0.5281  0.0763
  390POPI   D2A 6130  15.547  14.608   8.747 -0.1608  0.1164 -0.1276
  390POPI   C3A 6131  15.342  14.859   8.451  0.3969  0.4689 -0.1970
  390POPI   C4A 6132  15.210  15.035   7.990  0.0996 -0.1500  0.0326
  390POPI   C1B 6133  15.732  14.166   9.191  0.0687 -0.3275  0.1956
  390POPI   C2B 6134  15.484  13.902   8.990 -0.1000 -0.0097 -0.0507
  390POPI   C3B 6135  15.215  13.672   8.705  0.0063  0.0218 -0.1223
  390POPI   C4B 6136  15.232  13.586   8.294  0.2500  0.3394 -0.3094
  391POPI    C1 6137  16.167  13.946  10.198 -0.0179 -0.0115  0.1114
  391POPI    C2 6138  16.074  14.190   9.894 -0.0954 -0.1039  0.0605
  391POPI    C3 6139  15.914  14.251  10.256  0.0565  0.0522  0.1026
  391POPI   PO4 6140  16.275  13.738  10.092  0.1583 -0.0351  0.1624
  391POPI   GL1 6141  16.048  13.444   9.841 -0.0560  0.1829 -0.0849
  391POPI   GL2 6142  16.122  13.698   9.577 -0.0030  0.0265 -0.1812
  391POPI   C1A 6143  16.104  13.183   9.488 -0.0451  0.1051  0.1207
  391POPI   D2A 6144  16.100  13.341   9.046  0.1671 -0.0985  0.0605
  391POPI   C3A 6145  16.027  13.711   8.935 -0.1211 -0.1007  0.5067
  391POPI   C4A 6146  15.862  14.027   8.735 -0.2464 -0.0548 -0.1173
  391POPI   C1B 6147  16.233  13.964   9.245  0.1323 -0.2777 -0.0390
  391POPI   C2B 6148  16.397  14.020   8.858  0.1408 -0.0789 -0.0126
  391POPI   C3B 6149  16.271  14.221   8.544 -0.0348  0.2015  0.3589
  391POPI   C4B 6150  16.139  14.191   8.186 -0.0967 -0.2257 -0.0830
  392POPI    C1 6151  15.637  11.513  10.432 -0.0528  0.0895  0.0662
  392POPI    C2 6152  15.263  11.404  10.526  0.0257 -0.2146  0.0375
  392POPI    C3 6153  15.503  11.561  10.806 -0.1725  0.1333  0.0184
  392POPI   PO4 6154  15.658  11.565  10.170  0.4082  0.1534  0.0909
  392POPI   GL1 6155  15.535  11.416   9.855 -0.2002 -0.1943  0.0968
  392POPI   GL2 6156  15.282  11.440   9.952 -0.1213 -0.2529  0.0257
  392POPI   C1A 6157  15.317  11.447   9.439 -0.1000  0.2033  0.1945
  392POPI   D2A 6158  15.283  11.385   9.028 -0.0154 -0.0493 -0.1056
  392POPI   C3A 6159  15.072  11.360   8.610  0.0885  0.0280 -0.0240
  392POPI   C4A 6160  14.903  11.252   8.244  0.0219  0.0044 -0.1276
  392POPI   C1B 6161  14.884  11.469   9.730 -0.1446  0.3155 -0.0498
  392POPI   C2B 6162  14.853  11.547   9.409 -0.0580  0.3339  0.3125
  392POPI   C3B 6163  14.705  11.399   8.995 -0.0332  0.1980  0.1509
  392POPI   C4B 6164  14.451  11.584   8.686 -0.1610  0.0822 -0.0273
  393POPI    C1 6165   5.969  17.078   9.739 -0.0899  0.1393  0.1702
  393POPI    C2 6166   5.576  17.039   9.674 -0.0733  0.0332  0.1299
  393POPI    C3 6167   5.784  16.733   9.824  0.0673 -0.0463 -0.2188
  393POPI   PO4 6168   6.065  17.261   9.573  0.0513  0.1799  0.3191
  393POPI   GL1 6169   6.310  17.434   9.349 -0.2064 -0.1405  0.0143
  393POPI   GL2 6170   6.109  17.627   9.168 -0.0856  0.1865 -0.1835
  393POPI   C1A 6171   6.454  17.530   8.891 -0.0963 -0.0280 -0.3770
  393POPI   D2A 6172   6.473  17.641   8.427  0.3726 -0.3369 -0.2602
  393POPI   C3A 6173   6.596  17.693   8.078 -0.1621  0.1713 -0.1263
  393POPI   C4A 6174   6.273  17.822   7.854 -0.1466 -0.3620 -0.1178
  393POPI   C1B 6175   6.096  17.830   8.703 -0.0724 -0.5255 -0.0414
  393POPI   C2B 6176   6.298  18.162   8.327  0.0125 -0.0276 -0.0753
  393POPI   C3B 6177   6.617  18.162   7.959  0.1926 -0.0684 -0.0207
  393POPI   C4B 6178   6.913  18.026   7.680  0.1254 -0.2062  0.1905
  394POPI    C1 6179  18.369   3.498  10.153  0.1594  0.0628 -0.1170
  394POPI    C2 6180  18.534   3.709   9.856  0.1816  0.1800 -0.0223
  394POPI    C3 6181  18.767   3.517  10.118  0.1618  0.0537 -0.0962
  394POPI   PO4 6182  18.054   3.582  10.112 -0.0051 -0.3391  0.2972
  394POPI   GL1 6183  17.962   3.636   9.696  0.0992 -0.2373 -0.0009
  394POPI   GL2 6184  18.248   3.354   9.638  0.2347 -0.0742 -0.2578
  394POPI   C1A 6185  17.651   3.993   9.572  0.0381  0.3271 -0.3426
  394POPI   D2A 6186  17.165   4.021   9.572 -0.2915  0.1052  0.4014
  394POPI   C3A 6187  17.076   4.017   9.013 -0.2447  0.0403 -0.1975
  394POPI   C4A 6188  17.160   3.834   8.678 -0.0819 -0.0823  0.1143
  394POPI   C1B 6189  18.242   3.150   9.257  0.0347  0.1514  0.1192
  394POPI   C2B 6190  18.341   3.147   8.884 -0.1218  0.2813  0.3032
  394POPI   C3B 6191  18.017   3.117   8.510 -0.1714  0.2006  0.1221
  394POPI   C4B 6192  17.620   3.180   8.357  0.1654  0.0160 -0.2956
  395POPI    C1 6193   7.491   6.320   9.704 -0.0654 -0.0337  0.1449
  395POPI    C2 6194   7.617   6.567   9.991 -0.1033 -0.2752  0.3729
  395POPI    C3 6195   7.333   6.686   9.736 -0.0091 -0.0288  0.3800
  395POPI   PO4 6196   7.654   6.253   9.593 -0.0204 -0.2878  0.1108
  395POPI   GL1 6197   7.950   6.037   9.305 -0.0589 -0.2359 -0.1399
  395POPI   GL2 6198   8.058   5.830   9.306  0.2788 -0.2700 -0.2914
  395POPI   C1A 6199   7.920   6.116   8.852  0.1319  0.0641 -0.0564
  395POPI   D2A 6200   7.777   6.063   8.455  0.1023 -0.2539  0.0663
  395POPI   C3A 6201   7.992   6.274   8.175 -0.2912 -0.1067 -0.0240
  395POPI   C4A 6202   8.130   6.603   8.112 -0.3320  0.1555  0.0887
  395POPI   C1B 6203   8.360   5.859   8.947  0.2046  0.0252  0.4306
  395POPI   C2B 6204   8.404   5.835   8.497  0.2804  0.1786  0.0557
  395POPI   C3B 6205   8.513   5.967   8.115  0.0302 -0.1577 -0.0534
  395POPI   C4B 6206   8.312   6.203   7.805 -0.1702  0.0153 -0.1702
  396POPI    C1 6207  14.486  18.614  10.632  0.0015 -0.0075 -0.0487
  396POPI    C2 6208  14.089  18.571  10.655 -0.0179  0.2309  0.0866
  396POPI    C3 6209  14.312  18.549  10.986  0.1064 -0.1126 -0.0157
  396POPI   PO4 6210  14.559  18.850  10.557  0.0153  0.1803  0.2242
  396POPI   GL1 6211  14.544  19.064  10.138  0.0958 -0.0364 -0.3386
  396POPI   GL2 6212  14.591  19.422  10.159 -0.2097 -0.0342  0.0717
  396POPI   C1A 6213  14.656  18.641   9.897 -0.6584  0.0649  0.2609
  396POPI   D2A 6214  14.595  18.712   9.379  0.0098  0.1229  0.2971
  396POPI   C3A 6215  14.387  19.039   9.193  0.2035 -0.3911  0.3504
  396POPI   C4A 6216  14.418  19.181   8.817  0.0539 -0.2028  0.1800
  396POPI   C1B 6217  14.765  19.681   9.867 -0.2267  0.1596  0.1802
  396POPI   C2B 6218  15.177  19.578   9.576  0.1855  0.0844 -0.1068
  396POPI   C3B 6219  15.350  19.454   9.188 -0.2826  0.1665  0.0516
  396POPI   C4B 6220  15.602  19.221   9.386  0.1965  0.3628  0.0666
  397POPI    C1 6221   1.472   5.156   9.231 -0.1285 -0.2455 -0.2942
  397POPI    C2 6222   1.501   4.810   9.431 -0.2442 -0.0813  0.0135
  397POPI    C3 6223   1.144   4.983   9.381 -0.1403  0.2039  0.2298
  397POPI   PO4 6224   1.765   5.406   9.389  0.1223  0.1209  0.1562
  397POPI   GL1 6225   2.015   5.511   9.004  0.1115  0.0914 -0.1226
  397POPI   GL2 6226   1.707   5.723   8.956 -0.0764  0.0935  0.1090
  397POPI   C1A 6227   2.220   5.337   8.733  0.1003 -0.0202  0.2789
  397POPI   D2A 6228   2.737   5.340   8.552  0.0035 -0.2877 -0.2895
  397POPI   C3A 6229   3.038   5.157   8.364 -0.0106 -0.2661  0.0032
  397POPI   C4A 6230   3.111   5.032   8.018 -0.1092  0.1141 -0.2182
  397POPI   C1B 6231   1.908   5.816   8.544  0.0481 -0.2911 -0.0505
  397POPI   C2B 6232   2.043   5.898   8.037 -0.1223 -0.3785  0.1763
  397POPI   C3B 6233   2.107   6.044   7.598  0.1952 -0.0954 -0.1048
  397POPI   C4B 6234   2.122   6.040   7.205 -0.0572 -0.2478  0.0470
  398POPI    C1 6235   1.981   6.159   9.882  0.0196  0.2111 -0.0484
  398POPI    C2 6236   2.284   6.268  10.118  0.0562  0.0538 -0.0218
  398POPI    C3 6237   2.231   5.883  10.026 -0.3065  0.0435  0.2101
  398POPI   PO4 6238   1.968   6.279   9.715 -0.0130 -0.2886  0.2130
  398POPI   GL1 6239   1.845   6.148   9.274 -0.0453 -0.0056  0.3039
  398POPI   GL2 6240   2.149   6.295   9.185 -0.1114  0.2125  0.3016
  398POPI   C1A 6241   1.795   6.241   8.798 -0.0161  0.0901  0.0616
  398POPI   D2A 6242   1.633   6.186   8.343 -0.2692 -0.0681 -0.0694
  398POPI   C3A 6243   1.419   6.548   8.134 -0.0885  0.0184 -0.0243
  398POPI   C4A 6244   1.232   6.883   7.962  0.1197  0.0837  0.0922
  398POPI   C1B 6245   2.296   6.278   8.736  0.1987 -0.0621  0.1382
  398POPI   C2B 6246   2.291   6.505   8.378  0.2111 -0.0153  0.1616
  398POPI   C3B 6247   1.975   6.435   8.123  0.0868 -0.4121 -0.3204
  398POPI   C4B 6248   1.801   6.462   7.608  0.0848  0.1395 -0.2415
  399POPI    C1 6249  11.807  15.565  10.118  0.0492 -0.1227  0.0408
  399POPI    C2 6250  11.600  15.327   9.872 -0.2398  0.0983  0.0656
  399POPI    C3 6251  11.707  15.196  10.234  0.0912 -0.1891 -0.1300
  399POPI   PO4 6252  12.023  15.634   9.906  0.1945 -0.3175  0.1387
  399POPI   GL1 6253  12.161  15.760   9.512  0.1657  0.1280  0.3436
  399POPI   GL2 6254  12.192  16.102   9.459 -0.0879  0.2838  0.2720
  399POPI   C1A 6255  12.299  15.522   9.176 -0.0522 -0.2223 -0.2118
  399POPI   D2A 6256  12.359  15.185   9.008  0.3804 -0.3189  0.0005
  399POPI   C3A 6257  12.303  14.976   8.638 -0.2579  0.0836  0.3109
  399POPI   C4A 6258  12.506  14.619   8.411  0.0817 -0.1053 -0.0523
  399POPI   C1B 6259  11.831  15.924   9.055 -0.0805 -0.2958 -0.0243
  399POPI   C2B 6260  11.820  15.852   8.597 -0.0807 -0.0146  0.0828
  399POPI   C3B 6261  11.436  15.981   8.259  0.3515  0.1764  0.0807
  399POPI   C4B 6262  11.111  15.841   7.885  0.2806 -0.1384  0.3856
  400POPI    C1 6263   7.196   5.854   9.740  0.2528  0.0352  0.0471
  400POPI    C2 6264   6.909   5.582   9.802  0.3373 -0.0965 -0.1338
  400POPI    C3 6265   6.937   5.900  10.042 -0.0739  0.0125 -0.2227
  400POPI   PO4 6266   7.195   5.967   9.398  0.3750  0.1051 -0.0825
  400POPI   GL1 6267   7.114   6.232   9.177  0.0654  0.2565  0.3518
  400POPI   GL2 6268   7.499   6.373   9.162 -0.1877 -0.1216  0.0353
  400POPI   C1A 6269   7.332   6.099   8.721 -0.0877  0.3627  0.1658
  400POPI   D2A 6270   7.412   5.770   8.238  0.0960 -0.1915  0.1079
  400POPI   C3A 6271   7.161   5.685   7.888  0.0722 -0.3473  0.2466
  400POPI   C4A 6272   6.940   5.852   7.508 -0.0035  0.1032 -0.1265
  400POPI   C1B 6273   7.472   6.616   8.791 -0.1278  0.2392 -0.1227
  400POPI   C2B 6274   7.649   6.610   8.463 -0.0725  0.1057  0.2121
  400POPI   C3B 6275   7.745   6.842   8.049 -0.0317  0.0527  0.1981
  400POPI   C4B 6276   8.035   7.074   7.786 -0.0514  0.1419 -0.2410
  401POPI    C1 6277  15.376  11.042  10.271 -0.0073 -0.0299  0.0858
  401POPI    C2 6278  15.489  10.675  10.159 -0.2185 -0.0386 -0.1059
  401POPI    C3 6279  15.672  10.997  10.006 -0.0621 -0.0621  0.0299
  401POPI   PO4 6280  15.074  11.020  10.207 -0.2247 -0.0273  0.2178
  401POPI   GL1 6281  15.119  10.763   9.859 -0.1960 -0.0534  0.0113
  401POPI   GL2 6282  15.181  11.031   9.729  0.0254 -0.1110  0.1237
  401POPI   C1A 6283  15.042  10.577   9.494 -0.2555 -0.1721 -0.0142
  401POPI   D2A 6284  15.177  10.479   9.139  0.1326 -0.1628 -0.0142
  401POPI   C3A 6285  15.157  10.129   8.941 -0.0320  0.1062 -0.0003
  401POPI   C4A 6286  15.137  10.053   8.568  0.0737  0.2313 -0.0710
  401POPI   C1B 6287  14.939  11.076   9.310  0.0904 -0.0294 -0.1723
  401POPI   C2B 6288  14.934  10.870   8.924 -0.3689 -0.3105  0.0201
  401POPI   C3B 6289  15.238  10.590   8.524 -0.0941 -0.1187  0.0320
  401POPI   C4B 6290  15.639  10.658   8.189 -0.0631  0.0613 -0.1041
  402POPI    C1 6291   4.845   3.567   9.634 -0.0737  0.1104  0.0513
  402POPI    C2 6292   4.622   3.455   9.947 -0.1496 -0.0272 -0.0505
  402POPI    C3 6293   4.580   3.822   9.792 -0.0243  0.0856  0.1760
  402POPI   PO4 6294   4.864   3.357   9.521  0.3542 -0.3516  0.0854
  402POPI   GL1 6295   4.729   3.282   9.173 -0.1619  0.0817  0.1444
  402POPI   GL2 6296   5.105   3.184   9.127 -0.0704 -0.1123 -0.0267
  402POPI   C1A 6297   4.934   3.384   8.773 -0.0182  0.1543 -0.1859
  402POPI   D2A 6298   5.120   3.075   8.386  0.0705 -0.0440 -0.0301
  402POPI   C3A 6299   5.308   2.710   8.539 -0.0851 -0.1292  0.4455
  402POPI   C4A 6300   5.457   2.268   8.471 -0.0225 -0.2314  0.0025
  402POPI   C1B 6301   4.961   2.821   8.920  0.3244 -0.1130  0.1174
  402POPI   C2B 6302   4.563   2.437   8.789 -0.0949 -0.1860  0.2086
  402POPI   C3B 6303   4.216   2.228   8.937  0.0896  0.2360  0.1137
  402POPI   C4B 6304   3.935   1.898   8.755  0.0809 -0.0451 -0.2795
  403POPI    C1 6305   3.292  14.672  10.203 -0.0501 -0.1069  0.2097
  403POPI    C2 6306   3.638  14.527  10.065 -0.1022 -0.1342  0.1064
  403POPI    C3 6307   3.632  14.745  10.400  0.0142 -0.1373  0.1109
  403POPI   PO4 6308   3.131  14.550  10.053  0.1071  0.0061 -0.1505
  403POPI   GL1 6309   3.035  14.450   9.640 -0.0634  0.2643  0.1707
  403POPI   GL2 6310   2.867  14.651   9.584 -0.0696  0.0657  0.0208
  403POPI   C1A 6311   2.985  14.208   9.195 -0.0853  0.3219  0.0667
  403POPI   D2A 6312   3.190  14.236   8.863 -0.0473  0.0506 -0.2133
  403POPI   C3A 6313   3.357  14.130   8.479 -0.0426  0.1389 -0.0905
  403POPI   C4A 6314   3.302  13.766   8.291  0.0917  0.3156 -0.3280
  403POPI   C1B 6315   2.788  14.613   9.208  0.0771 -0.2576  0.0633
  403POPI   C2B 6316   2.832  14.558   8.854  0.4151  0.1522 -0.1411
  403POPI   C3B 6317   2.886  14.353   8.493 -0.0320 -0.0070  0.1265
  403POPI   C4B 6318   3.066  14.359   8.102 -0.0174  0.0283 -0.0005
  404POPI    C1 6319  13.708  18.279  10.530  0.1215 -0.1699  0.1024
  404POPI    C2 6320  13.487  18.041  10.763 -0.0961 -0.0415  0.0306
  404POPI    C3 6321  13.758  18.287  10.927 -0.1972 -0.0039  0.1424
  404POPI   PO4 6322  13.732  18.143  10.258 -0.0040  0.0003 -0.1673
  404POPI   GL1 6323  13.896  18.294   9.956  0.0640  0.0693 -0.0179
  404POPI   GL2 6324  13.929  17.962   9.851  0.0704  0.2361  0.0946
  404POPI   C1A 6325  13.779  18.509   9.692 -0.0457 -0.1060  0.0425
  404POPI   D2A 6326  13.909  18.689   9.342  0.2913  0.2375  0.1490
  404POPI   C3A 6327  14.263  18.563   9.083 -0.1956 -0.0319  0.1574
  404POPI   C4A 6328  14.724  18.791   8.921  0.0235 -0.4722 -0.0931
  404POPI   C1B 6329  13.885  17.833   9.496 -0.1035  0.3551  0.0555
  404POPI   C2B 6330  13.695  17.712   9.075 -0.0012  0.2653  0.0241
  404POPI   C3B 6331  13.769  17.526   8.702 -0.1467 -0.3064  0.0542
  404POPI   C4B 6332  13.869  17.440   8.272  0.0207  0.1265 -0.4207
  405POPI    C1 6333   2.413  11.095  10.116 -0.2680  0.0133  0.0214
  405POPI    C2 6334   2.283  11.233  10.468  0.0081  0.1466  0.0737
  405POPI    C3 6335   2.112  10.910  10.305 -0.0156 -0.0143  0.4080
  405POPI   PO4 6336   2.309  11.260   9.863  0.1368 -0.1351 -0.2600
  405POPI   GL1 6337   2.071  11.197   9.354 -0.0694  0.2348 -0.0351
  405POPI   GL2 6338   2.439  11.029   9.476  0.2068  0.4456  0.2041
  405POPI   C1A 6339   2.013  10.782   9.111 -0.1345  0.1373 -0.0716
  405POPI   D2A 6340   1.953  10.639   8.729 -0.2780  0.2475 -0.2244
  405POPI   C3A 6341   1.969  10.718   8.395 -0.0955 -0.4650  0.0138
  405POPI   C4A 6342   1.760  10.667   7.937 -0.0843 -0.5278  0.0968
  405POPI   C1B 6343   2.493  11.157   9.087 -0.0873 -0.0920 -0.1722
  405POPI   C2B 6344   2.305  10.953   8.584  0.0371 -0.1329  0.2619
  405POPI   C3B 6345   2.529  11.119   8.162 -0.3909  0.1114  0.0751
  405POPI   C4B 6346   2.910  11.370   8.043  0.2148 -0.0200 -0.1356
  406POPI    C1 6347   4.261  12.362   9.918  0.0048  0.2484 -0.0308
  406POPI    C2 6348   4.284  12.598  10.240 -0.0077  0.1321  0.0559
  406POPI    C3 6349   3.955  12.601  10.012 -0.0459  0.1293  0.1106
  406POPI   PO4 6350   4.454  12.417   9.802  0.1645  0.1504 -0.0803
  406POPI   GL1 6351   4.604  12.647   9.469 -0.1012 -0.0884 -0.1260
  406POPI   GL2 6352   4.742  13.025   9.391  0.1782 -0.4406  0.1597
  406POPI   C1A 6353   4.717  12.288   9.073 -0.0555  0.0704  0.0233
  406POPI   D2A 6354   4.611  12.120   8.534  0.1223  0.2073  0.1641
  406POPI   C3A 6355   4.659  11.935   8.023  0.2261 -0.1340  0.3580
  406POPI   C4A 6356   4.435  11.787   7.641  0.2505  0.0092  0.2796
  406POPI   C1B 6357   4.994  13.213   9.065 -0.3094  0.0723 -0.0817
  406POPI   C2B 6358   5.275  13.285   8.795  0.3015 -0.2990 -0.0301
  406POPI   C3B 6359   5.241  13.398   8.321 -0.2275 -0.0965 -0.0993
  406POPI   C4B 6360   5.070  13.401   7.894 -0.2666 -0.4112 -0.3310
  407POPI    C1 6361  16.276   6.920   9.631 -0.0246 -0.0047 -0.0565
  407POPI    C2 6362  15.883   6.906   9.554 -0.0433  0.1280  0.0113
  407POPI    C3 6363  16.013   6.905   9.933  0.0034  0.4752  0.0001
  407POPI   PO4 6364  16.369   6.859   9.394 -0.2680  0.4345 -0.2002
  407POPI   GL1 6365  16.509   7.038   9.046 -0.0454  0.0083 -0.2691
  407POPI   GL2 6366  16.846   7.112   8.931  0.1685 -0.0860  0.0575
  407POPI   C1A 6367  16.511   6.910   8.585 -0.2180 -0.1733  0.0253
  407POPI   D2A 6368  16.628   6.887   8.193 -0.0454  0.0080 -0.0448
  407POPI   C3A 6369  16.249   6.742   7.856 -0.2804  0.2649  0.2657
  407POPI   C4A 6370  16.096   6.581   7.463  0.0934 -0.1817 -0.1074
  407POPI   C1B 6371  16.988   7.013   8.587 -0.0008  0.1775  0.3105
  407POPI   C2B 6372  17.084   7.182   8.146 -0.0161  0.2942 -0.5929
  407POPI   C3B 6373  16.998   7.035   7.739 -0.0722  0.1512 -0.0153
  407POPI   C4B 6374  17.247   6.868   7.359  0.0508  0.0896 -0.0015
  408POPI    C1 6375   5.823  11.092   9.869  0.0964 -0.4636  0.1065
  408POPI    C2 6376   5.527  10.826   9.910 -0.2679 -0.0517  0.2290
  408POPI    C3 6377   5.489  11.192  10.067  0.1993  0.0962  0.0135
  408POPI   PO4 6378   6.066  10.966   9.919  0.2218  0.1097  0.1093
  408POPI   GL1 6379   6.361  10.942   9.601  0.0774  0.0453  0.0655
  408POPI   GL2 6380   6.388  10.699   9.418  0.0688  0.1344 -0.0562
  408POPI   C1A 6381   6.406  11.211   9.269  0.0171 -0.0808  0.2820
  408POPI   D2A 6382   6.454  11.212   8.803 -0.2584  0.0601  0.1216
  408POPI   C3A 6383   6.537  10.828   8.503 -0.0056  0.0975 -0.0317
  408POPI   C4A 6384   6.697  10.496   8.345  0.0673  0.0957 -0.2349
  408POPI   C1B 6385   6.542  10.605   9.011 -0.0158 -0.2166  0.0501
  408POPI   C2B 6386   6.601  10.271   8.774 -0.2004  0.1309  0.0964
  408POPI   C3B 6387   6.606   9.999   8.404  0.1592 -0.3840  0.1411
  408POPI   C4B 6388   6.349   9.966   8.050  0.0070  0.1140  0.1225
  409POPI    C1 6389  15.678   8.205  10.196  0.0410  0.1487 -0.0097
  409POPI    C2 6390  15.993   8.013  10.353  0.0112  0.0798 -0.0334
  409POPI    C3 6391  15.674   8.095  10.581 -0.0548 -0.0690 -0.0713
  409POPI   PO4 6392  15.776   8.361  10.025 -0.0157  0.0780 -0.1375
  409POPI   GL1 6393  15.662   8.446   9.577  0.0910  0.1344  0.0193
  409POPI   GL2 6394  15.936   8.686   9.669  0.0906 -0.0008  0.2592
  409POPI   C1A 6395  15.645   8.156   9.159  0.2614 -0.2259  0.1325
  409POPI   D2A 6396  15.357   8.390   8.846 -0.0858 -0.0435 -0.1872
  409POPI   C3A 6397  15.275   8.461   8.440  0.0345  0.1164  0.0549
  409POPI   C4A 6398  15.461   8.570   8.019 -0.0883  0.0447  0.2722
  409POPI   C1B 6399  15.842   8.867   9.356  0.0789 -0.1119  0.0887
  409POPI   C2B 6400  15.653   8.709   9.017  0.2714  0.0510  0.4676
  409POPI   C3B 6401  15.515   8.998   8.592  0.1294  0.0053 -0.1991
  409POPI   C4B 6402  15.411   9.065   8.183 -0.1270 -0.1271  0.1359
  410POPI    C1 6403  10.163   3.187  10.100  0.0011  0.0900  0.0369
  410POPI    C2 6404  10.287   3.480  10.342  0.1949  0.0024  0.0458
  410POPI    C3 6405  10.256   3.106  10.481  0.1891 -0.0261 -0.0318
  410POPI   PO4 6406  10.323   3.209   9.880 -0.1888  0.0984  0.2051
  410POPI   GL1 6407  10.290   3.173   9.405  0.0035 -0.1007 -0.2733
  410POPI   GL2 6408  10.261   3.489   9.356  0.2553  0.2606  0.1705
  410POPI   C1A 6409  10.171   2.990   9.032  0.0900 -0.1852  0.1928
  410POPI   D2A 6410  10.035   2.568   8.924  0.1243  0.0836  0.0316
  410POPI   C3A 6411   9.594   2.551   9.038 -0.1063  0.2136  0.1286
  410POPI   C4A 6412   9.145   2.505   8.977  0.0486 -0.1993 -0.2304
  410POPI   C1B 6413  10.225   3.680   8.930 -0.2009  0.0571 -0.0430
  410POPI   C2B 6414  10.168   3.664   8.552  0.2848  0.1789  0.0930
  410POPI   C3B 6415  10.362   3.491   8.230 -0.2954  0.0839  0.0611
  410POPI   C4B 6416  10.478   3.170   7.991 -0.1875  0.0634  0.0738
  411POPI    C1 6417   0.134  10.247   9.687 -0.2550 -0.1193 -0.0923
  411POPI    C2 6418  -0.001  10.153  10.051 -0.0254 -0.0509  0.0126
  411POPI    C3 6419   0.116   9.864   9.801 -0.0033 -0.0870  0.0644
  411POPI   PO4 6420  -0.084  10.443   9.590 -0.3158  0.3065  0.0289
  411POPI   GL1 6421  -0.111  10.379   9.094 -0.0551 -0.1360  0.3614
  411POPI   GL2 6422   0.185  10.398   9.029  0.1689  0.2199  0.1036
  411POPI   C1A 6423  -0.269  10.563   8.764 -0.3961 -0.4880  0.1057
  411POPI   D2A 6424  -0.350  10.447   8.399 -0.0262  0.1615 -0.0316
  411POPI   C3A 6425  -0.757  10.517   8.179 -0.2021  0.2034  0.2939
  411POPI   C4A 6426  -1.032  10.723   7.917 -0.1042  0.0310  0.1052
  411POPI   C1B 6427  -0.055  10.008   8.808 -0.3931 -0.1201 -0.0368
  411POPI   C2B 6428  -0.135   9.791   8.452  0.3666  0.2567  0.1055
  411POPI   C3B 6429  -0.020   9.399   8.090 -0.2264  0.0464 -0.0757
  411POPI   C4B 6430   0.439   9.395   7.884  0.0410 -0.2695  0.1962
  412POPI    C1 6431   3.918  12.992   9.512  0.5546 -0.0533  0.1117
  412POPI    C2 6432   3.656  13.016   9.813  0.1520 -0.1773 -0.2192
  412POPI    C3 6433   3.885  13.331   9.722  0.1440 -0.0775  0.0943
  412POPI   PO4 6434   4.063  12.745   9.549  0.2406 -0.3150  0.1544
  412POPI   GL1 6435   4.171  12.336   9.424  0.1008  0.3046 -0.1190
  412POPI   GL2 6436   3.859  12.437   9.115 -0.2495 -0.1301 -0.0136
  412POPI   C1A 6437   4.315  12.649   8.990 -0.3806  0.2185 -0.1162
  412POPI   D2A 6438   4.220  12.960   8.557 -0.3021  0.0321 -0.0699
  412POPI   C3A 6439   4.491  13.126   8.166  0.1663  0.0946  0.0855
  412POPI   C4A 6440   4.650  12.965   7.715 -0.0179 -0.0533  0.1482
  412POPI   C1B 6441   3.782  12.520   8.704  0.2047 -0.2795 -0.0273
  412POPI   C2B 6442   3.734  12.333   8.374 -0.1705 -0.2640 -0.0756
  412POPI   C3B 6443   3.808  12.491   7.879 -0.0902  0.3178  0.1186
  412POPI   C4B 6444   3.520  12.432   7.486 -0.0300 -0.2630  0.2195
  413POPI    C1 6445  16.714  13.470  10.070 -0.0880 -0.0048 -0.0694
  413POPI    C2 6446  17.052  13.510  10.279 -0.1159 -0.0194 -0.0210
  413POPI    C3 6447  17.050  13.583   9.886 -0.1190  0.2520  0.0273
  413POPI   PO4 6448  16.561  13.228  10.153 -0.2245 -0.0101  0.0216
  413POPI   GL1 6449  16.443  12.976   9.841  0.3645 -0.1464  0.4070
  413POPI   GL2 6450  16.792  13.023   9.715  0.0168 -0.0001 -0.0040
  413POPI   C1A 6451  15.942  12.834   9.845 -0.2144  0.0158  0.5188
  413POPI   D2A 6452  15.564  12.844   9.629 -0.1991  0.3055  0.4537
  413POPI   C3A 6453  15.592  13.230   9.380  0.0232  0.2148 -0.4140
  413POPI   C4A 6454  15.646  13.707   9.426  0.0292 -0.3140  0.3145
  413POPI   C1B 6455  16.510  12.998   9.330  0.2837  0.3143  0.2934
  413POPI   C2B 6456  16.459  12.969   8.927 -0.0161 -0.0369 -0.0390
  413POPI   C3B 6457  16.166  13.176   8.585 -0.2119  0.0193  0.1514
  413POPI   C4B 6458  15.928  12.962   8.265  0.1294  0.2566 -0.0208
  414POPI    C1 6459   1.840  11.349  10.166 -0.3232 -0.1869  0.0862
  414POPI    C2 6460   1.898  11.620  10.455 -0.0756 -0.2404  0.0889
  414POPI    C3 6461   1.811  11.242  10.550  0.0310 -0.2637  0.0948
  414POPI   PO4 6462   1.839  11.460   9.911  0.1837  0.0317  0.2069
  414POPI   GL1 6463   2.083  11.692   9.627  0.3200 -0.0257  0.1151
  414POPI   GL2 6464   1.754  11.565   9.484 -0.0224  0.0177  0.2651
  414POPI   C1A 6465   2.153  11.680   9.079 -0.1128 -0.3626 -0.1444
  414POPI   D2A 6466   2.318  11.948   8.895  0.2605 -0.0084  0.0222
  414POPI   C3A 6467   2.230  11.966   8.426 -0.0782  0.1083 -0.3236
  414POPI   C4A 6468   1.871  11.787   8.224  0.2488  0.0370 -0.0252
  414POPI   C1B 6469   1.694  11.592   9.110 -0.0384  0.1144  0.1119
  414POPI   C2B 6470   1.698  11.824   8.736 -0.4185 -0.2263 -0.2098
  414POPI   C3B 6471   1.274  12.005   8.578  0.1166  0.2665  0.0148
  414POPI   C4B 6472   1.291  12.225   8.203  0.2037 -0.0959 -0.2393
  415POPI    C1 6473  12.076   5.887  10.308 -0.1262  0.0894 -0.1048
  415POPI    C2 6474  12.068   5.960  10.701  0.0293 -0.2422 -0.0368
  415POPI    C3 6475  12.385   5.780  10.538  0.0630  0.0919 -0.3533
  415POPI   PO4 6476  11.854   5.844  10.206  0.1789  0.1042 -0.0704
  415POPI   GL1 6477  11.598   5.742   9.898 -0.0541 -0.1388  0.0409
  415POPI   GL2 6478  11.544   5.414   9.795 -0.0575  0.0400 -0.3411
  415POPI   C1A 6479  11.459   6.133   9.666 -0.2437 -0.3371  0.1451
  415POPI   D2A 6480  11.322   6.492   9.498  0.1138  0.2991 -0.1639
  415POPI   C3A 6481  11.550   6.697   9.154  0.3109  0.0202 -0.0489
  415POPI   C4A 6482  11.598   6.727   8.739 -0.2106 -0.1466  0.1381
  415POPI   C1B 6483  11.327   5.669   9.446  0.0078  0.0973 -0.0594
  415POPI   C2B 6484  11.380   5.600   9.139 -0.0508 -0.1866  0.1907
  415POPI   C3B 6485  11.389   5.585   8.540 -0.1808  0.0744  0.0480
  415POPI   C4B 6486  11.383   5.744   8.139 -0.1165  0.2341  0.2855
  416POPI    C1 6487   0.508  11.879   9.936  0.0379  0.0721 -0.1555
  416POPI    C2 6488   0.180  11.781  10.143 -0.0150  0.1894 -0.1830
  416POPI    C3 6489   0.532  11.811  10.330  0.0016 -0.0469 -0.1733
  416POPI   PO4 6490   0.462  12.045   9.775 -0.0264 -0.1784 -0.1478
  416POPI   GL1 6491   0.491  12.408   9.675 -0.0089 -0.2367 -0.0200
  416POPI   GL2 6492   0.238  12.655   9.481  0.0898  0.0218 -0.4451
  416POPI   C1A 6493   0.610  12.373   9.263 -0.3929 -0.0993 -0.0477
  416POPI   D2A 6494   0.758  12.271   8.884 -0.1596 -0.0106  0.2212
  416POPI   C3A 6495   0.783  12.115   8.509  0.3423 -0.2397 -0.0217
  416POPI   C4A 6496   0.801  12.343   8.108 -0.0799  0.1910 -0.0539
  416POPI   C1B 6497   0.035  12.913   9.242  0.1479  0.1504 -0.0411
  416POPI   C2B 6498  -0.125  12.983   8.871  0.0096 -0.1019  0.0496
  416POPI   C3B 6499  -0.438  12.885   8.628  0.5469 -0.0115 -0.0586
  416POPI   C4B 6500  -0.921  12.818   8.769  0.1068  0.2243  0.3133
  417POPI    C1 6501   0.795   2.497  10.084 -0.3018 -0.0626 -0.0925
  417POPI    C2 6502   0.942   2.384  10.438 -0.1114  0.1323 -0.1071
  417POPI    C3 6503   0.563   2.508  10.410 -0.1198  0.1400  0.0328
  417POPI   PO4 6504   0.974   2.395   9.922 -0.0727  0.1191 -0.0207
  417POPI   GL1 6505   1.194   2.510   9.663  0.1384 -0.0917 -0.1066
  417POPI   GL2 6506   1.435   2.693   9.549 -0.0426 -0.0004 -0.0089
  417POPI   C1A 6507   1.086   2.450   9.249 -0.0480 -0.0772  0.2832
  417POPI   D2A 6508   0.874   2.541   8.920  0.2420  0.0938 -0.0080
  417POPI   C3A 6509   0.988   2.594   8.476 -0.0050  0.0592 -0.0856
  417POPI   C4A 6510   0.643   2.517   8.265 -0.2006  0.1937 -0.1671
  417POPI   C1B 6511   1.557   2.616   9.100  0.0454  0.0357  0.2003
  417POPI   C2B 6512   1.376   2.373   8.752 -0.3204  0.1292 -0.1006
  417POPI   C3B 6513   1.071   2.079   8.631  0.4234 -0.1232  0.2580
  417POPI   C4B 6514   0.863   1.977   8.432  0.1936  0.1238  0.2145
  418POPI    C1 6515   2.631  16.082   9.897  0.2088 -0.0033 -0.0094
  418POPI    C2 6516   2.747  15.818  10.175 -0.2624 -0.1598  0.0478
  418POPI    C3 6517   2.498  16.115  10.273  0.0787  0.1720 -0.0695
  418POPI   PO4 6518   2.868  16.114   9.772 -0.1252 -0.0338 -0.0767
  418POPI   GL1 6519   3.042  16.177   9.400 -0.0091  0.1673  0.4565
  418POPI   GL2 6520   2.874  16.526   9.169 -0.0601  0.2064 -0.1550
  418POPI   C1A 6521   3.254  16.223   9.035 -0.0550 -0.2511 -0.0200
  418POPI   D2A 6522   3.133  16.268   8.668 -0.0288 -0.1030  0.3727
  418POPI   C3A 6523   3.061  16.258   8.213  0.1072  0.0070  0.2193
  418POPI   C4A 6524   2.908  16.178   7.748  0.0176  0.0259  0.1207
  418POPI   C1B 6525   2.913  16.705   8.735  0.0670  0.0255  0.1129
  418POPI   C2B 6526   2.940  16.720   8.323 -0.0798 -0.3525  0.0048
  418POPI   C3B 6527   2.933  16.744   7.922 -0.2280  0.1807 -0.0599
  418POPI   C4B 6528   2.695  16.725   7.519 -0.0879 -0.0571 -0.4637
  419POPI    C1 6529   8.837   7.141  10.333 -0.1120  0.2178  0.1201
  419POPI    C2 6530   8.460   7.233  10.426 -0.2873 -0.0524 -0.2915
  419POPI    C3 6531   8.642   6.929  10.610 -0.3223 -0.0194 -0.2018
  419POPI   PO4 6532   8.956   7.375  10.175  0.0572  0.1110 -0.0899
  419POPI   GL1 6533   9.205   7.457   9.920 -0.0617  0.1024  0.4662
  419POPI   GL2 6534   9.507   7.532  10.132 -0.1022  0.0203 -0.0011
  419POPI   C1A 6535   9.479   7.507   9.597 -0.0160  0.1297  0.0674
  419POPI   D2A 6536   9.680   7.690   9.341  0.0969  0.2257 -0.1303
  419POPI   C3A 6537   9.632   7.684   8.911 -0.1642 -0.2148 -0.1813
  419POPI   C4A 6538   9.647   7.732   8.524 -0.0962 -0.0261 -0.2191
  419POPI   C1B 6539   9.742   7.839   9.928  0.0238  0.1518  0.0419
  419POPI   C2B 6540   9.888   8.126   9.690 -0.2476  0.2311  0.2351
  419POPI   C3B 6541   9.850   8.504   9.430  0.0448 -0.0102  0.0644
  419POPI   C4B 6542   9.632   8.613   9.078  0.1269  0.0921 -0.1276
  420POPI    C1 6543   8.656   0.534  10.246 -0.1053  0.1080  0.1142
  420POPI    C2 6544   8.927   0.714  10.478 -0.0995 -0.0450  0.2278
  420POPI    C3 6545   8.554   0.858  10.458 -0.0739  0.0260  0.2557
  420POPI   PO4 6546   8.770   0.507  10.023 -0.0734 -0.1958 -0.1535
  420POPI   GL1 6547   8.739   0.467   9.555  0.0579  0.0895  0.0099
  420POPI   GL2 6548   8.702   0.863   9.478  0.0870 -0.0044 -0.2416
  420POPI   C1A 6549   8.994   0.486   9.120  0.2388  0.1999  0.3385
  420POPI   D2A 6550   9.118   0.458   8.674  0.2129  0.0826 -0.0686
  420POPI   C3A 6551   9.525   0.353   8.580 -0.0144  0.0248  0.1709
  420POPI   C4A 6552   9.978   0.235   8.545 -0.0277  0.3340  0.0995
  420POPI   C1B 6553   8.741   0.939   9.070  0.0814  0.2225 -0.1281
  420POPI   C2B 6554   8.842   0.952   8.626 -0.2476 -0.2599  0.4113
  420POPI   C3B 6555   8.931   0.780   8.311 -0.2425 -0.2424 -0.2723
  420POPI   C4B 6556   9.149   0.446   8.170  0.0730 -0.0880  0.1829
  421POPI    C1 6557   1.649   8.250   9.882  0.1653 -0.0416  0.0806
  421POPI    C2 6558   1.810   8.494  10.156  0.0204  0.0225  0.1095
  421POPI    C3 6559   1.868   8.099  10.180 -0.0939  0.0165  0.3043
  421POPI   PO4 6560   1.762   8.319   9.654 -0.6450  0.0411 -0.1284
  421POPI   GL1 6561   2.173   8.330   9.344  0.4853  0.1136 -0.0299
  421POPI   GL2 6562   2.566   8.369   9.583  0.0073  0.0582 -0.2544
  421POPI   C1A 6563   2.150   8.423   8.968 -0.1429  0.1072  0.2011
  421POPI   D2A 6564   2.336   8.256   8.593  0.3314 -0.0655  0.1329
  421POPI   C3A 6565   2.420   8.377   8.154 -0.2438  0.1068 -0.1660
  421POPI   C4A 6566   2.338   8.533   7.685 -0.0497 -0.1079  0.1469
  421POPI   C1B 6567   2.537   8.101   9.181  0.1627  0.2784 -0.1626
  421POPI   C2B 6568   2.244   7.858   8.995 -0.1169  0.1622  0.2863
  421POPI   C3B 6569   1.876   7.545   9.009 -0.0560 -0.1060 -0.4097
  421POPI   C4B 6570   1.969   7.047   9.115 -0.1400 -0.0833  0.0838
  422POPI    C1 6571   1.568  14.511  10.315  0.1007  0.1598  0.0431
  422POPI    C2 6572   1.560  14.127  10.429  0.0896  0.1150 -0.1054
  422POPI    C3 6573   1.735  14.402  10.661 -0.1362  0.0640  0.1292
  422POPI   PO4 6574   1.365  14.449  10.089  0.1526  0.1133 -0.0543
  422POPI   GL1 6575   0.977  14.487   9.709  0.0791 -0.0987  0.1031
  422POPI   GL2 6576   1.342  14.616   9.619 -0.1848  0.1460  0.1319
  422POPI   C1A 6577   1.047  14.096   9.465 -0.0701  0.0483  0.1951
  422POPI   D2A 6578   1.138  13.832   9.167  0.2684  0.3453 -0.1904
  422POPI   C3A 6579   1.018  13.816   8.790 -0.3025 -0.0647 -0.3267
  422POPI   C4A 6580   0.984  13.764   8.434 -0.0571  0.0916  0.2118
  422POPI   C1B 6581   1.163  14.538   9.270 -0.1663 -0.0832 -0.3280
  422POPI   C2B 6582   0.982  14.323   8.954  0.0957  0.4387 -0.0592
  422POPI   C3B 6583   0.786  14.209   8.532 -0.0533 -0.3059  0.2465
  422POPI   C4B 6584   0.894  14.130   8.086  0.2125  0.2341  0.0907
  423DPPI    C1 6585  12.176   2.360  10.049  0.1277  0.0965  0.0623
  423DPPI    C2 6586  11.994   2.063  10.246  0.3148 -0.1259 -0.0944
  423DPPI    C3 6587  12.212   2.332  10.447 -0.1784  0.1457  0.0958
  423DPPI   PO4 6588  12.332   2.231   9.871  0.1708  0.1941 -0.0435
  423DPPI   GL1 6589  12.377   2.267   9.474  0.0234 -0.1052  0.0667
  423DPPI   GL2 6590  12.530   2.609   9.386  0.2038  0.2577 -0.0753
  423DPPI   C1A 6591  12.249   2.307   9.047  0.2195  0.0515 -0.0819
  423DPPI   C2A 6592  12.255   2.575   8.637 -0.0896  0.1330 -0.2524
  423DPPI   C3A 6593  12.355   2.700   8.316 -0.2470  0.0031  0.0353
  423DPPI   C4A 6594  12.684   3.067   8.283  0.1232 -0.3603  0.2819
  423DPPI   C1B 6595  12.311   2.821   9.120 -0.2370 -0.1007  0.3945
  423DPPI   C2B 6596  12.266   3.070   8.767 -0.2389  0.0892  0.0081
  423DPPI   C3B 6597  12.158   3.211   8.450  0.0417  0.2844 -0.1495
  423DPPI   C4B 6598  11.836   3.415   8.215  0.1620  0.1422  0.0670
  424DPPI    C1 6599   0.949   5.677   9.695  0.1581 -0.1710 -0.0817
  424DPPI    C2 6600   0.962   5.554  10.076 -0.1197 -0.2817 -0.1053
  424DPPI    C3 6601   1.264   5.769   9.924 -0.0571 -0.1426  0.2085
  424DPPI   PO4 6602   0.978   5.520   9.537  0.2016  0.2153 -0.0070
  424DPPI   GL1 6603   1.045   5.475   9.165  0.0740  0.3197 -0.1662
  424DPPI   GL2 6604   1.207   5.518   8.939 -0.1457 -0.4193  0.0701
  424DPPI   C1A 6605   0.858   5.090   8.885  0.3182 -0.1266  0.2561
  424DPPI   C2A 6606   0.882   4.917   8.467 -0.1627 -0.3465  0.0757
  424DPPI   C3A 6607   1.053   4.874   8.140  0.2190  0.4078  0.3278
  424DPPI   C4A 6608   1.431   4.854   7.969 -0.3152 -0.3225 -0.2240
  424DPPI   C1B 6609   1.371   5.717   8.550 -0.1337  0.4761 -0.0128
  424DPPI   C2B 6610   1.497   5.783   8.065  0.2068  0.3459  0.1387
  424DPPI   C3B 6611   1.642   5.936   7.703  0.0553  0.0378  0.1593
  424DPPI   C4B 6612   1.867   5.666   7.405  0.1258  0.2172 -0.2212
  425DPPI    C1 6613   9.864  13.848  10.525  0.0239 -0.2788 -0.0688
  425DPPI    C2 6614   9.635  13.956  10.215 -0.0001  0.0185  0.0497
  425DPPI    C3 6615   9.563  14.105  10.579  0.0628 -0.2854  0.1900
  425DPPI   PO4 6616   9.929  13.584  10.364 -0.1420  0.3679 -0.1276
  425DPPI   GL1 6617  10.140  13.666  10.041  0.0580 -0.2858  0.1313
  425DPPI   GL2 6618  10.124  13.325  10.015  0.0744  0.2780 -0.0660
  425DPPI   C1A 6619   9.971  13.847   9.598  0.4302  0.1424 -0.3937
  425DPPI   C2A 6620   9.857  13.635   9.185 -0.1341  0.2058 -0.1254
  425DPPI   C3A 6621   9.944  13.303   8.867 -0.1335 -0.3100 -0.4932
  425DPPI   C4A 6622   9.864  12.995   8.672  0.0207 -0.0135  0.1629
  425DPPI   C1B 6623  10.217  13.279   9.526  0.1623 -0.0420  0.0963
  425DPPI   C2B 6624  10.373  13.023   9.289  0.2199  0.1712  0.2330
  425DPPI   C3B 6625  10.284  12.897   8.904  0.3521  0.1836  0.3938
  425DPPI   C4B 6626  10.332  12.624   8.688 -0.0887  0.1386  0.1466
  426DPPI    C1 6627   7.494  15.496   9.683 -0.0590  0.0202 -0.1811
  426DPPI    C2 6628   7.441  15.154   9.885  0.2658  0.0690 -0.0065
  426DPPI    C3 6629   7.224  15.477   9.978  0.1506 -0.0132  0.0116
  426DPPI   PO4 6630   7.596  15.493   9.437  0.1450 -0.0210 -0.3770
  426DPPI   GL1 6631   7.362  15.407   9.076 -0.1386  0.0608 -0.1063
  426DPPI   GL2 6632   7.032  15.418   9.094  0.0434  0.1129  0.0244
  426DPPI   C1A 6633   7.608  15.354   8.650 -0.0394  0.0643  0.0957
  426DPPI   C2A 6634   7.615  15.174   8.189  0.0058  0.0232 -0.1075
  426DPPI   C3A 6635   7.668  14.871   7.803 -0.4999 -0.2146 -0.2574
  426DPPI   C4A 6636   8.000  14.699   7.555  0.1831 -0.1162  0.0059
  426DPPI   C1B 6637   7.000  15.679   8.680 -0.0750 -0.0432 -0.0338
  426DPPI   C2B 6638   6.938  15.825   8.195  0.1015  0.0686  0.1146
  426DPPI   C3B 6639   6.758  15.739   7.893  0.0549 -0.1246 -0.0823
  426DPPI   C4B 6640   6.950  15.506   7.534  0.1365 -0.2968  0.1106
  427DPPI    C1 6641  11.690  14.062  10.247  0.0425  0.1056 -0.2475
  427DPPI    C2 6642  11.731  14.034  10.644  0.2979  0.1525 -0.2687
  427DPPI    C3 6643  11.560  14.358  10.483  0.0896  0.0821 -0.1919
  427DPPI   PO4 6644  11.942  14.036  10.119 -0.2998  0.1468 -0.2594
  427DPPI   GL1 6645  11.951  13.927   9.677 -0.2515 -0.2122  0.2212
  427DPPI   GL2 6646  12.250  13.782   9.565 -0.0887  0.0478  0.1445
  427DPPI   C1A 6647  11.641  13.649   9.441 -0.1465 -0.0607 -0.1705
  427DPPI   C2A 6648  11.631  13.533   8.982 -0.0147 -0.2107  0.1093
  427DPPI   C3A 6649  11.426  13.513   8.658  0.0915  0.2959  0.0324
  427DPPI   C4A 6650  11.394  13.238   8.324  0.3816 -0.2856  0.4093
  427DPPI   C1B 6651  12.097  13.848   9.156  0.0474 -0.2908 -0.2644
  427DPPI   C2B 6652  12.008  13.890   8.765 -0.0069 -0.1945 -0.1824
  427DPPI   C3B 6653  11.881  13.667   8.473 -0.0728  0.1325 -0.5245
  427DPPI   C4B 6654  11.847  13.534   8.079 -0.0137  0.1175 -0.1240
  428DPPI    C1 6655  18.607  10.969   9.722 -0.0952 -0.1568 -0.2748
  428DPPI    C2 6656  18.868  10.733   9.912  0.0742  0.3551  0.1524
  428DPPI    C3 6657  18.481  10.720  10.009 -0.0124 -0.1342 -0.2184
  428DPPI   PO4 6658  18.754  11.026   9.530 -0.0584 -0.1026  0.1365
  428DPPI   GL1 6659  18.867  11.023   9.192  0.0055 -0.2858 -0.5826
  428DPPI   GL2 6660  19.203  11.228   9.248  0.4948  0.3004  0.1586
  428DPPI   C1A 6661  18.842  10.916   8.740 -0.1536 -0.0454 -0.0090
  428DPPI   C2A 6662  18.811  10.794   8.378  0.1290 -0.0922 -0.3202
  428DPPI   C3A 6663  18.665  10.513   7.966  0.0663 -0.0112  0.0220
  428DPPI   C4A 6664  18.333  10.211   7.959  0.0464  0.4725  0.1458
  428DPPI   C1B 6665  19.190  11.348   8.820  0.1639 -0.3093 -0.1664
  428DPPI   C2B 6666  19.327  11.398   8.339 -0.1975 -0.0282  0.0797
  428DPPI   C3B 6667  19.341  11.511   7.863  0.1412  0.0882  0.1577
  428DPPI   C4B 6668  19.036  11.430   7.640 -0.0326  0.3156  0.1756
  429DPPI    C1 6669   6.013   9.773  10.261 -0.1621 -0.2387 -0.2434
  429DPPI    C2 6670   5.990  10.169  10.212 -0.1374 -0.2500 -0.3485
  429DPPI    C3 6671   5.787   9.992  10.507  0.1758 -0.1089 -0.0410
  429DPPI   PO4 6672   5.938   9.663   9.988  0.2170 -0.2025 -0.1577
  429DPPI   GL1 6673   6.344   9.618   9.726 -0.0467 -0.1101 -0.0968
  429DPPI   GL2 6674   6.235   9.279   9.724  0.0604  0.1344  0.1279
  429DPPI   C1A 6675   6.144   9.560   9.303 -0.0777 -0.1733 -0.1876
  429DPPI   C2A 6676   6.085   9.681   8.970  0.1043  0.0790  0.3148
  429DPPI   C3A 6677   6.145   9.765   8.519  0.0118 -0.4891 -0.4982
  429DPPI   C4A 6678   6.098   9.551   8.022 -0.1282 -0.4201  0.0661
  429DPPI   C1B 6679   6.194   8.875   9.543  0.0553  0.0461 -0.1566
  429DPPI   C2B 6680   5.943   8.779   9.182  0.0850  0.0480  0.1738
  429DPPI   C3B 6681   6.142   8.754   8.795 -0.3334  0.0279  0.1165
  429DPPI   C4B 6682   6.271   8.532   8.396  0.2979 -0.2682 -0.1253
  430DPPI    C1 6683  15.884  12.906  10.538  0.0250  0.1875 -0.0883
  430DPPI    C2 6684  15.771  13.110  10.213 -0.0033  0.0003 -0.1972
  430DPPI    C3 6685  16.093  13.226  10.420 -0.1619  0.3019 -0.1136
  430DPPI   PO4 6686  15.834  12.606  10.413  0.0531  0.0662  0.1168
  430DPPI   GL1 6687  15.803  12.426  10.137 -0.3121  0.4286 -0.3092
  430DPPI   GL2 6688  15.594  12.389   9.988 -0.0802 -0.1947 -0.1616
  430DPPI   C1A 6689  16.150  12.335   9.793 -0.0352  0.2830 -0.0630
  430DPPI   C2A 6690  16.067  12.608   9.409  0.2970 -0.1494 -0.0728
  430DPPI   C3A 6691  15.937  12.842   9.051  0.4509 -0.3042 -0.5278
  430DPPI   C4A 6692  15.697  12.676   8.646 -0.2907  0.0454 -0.0400
  430DPPI   C1B 6693  15.646  12.361   9.452  0.1419  0.0679  0.2222
  430DPPI   C2B 6694  15.479  12.267   9.163 -0.2218 -0.0955  0.0626
  430DPPI   C3B 6695  15.379  12.285   8.760 -0.1701  0.1672  0.2006
  430DPPI   C4B 6696  15.206  12.207   8.434 -0.1773 -0.0882  0.0335
  431DPPI    C1 6697   0.954   6.216   9.810  0.0205  0.1427  0.2252
  431DPPI    C2 6698   0.664   5.979   9.950 -0.0868  0.0913 -0.0781
  431DPPI    C3 6699   0.913   6.162  10.204 -0.2898  0.0171  0.1778
  431DPPI   PO4 6700   0.914   6.164   9.536 -0.1477 -0.1441  0.0776
  431DPPI   GL1 6701   0.914   6.403   9.222 -0.3605 -0.0631 -0.2437
  431DPPI   GL2 6702   0.880   6.059   9.051  0.3060  0.1145  0.1568
  431DPPI   C1A 6703   0.759   6.537   8.831 -0.3023  0.0772  0.0285
  431DPPI   C2A 6704   0.776   6.470   8.358 -0.1018 -0.0850  0.0608
  431DPPI   C3A 6705   0.852   6.424   7.892  0.0689 -0.0938 -0.2023
  431DPPI   C4A 6706   0.892   6.766   7.602 -0.0616 -0.3129 -0.0912
  431DPPI   C1B 6707   0.911   6.031   8.650 -0.4449  0.0815  0.0637
  431DPPI   C2B 6708   1.090   6.049   8.217 -0.0127  0.2418  0.0660
  431DPPI   C3B 6709   1.246   6.174   7.835 -0.0841  0.0172 -0.1483
  431DPPI   C4B 6710   1.260   6.376   7.549  0.2272 -0.2192 -0.0880
  432DPPI    C1 6711   1.039  15.151  10.487 -0.1428 -0.0770  0.2140
  432DPPI    C2 6712   0.961  15.510  10.646 -0.3676 -0.0121 -0.0343
  432DPPI    C3 6713   1.332  15.361  10.661 -0.2756  0.2226  0.0840
  432DPPI   PO4 6714   0.943  15.235  10.195  0.2029  0.1389  0.3017
  432DPPI   GL1 6715   1.060  14.984   9.779 -0.1567  0.0001 -0.0969
  432DPPI   GL2 6716   1.309  15.092   9.561  0.3227 -0.4138 -0.3022
  432DPPI   C1A 6717   0.711  15.043   9.496  0.0800 -0.2078 -0.0706
  432DPPI   C2A 6718   0.532  15.124   9.023 -0.4442 -0.0654 -0.1968
  432DPPI   C3A 6719   0.411  15.309   8.599  0.0150  0.0185  0.0260
  432DPPI   C4A 6720   0.685  15.404   8.273  0.0583 -0.3341  0.0807
  432DPPI   C1B 6721   1.108  15.047   9.199  0.1909 -0.2156  0.4043
  432DPPI   C2B 6722   1.134  14.714   8.748  0.1819 -0.0083  0.0295
  432DPPI   C3B 6723   1.041  14.582   8.276  0.0913 -0.0161  0.0282
  432DPPI   C4B 6724   0.634  14.649   8.106 -0.1059 -0.1692  0.0715
  433DPPI    C1 6725   6.896   6.338   9.804 -0.2011  0.1611 -0.1235
  433DPPI    C2 6726   6.869   6.565  10.133  0.1219  0.1726 -0.1021
  433DPPI    C3 6727   6.614   6.261  10.078  0.1093  0.1276  0.1926
  433DPPI   PO4 6728   6.979   6.409   9.625 -0.0172 -0.0758 -0.2816
  433DPPI   GL1 6729   6.778   6.545   9.336 -0.1769 -0.2749 -0.2420
  433DPPI   GL2 6730   6.587   6.439   9.254  0.3075  0.2263  0.0749
  433DPPI   C1A 6731   6.997   6.663   8.963  0.2775 -0.3145 -0.1434
  433DPPI   C2A 6732   7.040   6.552   8.568  0.1528 -0.0222 -0.1984
  433DPPI   C3A 6733   7.126   6.665   8.149  0.2039  0.2292 -0.1450
  433DPPI   C4A 6734   6.942   6.866   7.820 -0.1957  0.1723 -0.0829
  433DPPI   C1B 6735   6.445   6.481   8.822  0.0173 -0.2082  0.1833
  433DPPI   C2B 6736   6.594   6.487   8.375 -0.1871 -0.0510 -0.2191
  433DPPI   C3B 6737   6.693   6.419   8.003  0.1612  0.0349  0.1641
  433DPPI   C4B 6738   6.694   5.915   7.971  0.1135  0.2198  0.3987
  434DPPI    C1 6739  11.725   7.645  10.569  0.3259 -0.1372  0.2227
  434DPPI    C2 6740  11.828   7.925  10.304 -0.0254 -0.1169  0.1027
  434DPPI    C3 6741  12.081   7.627  10.387  0.0747 -0.1466 -0.2856
  434DPPI   PO4 6742  11.481   7.794  10.660 -0.0461  0.1273 -0.1703
  434DPPI   GL1 6743  11.354   8.037  10.298  0.1478  0.2494 -0.0701
  434DPPI   GL2 6744  11.154   8.132  10.164 -0.0516 -0.1550  0.0842
  434DPPI   C1A 6745  11.630   8.138   9.909 -0.2063  0.1740 -0.3775
  434DPPI   C2A 6746  11.510   8.264   9.478 -0.1245 -0.1046  0.0707
  434DPPI   C3A 6747  11.486   8.549   9.110 -0.2405 -0.0771  0.0394
  434DPPI   C4A 6748  11.655   9.015   9.079  0.0013  0.1829 -0.0255
  434DPPI   C1B 6749  11.145   8.023   9.778 -0.1963  0.0836  0.0398
  434DPPI   C2B 6750  11.129   7.867   9.409 -0.0844 -0.1796 -0.1764
  434DPPI   C3B 6751  11.179   8.045   9.048  0.1603 -0.2981 -0.3222
  434DPPI   C4B 6752  10.806   8.111   8.664 -0.1311 -0.2699 -0.1707
  435DPPI    C1 6753  18.128  11.843  10.099  0.1269  0.0105 -0.0178
  435DPPI    C2 6754  18.452  12.049  10.208 -0.1325  0.3154  0.1974
  435DPPI    C3 6755  18.191  11.927  10.485 -0.0498 -0.1976  0.0585
  435DPPI   PO4 6756  18.068  11.933   9.897 -0.2785 -0.2927 -0.0468
  435DPPI   GL1 6757  18.223  11.817   9.478  0.1242  0.2141  0.2686
  435DPPI   GL2 6758  18.076  11.552   9.561  0.0294  0.0985 -0.1106
  435DPPI   C1A 6759  18.281  11.939   9.032  0.2357 -0.1423 -0.0657
  435DPPI   C2A 6760  18.051  11.919   8.609  0.0361  0.0834 -0.1773
  435DPPI   C3A 6761  18.030  12.057   8.143  0.0707  0.1378  0.1942
  435DPPI   C4A 6762  17.724  12.061   7.877 -0.2693 -0.0573  0.1866
  435DPPI   C1B 6763  17.708  11.466   9.282 -0.1890 -0.3416  0.0925
  435DPPI   C2B 6764  17.521  11.731   8.924  0.4790 -0.1526 -0.0100
  435DPPI   C3B 6765  17.464  12.073   8.619 -0.0228  0.0088 -0.0090
  435DPPI   C4B 6766  17.585  12.346   8.282 -0.2606  0.0456 -0.1024
  436DPPI    C1 6767   0.031  15.945  10.555 -0.0763 -0.3396 -0.1741
  436DPPI    C2 6768  -0.116  15.889  10.923 -0.0046 -0.1491 -0.1153
  436DPPI    C3 6769   0.190  15.666  10.794 -0.1202 -0.3112 -0.1116
  436DPPI   PO4 6770  -0.113  16.079  10.369  0.0052  0.0919 -0.0790
  436DPPI   GL1 6771  -0.117  16.008   9.867 -0.0230 -0.1364 -0.3372
  436DPPI   GL2 6772   0.174  16.296   9.886  0.1285 -0.2121  0.1861
  436DPPI   C1A 6773  -0.143  16.027   9.466  0.1095 -0.0495  0.1872
  436DPPI   C2A 6774  -0.207  16.034   8.947 -0.1042  0.1044 -0.0708
  436DPPI   C3A 6775  -0.328  15.919   8.502 -0.3203  0.0657  0.2727
  436DPPI   C4A 6776  -0.266  15.905   8.080 -0.1912 -0.1236 -0.0319
  436DPPI   C1B 6777   0.547  16.411   9.673  0.2329  0.1566  0.0686
  436DPPI   C2B 6778   0.756  16.581   9.391 -0.2752 -0.1590  0.0952
  436DPPI   C3B 6779   1.066  16.861   9.366  0.0779 -0.0307  0.0960
  436DPPI   C4B 6780   1.511  16.971   9.412 -0.0593 -0.0038  0.0144
  437DPPI    C1 6781   6.566  18.207   9.920  0.0821  0.3063  0.1219
  437DPPI    C2 6782   6.209  18.243  10.095  0.0253  0.0412  0.0654
  437DPPI    C3 6783   6.436  17.922  10.170  0.1478  0.0925 -0.0836
  437DPPI   PO4 6784   6.457  18.260   9.680 -0.2382  0.1501  0.1499
  437DPPI   GL1 6785   6.766  18.175   9.354 -0.4210 -0.0639  0.0497
  437DPPI   GL2 6786   6.864  18.543   9.237 -0.1222 -0.0797 -0.5701
  437DPPI   C1A 6787   7.027  18.165   8.997 -0.2082  0.4670 -0.0720
  437DPPI   C2A 6788   7.360  18.148   8.746  0.0831 -0.0636 -0.1498
  437DPPI   C3A 6789   7.578  18.257   8.323  0.0788  0.1403  0.1153
  437DPPI   C4A 6790   7.602  18.468   8.029  0.2971 -0.2064  0.0539
  437DPPI   C1B 6791   6.891  18.632   8.881  0.2637  0.0279  0.0429
  437DPPI   C2B 6792   7.077  18.654   8.538 -0.3868 -0.0453  0.2191
  437DPPI   C3B 6793   7.339  18.884   8.204  0.1280 -0.2548 -0.2088
  437DPPI   C4B 6794   7.403  19.351   8.022 -0.3175 -0.1061  0.0178
  438DPPI    C1 6795   5.180   3.876   9.835 -0.1199  0.1557 -0.2379
  438DPPI    C2 6796   4.936   3.838  10.149  0.0866 -0.0752 -0.1019
  438DPPI    C3 6797   5.252   3.596  10.112  0.3261  0.2535 -0.2483
  438DPPI   PO4 6798   4.994   4.128   9.630  0.1246 -0.1154  0.1301
  438DPPI   GL1 6799   5.054   3.999   9.299  0.2582 -0.0665  0.0167
  438DPPI   GL2 6800   5.229   3.742   9.361  0.2387  0.0136  0.0171
  438DPPI   C1A 6801   4.807   3.838   8.939 -0.2043 -0.1810 -0.0542
  438DPPI   C2A 6802   4.812   3.871   8.599  0.2010  0.0543 -0.0372
  438DPPI   C3A 6803   4.952   3.890   8.174 -0.0230  0.0456 -0.0161
  438DPPI   C4A 6804   5.213   4.091   7.772 -0.1094 -0.1548 -0.0001
  438DPPI   C1B 6805   5.314   3.630   8.954 -0.0822 -0.2978 -0.1511
  438DPPI   C2B 6806   5.248   3.589   8.467  0.0246 -0.3012 -0.1818
  438DPPI   C3B 6807   5.304   3.511   8.020 -0.0440  0.4645  0.0049
  438DPPI   C4B 6808   5.266   3.605   7.550  0.0469  0.0523  0.0773
  439DPPI    C1 6809  13.074   7.490  10.601  0.0210 -0.0685 -0.1310
  439DPPI    C2 6810  13.452   7.563  10.709  0.0179  0.1124 -0.2380
  439DPPI    C3 6811  13.331   7.187  10.642  0.0238 -0.0066  0.3658
  439DPPI   PO4 6812  13.020   7.667  10.301 -0.0911 -0.2047  0.0770
  439DPPI   GL1 6813  13.182   7.659   9.889  0.0795 -0.1856 -0.0683
  439DPPI   GL2 6814  12.941   7.470   9.796 -0.1862 -0.2735 -0.0072
  439DPPI   C1A 6815  13.203   7.929   9.510 -0.2152 -0.0913  0.3827
  439DPPI   C2A 6816  13.152   7.976   8.995  0.1300  0.0056  0.1282
  439DPPI   C3A 6817  13.158   8.160   8.641  0.0153  0.1570 -0.1359
  439DPPI   C4A 6818  12.908   8.370   8.356  0.2187 -0.0963  0.0546
  439DPPI   C1B 6819  12.878   7.519   9.366 -0.0325  0.2119  0.0313
  439DPPI   C2B 6820  12.813   7.535   8.946  0.1275  0.1884  0.1730
  439DPPI   C3B 6821  12.521   7.493   8.705 -0.1273  0.2378 -0.3365
  439DPPI   C4B 6822  12.127   7.268   8.531  0.3220  0.2258  0.1795
  440DPPI    C1 6823   8.147   8.694  10.670  0.1751  0.2851 -0.0708
  440DPPI    C2 6824   8.444   8.425  10.670 -0.1768 -0.1153  0.0352
  440DPPI    C3 6825   8.094   8.337  10.498 -0.4041  0.1558  0.3449
  440DPPI   PO4 6826   8.343   8.936  10.644 -0.1371 -0.3208 -0.0999
  440DPPI   GL1 6827   8.664   9.182  10.423  0.1559  0.0754  0.2243
  440DPPI   GL2 6828   8.756   9.381  10.262 -0.0458 -0.0731  0.0298
  440DPPI   C1A 6829   9.047   8.939  10.213 -0.2755  0.0423  0.1531
  440DPPI   C2A 6830   9.151   9.091   9.859 -0.1256 -0.0820 -0.0500
  440DPPI   C3A 6831   9.197   9.301   9.431 -0.3506  0.0799 -0.2254
  440DPPI   C4A 6832   9.422   9.533   9.131 -0.2493  0.0168 -0.0884
  440DPPI   C1B 6833   8.639   9.122   9.875 -0.2128  0.0304 -0.0333
  440DPPI   C2B 6834   8.443   9.124   9.464  0.4313 -0.1183 -0.0348
  440DPPI   C3B 6835   8.401   9.181   8.957  0.0590 -0.1813 -0.2002
  440DPPI   C4B 6836   8.600   9.223   8.523  0.3962 -0.2205  0.1590
  441DPPI    C1 6837  15.786   3.378  10.239  0.0975  0.1424 -0.1518
  441DPPI    C2 6838  15.887   3.086   9.985 -0.0244  0.1747 -0.2386
  441DPPI    C3 6839  16.154   3.223  10.249 -0.0347 -0.1725 -0.0420
  441DPPI   PO4 6840  15.713   3.558  10.070  0.0093  0.0538 -0.0784
  441DPPI   GL1 6841  15.844   3.909   9.790  0.0882  0.0978 -0.2047
  441DPPI   GL2 6842  15.627   4.116   9.664 -0.0477 -0.0674  0.0713
  441DPPI   C1A 6843  16.148   3.856   9.473  0.1255  0.2111  0.2227
  441DPPI   C2A 6844  16.244   3.664   9.158 -0.1931 -0.0655  0.1003
  441DPPI   C3A 6845  16.313   3.538   8.796  0.2720  0.1850 -0.1322
  441DPPI   C4A 6846  16.432   3.449   8.356  0.0748  0.1066  0.2654
  441DPPI   C1B 6847  15.435   4.103   9.234  0.2328 -0.1747 -0.2371
  441DPPI   C2B 6848  15.220   3.937   8.920  0.3845 -0.0168  0.0669
  441DPPI   C3B 6849  14.950   3.842   8.597  0.0038 -0.2353  0.0134
  441DPPI   C4B 6850  14.622   3.729   8.293  0.2997  0.0668 -0.3152
  442DPPI    C1 6851   9.969   1.585  10.306 -0.0160 -0.0489 -0.0603
  442DPPI    C2 6852  10.226   1.282  10.254 -0.0013 -0.0367 -0.0585
  442DPPI    C3 6853   9.870   1.216  10.423  0.2160  0.0416  0.4484
  442DPPI   PO4 6854  10.053   1.730  10.036 -0.0656  0.3104 -0.0860
  442DPPI   GL1 6855  10.153   1.927   9.624 -0.0440 -0.0531  0.0397
  442DPPI   GL2 6856  10.070   2.211   9.762  0.1059 -0.0131  0.1273
  442DPPI   C1A 6857  10.077   1.810   9.187  0.1113  0.1546  0.0838
  442DPPI   C2A 6858  10.136   1.688   8.780 -0.0129  0.0196 -0.1933
  442DPPI   C3A 6859   9.976   1.784   8.413 -0.1762 -0.0713  0.1766
  442DPPI   C4A 6860   9.627   1.959   8.359 -0.2539 -0.2648  0.1410
  442DPPI   C1B 6861   9.885   2.243   9.295  0.1460 -0.1969  0.0452
  442DPPI   C2B 6862   9.863   2.132   8.804  0.0058 -0.0734  0.1919
  442DPPI   C3B 6863  10.013   2.290   8.465 -0.2366  0.0625 -0.2842
  442DPPI   C4B 6864  10.116   2.150   8.025  0.3597 -0.4409 -0.3423
  443DPPI    C1 6865   0.005  13.671  10.458  0.0333 -0.4854 -0.0190
  443DPPI    C2 6866   0.348  13.770  10.278 -0.1392  0.2157  0.0078
  443DPPI    C3 6867   0.351  13.639  10.656  0.0944  0.2685  0.0260
  443DPPI   PO4 6868  -0.121  13.642  10.216 -0.0765 -0.1213 -0.2635
  443DPPI   GL1 6869  -0.326  13.441   9.887  0.0393  0.2423 -0.2215
  443DPPI   GL2 6870  -0.374  13.726   9.737  0.0231  0.1785  0.2675
  443DPPI   C1A 6871  -0.166  13.342   9.509 -0.2834 -0.2774  0.2246
  443DPPI   C2A 6872  -0.203  13.344   9.161  0.1474  0.0068  0.0768
  443DPPI   C3A 6873  -0.349  13.722   8.827 -0.0989 -0.1612  0.3079
  443DPPI   C4A 6874  -0.264  14.082   8.688 -0.0409 -0.0878 -0.0175
  443DPPI   C1B 6875  -0.305  13.797   9.392 -0.0025  0.2036 -0.1254
  443DPPI   C2B 6876  -0.443  14.183   9.139 -0.0951 -0.1545 -0.0833
  443DPPI   C3B 6877  -0.825  14.310   9.146 -0.3096 -0.0457 -0.0524
  443DPPI   C4B 6878  -1.110  14.493   9.357 -0.2514  0.0884  0.1628
  444DPPI    C1 6879   6.600   8.964  10.666  0.0109 -0.2062  0.1202
  444DPPI    C2 6880   6.316   9.136  10.889  0.2036  0.0945  0.1398
  444DPPI    C3 6881   6.641   8.981  11.063  0.2956  0.2178  0.0797
  444DPPI   PO4 6882   6.647   9.110  10.473  0.1593  0.0785 -0.1200
  444DPPI   GL1 6883   6.860   9.182  10.015 -0.0988  0.1297  0.0854
  444DPPI   GL2 6884   6.719   9.034   9.762  0.1795  0.3478  0.3032
  444DPPI   C1A 6885   7.215   8.906   9.974 -0.0702 -0.0316  0.2562
  444DPPI   C2A 6886   7.466   8.743   9.598 -0.1036 -0.3112  0.0957
  444DPPI   C3A 6887   7.370   8.455   9.304 -0.0357  0.0950 -0.1336
  444DPPI   C4A 6888   7.137   8.568   9.022 -0.4783  0.1081  0.2944
  444DPPI   C1B 6889   6.903   8.752   9.447 -0.0438  0.3453  0.1389
  444DPPI   C2B 6890   6.731   8.780   9.173  0.0274 -0.3811  0.3474
  444DPPI   C3B 6891   6.560   8.626   8.906  0.1377  0.1044  0.0175
  444DPPI   C4B 6892   6.808   8.538   8.626  0.1590 -0.1662 -0.1719
  445DPPI    C1 6893  11.836  16.650   9.889 -0.0035  0.0403 -0.2960
  445DPPI    C2 6894  11.511  16.444   9.781  0.0646 -0.3042  0.1294
  445DPPI    C3 6895  11.642  16.427  10.158  0.1958  0.3615  0.1261
  445DPPI   PO4 6896  12.016  16.602   9.774  0.1426 -0.3543  0.3582
  445DPPI   GL1 6897  12.027  16.553   9.305  0.2577  0.2963 -0.0364
  445DPPI   GL2 6898  11.771  16.340   9.415 -0.0474  0.0992  0.0126
  445DPPI   C1A 6899  12.040  16.440   8.877 -0.0310  0.0274  0.3057
  445DPPI   C2A 6900  12.139  16.638   8.434 -0.2945 -0.2375  0.2004
  445DPPI   C3A 6901  12.115  16.590   8.027 -0.0004 -0.2426  0.5427
  445DPPI   C4A 6902  12.295  16.418   7.629 -0.1114  0.2046  0.0683
  445DPPI   C1B 6903  11.624  15.930   9.513 -0.0963 -0.1446 -0.2000
  445DPPI   C2B 6904  11.654  15.525   9.322 -0.2644 -0.2527 -0.0353
  445DPPI   C3B 6905  11.872  15.386   8.977  0.3450 -0.0889  0.1367
  445DPPI   C4B 6906  11.941  15.370   8.544  0.0269 -0.0554  0.0056
  446DPPI    C1 6907  17.851   2.716  10.369 -0.0829  0.0920  0.0987
  446DPPI    C2 6908  17.641   2.520  10.648 -0.1913  0.0762  0.0067
  446DPPI    C3 6909  17.828   2.861  10.742 -0.1269  0.0078  0.1291
  446DPPI   PO4 6910  17.656   2.671  10.184  0.1217  0.0821  0.2720
  446DPPI   GL1 6911  17.222   2.423  10.041  0.0470  0.1786  0.2855
  446DPPI   GL2 6912  17.535   2.292   9.802  0.0531 -0.1048  0.0347
  446DPPI   C1A 6913  16.874   2.629   9.734  0.0365 -0.2620  0.1832
  446DPPI   C2A 6914  16.853   2.776   9.309  0.1183 -0.1696 -0.0746
  446DPPI   C3A 6915  17.011   3.190   9.113  0.2830  0.3014  0.2200
  446DPPI   C4A 6916  17.314   3.382   8.856  0.0643  0.0680  0.0112
  446DPPI   C1B 6917  17.351   2.596   9.555 -0.3298  0.1625  0.4257
  446DPPI   C2B 6918  17.317   2.727   9.156 -0.2338 -0.3561 -0.0421
  446DPPI   C3B 6919  17.431   2.889   8.750  0.0326 -0.0743  0.0224
  446DPPI   C4B 6920  17.088   3.057   8.443  0.2845 -0.1887 -0.2707
  447DPPI    C1 6921   1.867  10.703   9.547 -0.1956  0.0301  0.0317
  447DPPI    C2 6922   1.890  10.941   9.867 -0.1286 -0.0285  0.0708
  447DPPI    C3 6923   1.643  11.034   9.566 -0.0829  0.1043  0.0738
  447DPPI   PO4 6924   1.897  10.476   9.662 -0.2045  0.2268 -0.0060
  447DPPI   GL1 6925   2.074  10.149   9.449 -0.0280  0.1999 -0.2899
  447DPPI   GL2 6926   1.999   9.869   9.390  0.2766  0.3663  0.1459
  447DPPI   C1A 6927   2.143  10.315   9.038 -0.2156  0.1587 -0.2520
  447DPPI   C2A 6928   2.047  10.167   8.639 -0.1006 -0.0585 -0.0184
  447DPPI   C3A 6929   1.945  10.290   8.201 -0.0037 -0.3528  0.1842
  447DPPI   C4A 6930   1.874  10.121   7.785  0.0886 -0.0514 -0.0032
  447DPPI   C1B 6931   2.060   9.791   9.005  0.2223  0.0130  0.0975
  447DPPI   C2B 6932   2.030   9.439   8.859  0.0088  0.1700  0.0778
  447DPPI   C3B 6933   1.811   9.183   8.541 -0.1525 -0.0699  0.2300
  447DPPI   C4B 6934   1.770   9.263   8.022 -0.2508 -0.1347 -0.8603
  448DPPI    C1 6935   7.363   7.211   9.917 -0.2155 -0.0071 -0.0694
  448DPPI    C2 6936   7.167   6.936  10.131 -0.1330  0.1158  0.1676
  448DPPI    C3 6937   7.540   7.040  10.232  0.0123 -0.0252 -0.2048
  448DPPI   PO4 6938   7.422   7.142   9.708 -0.3444 -0.0058  0.2329
  448DPPI   GL1 6939   7.643   6.832   9.350  0.1285 -0.0575 -0.2124
  448DPPI   GL2 6940   7.268   6.879   9.258 -0.2630 -0.0452  0.2658
  448DPPI   C1A 6941   7.705   6.997   8.909  0.0048 -0.1808 -0.0391
  448DPPI   C2A 6942   7.823   7.372   8.602 -0.2040 -0.0871 -0.2580
  448DPPI   C3A 6943   7.748   7.687   8.338  0.3028 -0.1739 -0.0855
  448DPPI   C4A 6944   7.441   7.974   8.368 -0.3383 -0.1285  0.1415
  448DPPI   C1B 6945   7.228   7.094   8.884  0.1454 -0.0060 -0.1437
  448DPPI   C2B 6946   7.379   7.062   8.473  0.0883 -0.0160 -0.0878
  448DPPI   C3B 6947   7.354   7.119   8.061 -0.1836 -0.1791 -0.0897
  448DPPI   C4B 6948   7.226   7.213   7.643  0.0667  0.0715  0.1844
  449DPPI    C1 6949   1.432  15.334  10.106  0.0251  0.1666  0.1043
  449DPPI    C2 6950   1.364  14.943  10.157  0.1287  0.1241 -0.0727
  449DPPI    C3 6951   1.677  15.116  10.336  0.1655  0.0950 -0.1085
  449DPPI   PO4 6952   1.470  15.449   9.817 -0.2192  0.0336 -0.2301
  449DPPI   GL1 6953   1.734  15.376   9.482  0.0230 -0.1086 -0.1037
  449DPPI   GL2 6954   1.985  15.332   9.500  0.1643  0.2253  0.0242
  449DPPI   C1A 6955   1.387  15.485   9.192  0.0144 -0.0039  0.0553
  449DPPI   C2A 6956   1.139  15.658   8.913  0.1048  0.1271 -0.2274
  449DPPI   C3A 6957   1.065  16.008   8.757  0.2093 -0.1066 -0.3377
  449DPPI   C4A 6958   1.292  16.215   8.417 -0.0889  0.2554  0.0123
  449DPPI   C1B 6959   1.926  15.167   9.063 -0.2375  0.0196 -0.0522
  449DPPI   C2B 6960   2.063  15.237   8.701 -0.1855 -0.1798  0.0622
  449DPPI   C3B 6961   2.378  15.196   8.258  0.1231 -0.0650 -0.1309
  449DPPI   C4B 6962   2.400  15.191   7.898 -0.1409 -0.0756 -0.2788
  450DPPI    C1 6963   9.447   6.157  10.367  0.1887 -0.3123 -0.1392
  450DPPI    C2 6964   9.657   6.033  10.683  0.2393 -0.0877 -0.0825
  450DPPI    C3 6965   9.331   5.832  10.568  0.1744 -0.1255  0.1612
  450DPPI   PO4 6966   9.619   6.118  10.107  0.0373  0.1234 -0.0913
  450DPPI   GL1 6967   9.724   6.330   9.832  0.2196 -0.0290 -0.0913
  450DPPI   GL2 6968  10.041   6.416  10.010  0.0907  0.0254 -0.2044
  450DPPI   C1A 6969  10.065   6.362   9.402  0.2689 -0.1137 -0.2055
  450DPPI   C2A 6970  10.217   6.307   9.058 -0.3005 -0.0498 -0.1225
  450DPPI   C3A 6971  10.185   6.462   8.601  0.0829  0.1189  0.0935
  450DPPI   C4A 6972  10.123   6.459   8.148  0.2733  0.3687  0.0590
  450DPPI   C1B 6973   9.968   6.766   9.682 -0.0182 -0.0276  0.1841
  450DPPI   C2B 6974   9.878   6.771   9.185 -0.3137 -0.1237  0.1398
  450DPPI   C3B 6975   9.902   6.779   8.855  0.1867  0.1605  0.4070
  450DPPI   C4B 6976  10.226   7.045   8.619  0.2185  0.0705  0.2043
  451DPPI    C1 6977   4.295   1.713   9.811 -0.0705  0.0114 -0.0594
  451DPPI    C2 6978   4.242   1.356   9.984  0.0718 -0.0474 -0.1355
  451DPPI    C3 6979   4.265   1.687  10.209 -0.0669 -0.0849 -0.0652
  451DPPI   PO4 6980   4.361   1.731   9.608 -0.1999  0.1415 -0.2446
  451DPPI   GL1 6981   4.535   2.060   9.449  0.0598  0.0168  0.2447
  451DPPI   GL2 6982   4.816   2.035   9.406 -0.4246 -0.1236 -0.3288
  451DPPI   C1A 6983   4.649   1.963   8.996 -0.1788  0.1047 -0.1681
  451DPPI   C2A 6984   4.793   1.523   8.832  0.1777  0.1252 -0.0930
  451DPPI   C3A 6985   4.806   1.214   8.519 -0.1180 -0.0793  0.2366
  451DPPI   C4A 6986   5.075   0.894   8.231  0.0763  0.2131  0.0877
  451DPPI   C1B 6987   5.151   1.894   8.953 -0.1338 -0.1493  0.0281
  451DPPI   C2B 6988   5.238   1.826   8.564 -0.4159  0.1272 -0.0232
  451DPPI   C3B 6989   5.282   1.981   8.138 -0.1101  0.0974 -0.1498
  451DPPI   C4B 6990   5.299   2.308   7.907  0.3328 -0.1074 -0.1550
  452DPPI    C1 6991   4.676   1.132   9.601  0.0411 -0.1082 -0.1506
  452DPPI    C2 6992   4.885   1.105   9.942  0.0824  0.0133 -0.1658
  452DPPI    C3 6993   4.730   1.456   9.829 -0.0286 -0.0507 -0.2153
  452DPPI   PO4 6994   4.628   0.909   9.520  0.4242 -0.1303 -0.0465
  452DPPI   GL1 6995   4.242   0.841   9.278  0.3672  0.2671  0.3932
  452DPPI   GL2 6996   4.393   0.747   9.090  0.0880 -0.5381 -0.2788
  452DPPI   C1A 6997   4.327   1.225   8.785  0.0546 -0.1827  0.1177
  452DPPI   C2A 6998   4.336   1.603   8.592  0.1183 -0.3197 -0.0487
  452DPPI   C3A 6999   4.551   2.024   8.310 -0.1609  0.1493 -0.1903
  452DPPI   C4A 7000   4.789   1.998   7.956 -0.0823 -0.0130  0.1016
  452DPPI   C1B 7001   4.088   0.712   8.782  0.0692  0.1621  0.1688
  452DPPI   C2B 7002   3.886   0.308   8.608  0.2857 -0.0752 -0.0650
  452DPPI   C3B 7003   3.620   0.292   8.253  0.0429  0.1501 -0.2829
  452DPPI   C4B 7004   3.318   0.219   7.986 -0.0166  0.1093  0.1181
  453DPPI    C1 7005  15.605   0.100  11.096 -0.1155 -0.2250 -0.1525
  453DPPI    C2 7006  15.868  -0.160  11.248 -0.3014 -0.3211  0.0088
  453DPPI    C3 7007  15.526  -0.084  11.442 -0.0909  0.3161  0.1529
  453DPPI   PO4 7008  15.566   0.021  10.815  0.1180 -0.3762 -0.1061
  453DPPI   GL1 7009  15.489   0.267  10.383  0.0720 -0.0293 -0.2477
  453DPPI   GL2 7010  15.552   0.506  10.026  0.2016 -0.0937 -0.2619
  453DPPI   C1A 7011  15.422  -0.004  10.057  0.0483  0.2548  0.3268
  453DPPI   C2A 7012  15.168  -0.295   9.729  0.0293  0.1745  0.1156
  453DPPI   C3A 7013  14.996  -0.306   9.373 -0.0727  0.1303  0.0523
  453DPPI   C4A 7014  15.119  -0.217   8.944  0.2710 -0.0205 -0.2399
  453DPPI   C1B 7015  15.749   0.069   9.743 -0.1300  0.0885  0.1189
  453DPPI   C2B 7016  15.695  -0.016   9.349 -0.0935  0.0405 -0.0250
  453DPPI   C3B 7017  15.653  -0.172   8.959 -0.1440 -0.0561  0.2059
  453DPPI   C4B 7018  15.636  -0.483   8.530 -0.2186  0.2397  0.1115
  454DPPI    C1 7019   6.891   1.601  10.396 -0.0145  0.3957  0.0399
  454DPPI    C2 7020   7.117   1.349  10.610 -0.1782  0.0322 -0.2057
  454DPPI    C3 7021   6.821   1.552  10.787 -0.1105 -0.0250 -0.0251
  454DPPI   PO4 7022   6.914   1.437  10.162 -0.0852 -0.0429 -0.3403
  454DPPI   GL1 7023   6.943   1.289   9.748 -0.4086  0.2342  0.0289
  454DPPI   GL2 7024   6.905   0.899   9.741 -0.3275 -0.1538  0.3335
  454DPPI   C1A 7025   6.962   1.251   9.324 -0.1645  0.1041 -0.0495
  454DPPI   C2A 7026   7.276   1.111   9.022  0.0919  0.0024  0.0386
  454DPPI   C3A 7027   7.425   0.789   8.746  0.0933 -0.0109  0.0757
  454DPPI   C4A 7028   7.617   0.391   8.668  0.1133 -0.1298 -0.1603
  454DPPI   C1B 7029   6.865   0.678   9.424 -0.1624  0.0627  0.2717
  454DPPI   C2B 7030   6.903   0.762   8.931 -0.0356 -0.1120  0.0901
  454DPPI   C3B 7031   7.017   1.007   8.541 -0.2269 -0.1148 -0.1491
  454DPPI   C4B 7032   7.366   1.083   8.278  0.2504 -0.0580  0.1235
  455DPPI    C1 7033  12.685  16.740  10.283  0.2358  0.0275  0.3431
  455DPPI    C2 7034  12.352  16.958  10.326  0.2544  0.0753  0.2480
  455DPPI    C3 7035  12.464  16.705  10.615  0.0757 -0.0232  0.2325
  455DPPI   PO4 7036  12.699  16.729   9.962  0.3201  0.2350 -0.2288
  455DPPI   GL1 7037  12.604  16.976   9.527 -0.2668 -0.1456  0.1449
  455DPPI   GL2 7038  12.329  16.941   9.360 -0.2111  0.0201  0.0554
  455DPPI   C1A 7039  12.587  17.356   9.112 -0.4567  0.0507 -0.0758
  455DPPI   C2A 7040  12.693  17.539   8.705 -0.0238 -0.3691 -0.4261
  455DPPI   C3A 7041  12.972  17.463   8.213 -0.1780  0.3636  0.0872
  455DPPI   C4A 7042  13.131  17.701   7.972  0.1047 -0.0762 -0.1319
  455DPPI   C1B 7043  12.219  16.952   8.963  0.1704  0.3128  0.1241
  455DPPI   C2B 7044  12.276  17.223   8.567  0.3391  0.2030 -0.0934
  455DPPI   C3B 7045  12.399  17.518   8.261  0.1844  0.1771 -0.0753
  455DPPI   C4B 7046  12.558  17.850   8.182 -0.0704 -0.1059 -0.0162
  456DPPI    C1 7047   4.546  18.328   9.800  0.1567  0.1038 -0.3798
  456DPPI    C2 7048   4.240  18.118   9.651  0.0195  0.0601 -0.0468
  456DPPI    C3 7049   4.175  18.391   9.936  0.2852  0.0881 -0.0104
  456DPPI   PO4 7050   4.678  18.399   9.627  0.2572 -0.0349 -0.2965
  456DPPI   GL1 7051   4.479  18.537   9.363 -0.0549  0.2896  0.1223
  456DPPI   GL2 7052   4.275  18.790   9.511  0.0205 -0.2746 -0.0196
  456DPPI   C1A 7053   4.525  18.402   8.897 -0.3319 -0.2683  0.0107
  456DPPI   C2A 7054   4.347  18.638   8.663  0.0435  0.1711 -0.1269
  456DPPI   C3A 7055   4.354  18.715   8.308  0.0301  0.1609 -0.0485
  456DPPI   C4A 7056   4.122  18.796   7.931  0.1279  0.2215 -0.0497
  456DPPI   C1B 7057   4.392  19.016   9.110 -0.3016 -0.0651 -0.1741
  456DPPI   C2B 7058   4.396  19.117   8.628 -0.2611 -0.0103  0.1983
  456DPPI   C3B 7059   4.217  19.171   8.221  0.0830  0.3071  0.1626
  456DPPI   C4B 7060   4.292  19.549   7.797  0.0441  0.1497  0.2516
  457DPPI    C1 7061   3.420   0.515   9.863  0.1313 -0.0646 -0.0187
  457DPPI    C2 7062   3.794   0.529  10.004  0.1092  0.0404  0.0305
  457DPPI    C3 7063   3.505   0.744  10.180  0.0246 -0.0437 -0.0047
  457DPPI   PO4 7064   3.484   0.418   9.603 -0.1843  0.1481 -0.0896
  457DPPI   GL1 7065   3.347   0.339   9.143  0.0668 -0.0460  0.0603
  457DPPI   GL2 7066   3.048   0.451   9.027  0.0057 -0.0564  0.2539
  457DPPI   C1A 7067   3.523   0.137   8.911  0.1519 -0.0009  0.1939
  457DPPI   C2A 7068   3.410  -0.153   8.568 -0.3434 -0.0866  0.0649
  457DPPI   C3A 7069   3.315  -0.352   8.243 -0.1077  0.1417  0.3676
  457DPPI   C4A 7070   3.078  -0.296   7.826  0.4156 -0.2084 -0.1602
  457DPPI   C1B 7071   3.167   0.303   8.589 -0.0694  0.0685 -0.1123
  457DPPI   C2B 7072   3.226   0.576   8.289  0.1298 -0.1080 -0.2102
  457DPPI   C3B 7073   3.465   0.712   7.949 -0.2700  0.1230 -0.1210
  457DPPI   C4B 7074   3.824   0.460   7.830  0.0768 -0.0990  0.2666
  458DPPI    C1 7075  10.464   0.827  10.150 -0.2120  0.0824  0.1691
  458DPPI    C2 7076  10.283   0.610   9.868  0.0402 -0.1697  0.1961
  458DPPI    C3 7077  10.144   0.606  10.243 -0.0579 -0.1482  0.1604
  458DPPI   PO4 7078  10.763   0.754  10.135 -0.0211 -0.1008 -0.2051
  458DPPI   GL1 7079  10.991   1.000   9.850  0.5650 -0.0579 -0.2515
  458DPPI   GL2 7080  10.877   1.260   9.608 -0.0724 -0.2800 -0.2007
  458DPPI   C1A 7081  11.259   0.711   9.514 -0.0248  0.0570 -0.1002
  458DPPI   C2A 7082  11.411   0.615   9.147 -0.2866  0.0296 -0.0654
  458DPPI   C3A 7083  11.284   0.461   8.766  0.0971 -0.2542  0.1488
  458DPPI   C4A 7084  11.329   0.496   8.331 -0.0647 -0.1826  0.0996
  458DPPI   C1B 7085  10.981   1.387   9.309  0.0818  0.1932  0.2051
  458DPPI   C2B 7086  11.080   1.431   8.964  0.1178  0.2699 -0.0150
  458DPPI   C3B 7087  11.095   1.391   8.463  0.2470  0.1516 -0.0953
  458DPPI   C4B 7088  11.420   1.381   8.064  0.0462  0.0684  0.0880
  459DPPI    C1 7089   5.918  13.039   9.827 -0.2312  0.0194 -0.0072
  459DPPI    C2 7090   5.868  13.185  10.196 -0.0467  0.0913 -0.0093
  459DPPI    C3 7091   5.758  13.402   9.879  0.1883  0.2110 -0.0108
  459DPPI   PO4 7092   5.835  12.873   9.805  0.0525 -0.1537  0.1070
  459DPPI   GL1 7093   6.139  12.402   9.660 -0.0829  0.0892  0.0406
  459DPPI   GL2 7094   6.139  12.619   9.517 -0.2017 -0.0288 -0.2347
  459DPPI   C1A 7095   6.496  12.148   9.494 -0.0111  0.1363  0.0787
  459DPPI   C2A 7096   6.623  12.186   9.102  0.1341  0.0720  0.2567
  459DPPI   C3A 7097   6.660  12.110   8.681 -0.0261 -0.1102 -0.1882
  459DPPI   C4A 7098   6.932  11.996   8.375  0.1840  0.0501 -0.0232
  459DPPI   C1B 7099   6.224  12.482   9.091  0.0245  0.1072 -0.0139
  459DPPI   C2B 7100   6.270  12.501   8.731  0.0297  0.1305  0.1751
  459DPPI   C3B 7101   6.268  12.451   8.297  0.0549 -0.5805 -0.1422
  459DPPI   C4B 7102   6.507  12.188   8.094  0.1132  0.2466  0.0921
  460DPPI    C1 7103   6.245  11.888  10.104 -0.1105 -0.0111 -0.0011
  460DPPI    C2 7104   6.209  12.244  10.281  0.1904  0.0833 -0.1225
  460DPPI    C3 7105   6.260  11.915  10.503 -0.0950  0.1117 -0.0098
  460DPPI   PO4 7106   5.987  11.941   9.891  0.2363  0.0888  0.0218
  460DPPI   GL1 7107   5.733  11.610   9.786 -0.0084 -0.0175 -0.2603
  460DPPI   GL2 7108   5.449  11.595   9.789 -0.1791  0.0680 -0.0832
  460DPPI   C1A 7109   5.946  11.370   9.449 -0.2385  0.0801  0.1345
  460DPPI   C2A 7110   6.046  11.435   8.950  0.0594 -0.0399 -0.2692
  460DPPI   C3A 7111   6.062  11.512   8.478  0.0665  0.1629 -0.0166
  460DPPI   C4A 7112   5.812  11.397   8.110 -0.0354 -0.1087 -0.1805
  460DPPI   C1B 7113   5.556  11.769   9.283 -0.1924  0.0093  0.3060
  460DPPI   C2B 7114   5.567  11.717   8.757 -0.1258  0.1394 -0.1072
  460DPPI   C3B 7115   5.562  11.895   8.337 -0.0911 -0.2604  0.1022
  460DPPI   C4B 7116   5.661  11.844   7.918  0.0756  0.0123  0.2229
  461DPPI    C1 7117  11.585   4.909  10.118  0.3030  0.1211  0.2919
  461DPPI    C2 7118  11.265   5.139  10.185 -0.1204 -0.3636  0.0054
  461DPPI    C3 7119  11.435   4.940  10.488  0.0075  0.0066  0.1839
  461DPPI   PO4 7120  11.565   4.929   9.882  0.1922  0.1051  0.4323
  461DPPI   GL1 7121  11.830   4.886   9.533 -0.0323  0.0384 -0.3095
  461DPPI   GL2 7122  11.875   5.129   9.516  0.0435 -0.3784 -0.3236
  461DPPI   C1A 7123  12.022   4.861   9.110  0.0185  0.1332 -0.0636
  461DPPI   C2A 7124  12.080   5.080   8.710  0.1495 -0.2606  0.0121
  461DPPI   C3A 7125  11.959   5.280   8.338  0.0232 -0.0472  0.0544
  461DPPI   C4A 7126  11.791   5.488   7.886 -0.4564  0.1859  0.2164
  461DPPI   C1B 7127  11.849   5.464   9.121  0.1108 -0.2116  0.2164
  461DPPI   C2B 7128  11.783   5.718   8.766 -0.3965  0.0661 -0.4621
  461DPPI   C3B 7129  11.917   5.802   8.304  0.1313  0.2523  0.0064
  461DPPI   C4B 7130  11.739   6.079   8.045 -0.0323  0.2563 -0.3172
  462DPPI    C1 7131  18.123   6.336   9.590 -0.1030 -0.0956  0.1652
  462DPPI    C2 7132  18.448   6.110   9.529 -0.0064  0.0556  0.1129
  462DPPI    C3 7133  18.211   6.040   9.844  0.0063 -0.1362  0.0808
  462DPPI   PO4 7134  18.144   6.437   9.267 -0.2366  0.1413 -0.1041
  462DPPI   GL1 7135  18.187   6.831   8.956 -0.1119  0.2303  0.1549
  462DPPI   GL2 7136  18.149   7.099   8.972  0.0802  0.0559 -0.1745
  462DPPI   C1A 7137  18.446   6.842   8.647  0.0845  0.0508  0.0914
  462DPPI   C2A 7138  18.384   6.599   8.303  0.1557 -0.1323 -0.0859
  462DPPI   C3A 7139  18.225   6.784   7.857 -0.1357  0.2255  0.1723
  462DPPI   C4A 7140  18.228   7.171   7.570 -0.0679  0.2936  0.1338
  462DPPI   C1B 7141  18.323   7.322   8.584 -0.0797  0.3375  0.0018
  462DPPI   C2B 7142  18.366   7.204   8.152 -0.0279 -0.4557  0.1643
  462DPPI   C3B 7143  18.698   7.239   7.867  0.0645 -0.0003 -0.0862
  462DPPI   C4B 7144  18.814   7.694   7.680  0.1101 -0.1933  0.0190
  463DPPI    C1 7145   1.097  18.303  10.184  0.2741 -0.0779  0.0959
  463DPPI    C2 7146   1.383  18.183   9.932  0.2139  0.0343 -0.0268
  463DPPI    C3 7147   1.461  18.212  10.323  0.3339 -0.0532 -0.0435
  463DPPI   PO4 7148   0.884  18.276  10.042  0.1137  0.1035  0.1044
  463DPPI   GL1 7149   0.591  18.514   9.841  0.1496  0.0953  0.0672
  463DPPI   GL2 7150   0.361  18.307   9.945 -0.0423 -0.3439 -0.1576
  463DPPI   C1A 7151   0.471  18.491   9.289  0.1433 -0.2655 -0.1013
  463DPPI   C2A 7152   0.613  18.478   8.874 -0.1497 -0.3432 -0.1701
  463DPPI   C3A 7153   0.673  18.517   8.421  0.2386 -0.4460 -0.1287
  463DPPI   C4A 7154   0.697  18.406   7.889 -0.1102 -0.1975  0.2238
  463DPPI   C1B 7155   0.276  18.063   9.605  0.3425  0.0026 -0.2569
  463DPPI   C2B 7156   0.173  18.108   9.169  0.1457 -0.0678 -0.3049
  463DPPI   C3B 7157   0.218  18.157   8.764 -0.1210  0.2122 -0.1747
  463DPPI   C4B 7158   0.184  18.421   8.282 -0.5385 -0.4522  0.0448
  464DPPI    C1 7159   8.794  12.834  10.806  0.0348  0.1758 -0.1308
  464DPPI    C2 7160   8.776  12.435  10.830  0.1665  0.1795  0.0555
  464DPPI    C3 7161   8.624  12.660  11.124 -0.1969  0.2753 -0.1978
  464DPPI   PO4 7162   8.712  12.897  10.494 -0.0727  0.1449  0.0725
  464DPPI   GL1 7163   8.640  13.163  10.150 -0.0631 -0.0028 -0.2428
  464DPPI   GL2 7164   8.577  13.541  10.159 -0.1631  0.0056  0.1739
  464DPPI   C1A 7165   8.732  13.310   9.698  0.0640 -0.2435  0.2909
  464DPPI   C2A 7166   8.895  13.346   9.266 -0.0701  0.0530  0.0614
  464DPPI   C3A 7167   8.885  13.236   8.940 -0.2725 -0.2691 -0.2182
  464DPPI   C4A 7168   8.896  13.370   8.552  0.1297 -0.1020  0.0558
  464DPPI   C1B 7169   8.483  13.753   9.710  0.2731 -0.2611 -0.0493
  464DPPI   C2B 7170   8.534  13.719   9.232  0.0605 -0.1600  0.1378
  464DPPI   C3B 7171   8.648  13.745   8.879  0.0273 -0.1274  0.0628
  464DPPI   C4B 7172   8.834  13.957   8.570 -0.2226  0.1500  0.2314
  465DPPI    C1 7173   4.322  17.262   9.412  0.2268  0.0991 -0.0138
  465DPPI    C2 7174   4.490  17.179   9.765  0.3368 -0.1030 -0.1124
  465DPPI    C3 7175   4.130  17.031   9.676  0.1723  0.2001  0.0355
  465DPPI   PO4 7176   4.359  17.527   9.398  0.2799 -0.2272  0.2457
  465DPPI   GL1 7177   4.356  17.848   9.154  0.0417 -0.3369 -0.0522
  465DPPI   GL2 7178   4.566  17.988   9.319  0.0930  0.2435 -0.2844
  465DPPI   C1A 7179   4.390  17.669   8.707  0.2926  0.1830 -0.0585
  465DPPI   C2A 7180   4.220  17.661   8.294 -0.2411  0.0587 -0.1899
  465DPPI   C3A 7181   4.384  17.649   7.832 -0.0800  0.3045  0.0773
  465DPPI   C4A 7182   4.373  17.278   7.444 -0.0303  0.0777 -0.1058
  465DPPI   C1B 7183   4.747  17.965   8.838 -0.0171  0.0627 -0.0170
  465DPPI   C2B 7184   4.850  18.273   8.507  0.3482  0.0834  0.1061
  465DPPI   C3B 7185   4.786  18.523   8.209 -0.2502  0.0508 -0.0602
  465DPPI   C4B 7186   4.625  18.674   7.840  0.0340 -0.0073  0.0650
  466DPPI    C1 7187   3.997  15.781   9.988 -0.1476 -0.0628 -0.1342
  466DPPI    C2 7188   4.193  15.833   9.644 -0.0165 -0.3464 -0.1057
  466DPPI    C3 7189   4.311  15.550   9.900  0.0461  0.0278  0.2922
  466DPPI   PO4 7190   3.747  15.993   9.923  0.0231 -0.1001 -0.1431
  466DPPI   GL1 7191   3.738  16.004   9.528  0.0963 -0.0071 -0.0859
  466DPPI   GL2 7192   3.600  16.302   9.436  0.1342 -0.0346  0.2017
  466DPPI   C1A 7193   3.835  15.775   9.202  0.0389  0.1958 -0.1045
  466DPPI   C2A 7194   3.605  15.917   8.804 -0.0461 -0.1326  0.1872
  466DPPI   C3A 7195   3.501  15.935   8.424  0.3468 -0.3150  0.5134
  466DPPI   C4A 7196   3.541  15.982   8.027  0.1550 -0.2113  0.2461
  466DPPI   C1B 7197   3.726  16.390   8.995  0.1919 -0.0681 -0.0958
  466DPPI   C2B 7198   3.615  16.446   8.682  0.0099  0.1510  0.2692
  466DPPI   C3B 7199   3.570  16.468   8.226 -0.1399 -0.0210  0.2703
  466DPPI   C4B 7200   3.462  16.540   7.832 -0.0663 -0.1199 -0.1094
  467DPPI    C1 7201   1.641   3.059  10.001 -0.0911 -0.1249 -0.1186
  467DPPI    C2 7202   1.420   2.775  10.175 -0.1104 -0.0350  0.0057
  467DPPI    C3 7203   1.365   3.159  10.273  0.0458 -0.0051 -0.0218
  467DPPI   PO4 7204   1.851   2.806   9.804 -0.2415  0.0442 -0.0247
  467DPPI   GL1 7205   1.952   2.743   9.440  0.2464  0.0589 -0.2099
  467DPPI   GL2 7206   1.899   2.373   9.421 -0.2000  0.2241  0.1092
  467DPPI   C1A 7207   2.116   2.717   9.001  0.1726 -0.0667 -0.2549
  467DPPI   C2A 7208   2.226   2.750   8.538  0.0054 -0.1928  0.0613
  467DPPI   C3A 7209   2.347   2.906   8.096  0.0664  0.1706  0.2009
  467DPPI   C4A 7210   2.406   3.134   7.761 -0.2089 -0.0829  0.2515
  467DPPI   C1B 7211   1.527   2.147   9.350 -0.0873  0.1160  0.2245
  467DPPI   C2B 7212   1.187   1.986   9.057 -0.1037  0.1099 -0.0183
  467DPPI   C3B 7213   0.871   1.683   8.938 -0.1476 -0.3483 -0.0809
  467DPPI   C4B 7214   0.532   1.535   8.901  0.0187  0.1083 -0.3878
  468DPPI    C1 7215   1.198   8.759   9.748  0.0936  0.1055  0.0183
  468DPPI    C2 7216   1.199   9.079   9.989  0.3377  0.1889 -0.0899
  468DPPI    C3 7217   1.538   8.877   9.924  0.1350 -0.2575  0.1904
  468DPPI   PO4 7218   0.949   8.850   9.607 -0.1663  0.0073 -0.1068
  468DPPI   GL1 7219   0.707   8.957   9.241 -0.0475  0.2942  0.2759
  468DPPI   GL2 7220   0.656   9.243   9.277 -0.0581  0.4233  0.0060
  468DPPI   C1A 7221   1.004   8.929   8.963 -0.0142  0.3183  0.1796
  468DPPI   C2A 7222   1.253   8.775   8.719 -0.0768  0.2309  0.1208
  468DPPI   C3A 7223   1.392   8.444   8.380  0.0792  0.1706 -0.0924
  468DPPI   C4A 7224   1.419   8.386   7.937  0.2497 -0.1039 -0.2591
  468DPPI   C1B 7225   0.631   9.239   8.807 -0.1302 -0.1893 -0.0336
  468DPPI   C2B 7226   0.829   9.486   8.498  0.3211 -0.3011 -0.2604
  468DPPI   C3B 7227   0.873   9.620   8.023  0.0212 -0.1191  0.0340
  468DPPI   C4B 7228   0.877   9.638   7.671 -0.2114 -0.1611 -0.3350
  469DPPI    C1 7229   0.513   0.307  10.712 -0.1229  0.1233  0.0523
  469DPPI    C2 7230   0.589   0.355  11.102  0.0035 -0.2294  0.0750
  469DPPI    C3 7231   0.888   0.281  10.847 -0.0896 -0.0927 -0.0762
  469DPPI   PO4 7232   0.216   0.467  10.733 -0.1553  0.1424  0.1395
  469DPPI   GL1 7233   0.059   0.431  10.307  0.1104  0.2039  0.2887
  469DPPI   GL2 7234  -0.297   0.324  10.284 -0.1735 -0.4348  0.0306
  469DPPI   C1A 7235   0.052   0.333   9.843  0.2053 -0.2319  0.1906
  469DPPI   C2A 7236   0.011   0.342   9.365  0.4529 -0.1820  0.3536
  469DPPI   C3A 7237  -0.169   0.355   8.937  0.0745 -0.3006  0.0093
  469DPPI   C4A 7238  -0.203   0.282   8.476 -0.0670  0.4053 -0.1550
  469DPPI   C1B 7239  -0.450   0.447   9.871 -0.1520 -0.1929 -0.1971
  469DPPI   C2B 7240  -0.474   0.530   9.442 -0.2560 -0.3073  0.3674
  469DPPI   C3B 7241  -0.647   0.627   9.135 -0.0550 -0.3219 -0.0461
  469DPPI   C4B 7242  -0.652   0.501   8.602 -0.0052 -0.1885 -0.0745
  470DPPI    C1 7243  14.887   7.175   9.810 -0.1606 -0.1392 -0.2146
  470DPPI    C2 7244  14.672   7.211  10.146  0.0060 -0.5438 -0.0584
  470DPPI    C3 7245  14.737   7.531   9.915 -0.0011 -0.2304  0.3608
  470DPPI   PO4 7246  14.737   6.922   9.724  0.4078  0.0293  0.0446
  470DPPI   GL1 7247  14.538   7.192   9.434 -0.0921 -0.1045  0.1184
  470DPPI   GL2 7248  14.631   7.460   9.415 -0.1152 -0.1800 -0.1703
  470DPPI   C1A 7249  14.767   7.072   9.030 -0.0464 -0.1456  0.0770
  470DPPI   C2A 7250  15.124   6.846   8.942  0.0576 -0.2771 -0.1401
  470DPPI   C3A 7251  15.585   6.698   8.854  0.0434  0.2923  0.0871
  470DPPI   C4A 7252  15.858   6.476   8.660  0.3658  0.0025 -0.1864
  470DPPI   C1B 7253  14.595   7.516   9.003 -0.3472  0.0244 -0.1745
  470DPPI   C2B 7254  14.586   7.747   8.651  0.0564  0.0776 -0.3480
  470DPPI   C3B 7255  14.688   7.519   8.275  0.0439 -0.0783 -0.1624
  470DPPI   C4B 7256  14.603   7.371   7.949  0.1032  0.2579  0.2496
  471DPPI    C1 7257   3.565   8.069  10.209  0.2340 -0.1468 -0.1594
  471DPPI    C2 7258   3.891   8.289  10.136 -0.0559  0.3414 -0.0290
  471DPPI    C3 7259   3.685   8.343  10.475 -0.0930 -0.1947  0.0429
  471DPPI   PO4 7260   3.680   7.782  10.121  0.1093  0.0001  0.1584
  471DPPI   GL1 7261   4.025   7.953   9.707 -0.0030  0.3306 -0.0966
  471DPPI   GL2 7262   3.639   7.786   9.623  0.1739  0.0650  0.2032
  471DPPI   C1A 7263   3.879   7.904   9.225  0.4181 -0.1334  0.1943
  471DPPI   C2A 7264   3.712   8.005   8.854 -0.3517 -0.0653  0.1262
  471DPPI   C3A 7265   3.925   8.211   8.515  0.0920 -0.0303 -0.1588
  471DPPI   C4A 7266   4.069   8.276   8.148 -0.1274 -0.1569 -0.0316
  471DPPI   C1B 7267   3.590   7.516   9.200 -0.3156 -0.1890  0.2631
  471DPPI   C2B 7268   3.627   7.529   8.756  0.2537  0.3012 -0.0101
  471DPPI   C3B 7269   3.704   7.590   8.321  0.1008 -0.3630  0.1353
  471DPPI   C4B 7270   3.661   7.607   7.883  0.1484  0.2226  0.2655
  472DPPI    C1 7271   2.820  13.336  10.249 -0.1014  0.0713  0.1195
  472DPPI    C2 7272   2.877  12.957  10.365  0.1693  0.0967  0.0767
  472DPPI    C3 7273   2.721  13.223  10.619 -0.1188 -0.0656  0.0740
  472DPPI   PO4 7274   2.711  13.274   9.951 -0.0533  0.3843 -0.1491
  472DPPI   GL1 7275   2.695  13.094   9.533 -0.1211 -0.3821 -0.1074
  472DPPI   GL2 7276   2.814  13.394   9.410 -0.1616 -0.0565 -0.0648
  472DPPI   C1A 7277   2.354  13.051   9.317 -0.0308 -0.0540 -0.0804
  472DPPI   C2A 7278   2.170  12.908   8.914  0.2373 -0.2210  0.0551
  472DPPI   C3A 7279   2.330  13.012   8.539 -0.0484 -0.4002  0.1482
  472DPPI   C4A 7280   2.215  12.885   8.128 -0.0528  0.3783 -0.0657
  472DPPI   C1B 7281   2.662  13.312   9.062 -0.1743 -0.1486 -0.0432
  472DPPI   C2B 7282   2.685  13.291   8.656 -0.0238 -0.1018 -0.1667
  472DPPI   C3B 7283   2.825  13.249   8.258 -0.3262 -0.1204 -0.0870
  472DPPI   C4B 7284   2.983  13.461   7.920  0.1675  0.0711 -0.4593
  473PYPI    C1 7285  15.980  16.722  10.507 -0.0834 -0.1453 -0.0132
  473PYPI    C2 7286  16.126  16.356  10.572  0.3322  0.0416  0.1427
  473PYPI    C3 7287  16.055  16.599  10.880 -0.2819 -0.0274  0.0667
  473PYPI   PO4 7288  15.970  16.892  10.281  0.2870  0.2023 -0.0163
  473PYPI   GL1 7289  15.739  17.127   9.890  0.0760 -0.1589 -0.0345
  473PYPI   GL2 7290  15.443  16.951   9.774 -0.0936 -0.2992 -0.1546
  473PYPI   C1A 7291  15.679  17.270   9.486  0.1759  0.4526  0.1432
  473PYPI   C2A 7292  15.844  17.281   9.093 -0.0132 -0.0157  0.1788
  473PYPI   D3A 7293  15.860  17.586   8.705  0.3229 -0.0597 -0.0736
  473PYPI   C4A 7294  15.744  17.577   8.404  0.1027  0.1153 -0.1323
  473PYPI   C1B 7295  15.261  17.020   9.344 -0.1600  0.0901  0.2445
  473PYPI   C2B 7296  15.048  17.067   8.974 -0.0120  0.0982 -0.1047
  473PYPI   C3B 7297  15.034  16.782   8.600 -0.2735  0.1675  0.1932
  473PYPI   C4B 7298  14.976  16.561   8.158  0.0356 -0.0078 -0.1499
  474PYPI    C1 7299   0.660   1.866   9.965  0.2314  0.0154 -0.1254
  474PYPI    C2 7300   0.643   1.586  10.249  0.2209  0.0288 -0.1129
  474PYPI    C3 7301   0.700   1.969  10.349  0.0799  0.0518 -0.1186
  474PYPI   PO4 7302   0.404   1.757   9.702 -0.0155  0.0198  0.2195
  474PYPI   GL1 7303   0.065   1.954   9.624 -0.1130 -0.1342 -0.1637
  474PYPI   GL2 7304   0.174   2.236   9.421  0.0862 -0.1887 -0.0862
  474PYPI   C1A 7305  -0.042   1.831   9.159  0.2001 -0.2082 -0.1294
  474PYPI   C2A 7306  -0.111   1.678   8.765 -0.1714  0.0169 -0.3074
  474PYPI   D3A 7307   0.304   1.685   8.459 -0.3127  0.2075  0.3358
  474PYPI   C4A 7308   0.696   1.443   8.357 -0.1226 -0.2345 -0.0213
  474PYPI   C1B 7309   0.022   2.368   9.038  0.2701 -0.1198 -0.1108
  474PYPI   C2B 7310  -0.163   2.210   8.723  0.2270  0.2440  0.2783
  474PYPI   C3B 7311  -0.243   1.991   8.330 -0.1393  0.6129  0.1228
  474PYPI   C4B 7312  -0.184   2.082   7.779  0.1057 -0.1657 -0.3392
  475PYPI    C1 7313  16.334  14.629  10.237  0.2675  0.1754 -0.0075
  475PYPI    C2 7314  16.136  14.957  10.352  0.1072  0.0372  0.1163
  475PYPI    C3 7315  16.286  14.708  10.626 -0.2186 -0.2603  0.0309
  475PYPI   PO4 7316  16.456  14.762   9.991  0.0002  0.4623  0.0862
  475PYPI   GL1 7317  16.482  14.600   9.704 -0.0687  0.0667 -0.4279
  475PYPI   GL2 7318  16.815  14.458   9.624  0.0083  0.0663 -0.3409
  475PYPI   C1A 7319  16.420  14.720   9.341  0.5903 -0.1183  0.0648
  475PYPI   C2A 7320  16.521  14.533   8.986 -0.1620  0.2058  0.2586
  475PYPI   D3A 7321  16.371  14.690   8.559  0.2602  0.2465 -0.0493
  475PYPI   C4A 7322  15.915  14.906   8.563 -0.0467 -0.0923  0.0333
  475PYPI   C1B 7323  16.754  14.231   9.320 -0.3526 -0.1126 -0.1379
  475PYPI   C2B 7324  16.872  14.068   8.939 -0.0824  0.3108  0.2134
  475PYPI   C3B 7325  17.111  13.930   8.591  0.0650  0.2070  0.0050
  475PYPI   C4B 7326  17.386  14.203   8.396  0.3976  0.1230 -0.0937
  476PYPI    C1 7327   7.045  18.057   9.812 -0.1129  0.0350 -0.2366
  476PYPI    C2 7328   7.352  18.283   9.933 -0.0692 -0.1255 -0.0434
  476PYPI    C3 7329   7.027  18.455   9.775  0.0479  0.0571 -0.0888
  476PYPI   PO4 7330   7.131  17.867   9.651 -0.0462  0.0391  0.2864
  476PYPI   GL1 7331   7.361  17.778   9.222 -0.1320 -0.1859 -0.0546
  476PYPI   GL2 7332   7.306  17.363   9.165  0.0184 -0.0282 -0.2012
  476PYPI   C1A 7333   7.492  17.659   8.789 -0.0196  0.0487  0.1680
  476PYPI   C2A 7334   7.680  17.744   8.487 -0.3721 -0.0412 -0.2215
  476PYPI   D3A 7335   7.859  17.850   8.069 -0.1860 -0.2728  0.0697
  476PYPI   C4A 7336   8.250  17.809   7.834  0.2280 -0.3579 -0.2964
  476PYPI   C1B 7337   7.467  17.005   9.135 -0.1033  0.1059 -0.3182
  476PYPI   C2B 7338   7.708  16.838   8.750  0.0719  0.4081  0.1136
  476PYPI   C3B 7339   7.846  16.851   8.282  0.0013 -0.0051  0.0166
  476PYPI   C4B 7340   8.020  16.627   7.880 -0.1696 -0.1194  0.1584
  477PYPI    C1 7341  16.446  11.308  10.317 -0.0921  0.1420  0.0113
  477PYPI    C2 7342  16.052  11.241  10.318 -0.0654 -0.0185  0.1062
  477PYPI    C3 7343  16.248  11.284  10.664 -0.0090  0.1205  0.0576
  477PYPI   PO4 7344  16.540  11.239   9.980 -0.4564  0.0370 -0.0535
  477PYPI   GL1 7345  16.433  11.363   9.642 -0.3346 -0.1090  0.2144
  477PYPI   GL2 7346  16.064  11.227   9.592 -0.3914 -0.1192  0.3025
  477PYPI   C1A 7347  16.285  11.501   9.248 -0.1492 -0.0155  0.0971
  477PYPI   C2A 7348  16.528  11.530   8.842 -0.3749 -0.3974  0.0862
  477PYPI   D3A 7349  16.433  11.368   8.462 -0.2902 -0.0266  0.0020
  477PYPI   C4A 7350  16.296  11.304   8.106  0.0699  0.0492  0.0817
  477PYPI   C1B 7351  15.809  11.192   9.251  0.1029 -0.0412 -0.0240
  477PYPI   C2B 7352  15.727  11.368   8.791  0.0297  0.2874  0.2146
  477PYPI   C3B 7353  16.045  11.722   8.720  0.1101 -0.0907  0.4439
  477PYPI   C4B 7354  16.287  11.817   8.430 -0.0057  0.2176  0.0222
  478PYPI    C1 7355  17.751   5.808   9.573  0.1665  0.0459 -0.0428
  478PYPI    C2 7356  17.696   6.134   9.798 -0.0087  0.1108 -0.1772
  478PYPI    C3 7357  17.388   5.892   9.720  0.1728 -0.2329  0.1400
  478PYPI   PO4 7358  17.964   5.963   9.312 -0.1068  0.3090  0.0363
  478PYPI   GL1 7359  17.697   5.810   8.913  0.0233  0.2010 -0.2325
  478PYPI   GL2 7360  17.758   6.103   8.906 -0.5545  0.0689  0.0756
  478PYPI   C1A 7361  17.598   5.594   8.385  0.0224 -0.3570 -0.0244
  478PYPI   C2A 7362  17.579   5.400   7.871 -0.0502  0.0181  0.1891
  478PYPI   D3A 7363  17.902   5.333   7.617 -0.0542 -0.0143 -0.0916
  478PYPI   C4A 7364  18.304   5.597   7.583 -0.0011  0.2710  0.2141
  478PYPI   C1B 7365  18.014   5.889   8.559 -0.1212  0.0435  0.2512
  478PYPI   C2B 7366  18.369   5.572   8.481 -0.0515 -0.0041  0.1111
  478PYPI   C3B 7367  18.666   5.436   8.142 -0.0869  0.0668  0.0599
  478PYPI   C4B 7368  18.846   5.275   7.791  0.2424  0.4115 -0.2703
  479PYPI    C1 7369   0.836  14.332  10.211  0.1442  0.0141 -0.0255
  479PYPI    C2 7370   0.894  14.728  10.202 -0.0087  0.0340 -0.2163
  479PYPI    C3 7371   1.071  14.505  10.484 -0.1279  0.2710  0.0500
  479PYPI   PO4 7372   0.600  14.279  10.111  0.0062  0.0723  0.0864
  479PYPI   GL1 7373   0.329  14.043   9.757 -0.5793 -0.0196 -0.2732
  479PYPI   GL2 7374   0.111  13.802   9.799 -0.1408 -0.2704 -0.0212
  479PYPI   C1A 7375   0.576  13.887   9.404 -0.0180  0.1811  0.1102
  479PYPI   C2A 7376   0.575  13.975   8.916  0.4819  0.2128 -0.0731
  479PYPI   D3A 7377   0.282  13.927   8.495 -0.2283 -0.1870  0.2207
  479PYPI   C4A 7378   0.384  14.234   8.145  0.0715  0.0142  0.4413
  479PYPI   C1B 7379   0.260  13.517   9.387 -0.2301  0.1475  0.1418
  479PYPI   C2B 7380   0.166  13.658   8.983  0.0296  0.2135 -0.1133
  479PYPI   C3B 7381   0.078  13.379   8.647  0.0538  0.1898 -0.0810
  479PYPI   C4B 7382  -0.115  13.531   8.249 -0.0196  0.0568  0.0689
  480PYPI    C1 7383  18.050   0.221  10.658  0.0304 -0.1097 -0.1605
  480PYPI    C2 7384  18.347   0.473  10.749 -0.1267  0.0646 -0.1238
  480PYPI    C3 7385  18.176   0.254  11.036 -0.0630 -0.0048 -0.1382
  480PYPI   PO4 7386  17.994   0.268  10.418  0.1885 -0.2107  0.1268
  480PYPI   GL1 7387  17.855   0.321   9.980  0.0327  0.0978  0.0730
  480PYPI   GL2 7388  17.789   0.642   9.934  0.0721 -0.1693 -0.2078
  480PYPI   C1A 7389  17.846   0.296   9.579  0.0789  0.0470 -0.1388
  480PYPI   C2A 7390  17.799   0.145   9.103  0.1755 -0.2552  0.0383
  480PYPI   D3A 7391  17.634   0.337   8.755 -0.4658  0.0290 -0.0098
  480PYPI   C4A 7392  17.466   0.246   8.262  0.1247  0.3045 -0.2366
  480PYPI   C1B 7393  17.553   0.691   9.581  0.0571 -0.0478  0.1484
  480PYPI   C2B 7394  17.584   0.663   9.136 -0.0801 -0.0323  0.1865
  480PYPI   C3B 7395  17.496   0.931   8.758 -0.1259 -0.0729  0.1498
  480PYPI   C4B 7396  17.344   1.119   8.405  0.3722 -0.0205 -0.0893
  481PYPI    C1 7397   3.596   5.711   9.881  0.1240  0.1505 -0.0118
  481PYPI    C2 7398   3.657   6.037  10.104  0.0076  0.0350  0.1929
  481PYPI    C3 7399   3.734   5.675  10.255  0.2305 -0.0291 -0.0672
  481PYPI   PO4 7400   3.415   5.794   9.729 -0.2053  0.1962  0.1622
  481PYPI   GL1 7401   3.479   5.910   9.252 -0.2462 -0.0661 -0.1849
  481PYPI   GL2 7402   3.279   6.203   9.119  0.2646  0.0505  0.0375
  481PYPI   C1A 7403   3.758   5.835   8.952  0.0847  0.1740 -0.1015
  481PYPI   C2A 7404   3.984   5.575   8.601  0.1782 -0.0812  0.3815
  481PYPI   D3A 7405   4.267   5.676   8.249 -0.3081  0.1974 -0.1454
  481PYPI   C4A 7406   4.104   5.847   7.943  0.3429 -0.3811 -0.2224
  481PYPI   C1B 7407   3.313   6.020   8.724  0.2489  0.1551  0.0932
  481PYPI   C2B 7408   3.198   6.150   8.293 -0.2695  0.2191  0.0138
  481PYPI   C3B 7409   3.024   6.233   7.944 -0.1288 -0.0687 -0.0983
  481PYPI   C4B 7410   2.873   6.512   7.650  0.1900  0.2510  0.0550
  482PYPI    C1 7411   6.183   7.146  10.268 -0.2096  0.1472  0.2906
  482PYPI    C2 7412   5.985   6.890  10.503 -0.1125 -0.0519  0.1587
  482PYPI    C3 7413   6.313   7.074  10.640 -0.1981  0.0248  0.2633
  482PYPI   PO4 7414   6.089   6.984  10.028 -0.2093  0.0888 -0.1635
  482PYPI   GL1 7415   6.022   6.928   9.473 -0.1146 -0.1405 -0.0365
  482PYPI   GL2 7416   6.198   6.627   9.435 -0.0230 -0.4220  0.0395
  482PYPI   C1A 7417   6.339   6.937   9.068  0.2777 -0.0160  0.4959
  482PYPI   C2A 7418   6.634   6.949   8.728 -0.1368 -0.1256  0.1734
  482PYPI   D3A 7419   6.796   7.024   8.355  0.3470  0.0481 -0.1811
  482PYPI   C4A 7420   6.506   6.917   8.118 -0.0499 -0.1196 -0.0855
  482PYPI   C1B 7421   5.943   6.658   9.022  0.0191 -0.1530 -0.1607
  482PYPI   C2B 7422   6.007   6.638   8.640  0.1286 -0.1950 -0.3106
  482PYPI   C3B 7423   5.940   6.654   8.211  0.3319 -0.1693  0.1216
  482PYPI   C4B 7424   5.788   6.772   7.854 -0.1442 -0.1818 -0.2102
  483PYPI    C1 7425   4.888  13.755   9.969  0.1670 -0.0929 -0.1721
  483PYPI    C2 7426   4.994  13.958   9.641 -0.2141  0.0065 -0.2388
  483PYPI    C3 7427   4.609  13.938   9.748 -0.1342 -0.3318  0.0020
  483PYPI   PO4 7428   5.099  13.521   9.938 -0.3579  0.1814  0.1791
  483PYPI   GL1 7429   5.136  13.283   9.590 -0.5110  0.2243 -0.3004
  483PYPI   GL2 7430   5.055  13.494   9.418  0.3020 -0.1480  0.0475
  483PYPI   C1A 7431   5.475  13.233   9.259 -0.1690  0.2871  0.0565
  483PYPI   C2A 7432   5.815  12.960   9.062 -0.0245  0.0630  0.1660
  483PYPI   D3A 7433   5.765  12.904   8.616 -0.1177  0.2586 -0.3965
  483PYPI   C4A 7434   5.626  13.141   8.348  0.2956 -0.1427 -0.1220
  483PYPI   C1B 7435   4.962  13.729   9.028  0.2405  0.0740  0.0163
  483PYPI   C2B 7436   5.025  13.794   8.604 -0.0078  0.0565  0.0721
  483PYPI   C3B 7437   4.764  14.087   8.313  0.0545 -0.1913  0.2130
  483PYPI   C4B 7438   4.497  14.251   8.108 -0.0062  0.0298  0.0617
  484PYPI    C1 7439   9.888   4.600  10.177 -0.0019 -0.0069 -0.0901
  484PYPI    C2 7440  10.203   4.844  10.136  0.0722 -0.0699  0.0943
  484PYPI    C3 7441  10.251   4.480  10.295 -0.0622 -0.1525 -0.0510
  484PYPI   PO4 7442   9.784   4.597   9.879 -0.2194 -0.0995 -0.1555
  484PYPI   GL1 7443   9.656   4.689   9.491  0.1899  0.2602  0.1214
  484PYPI   GL2 7444  10.014   4.966   9.625 -0.1591  0.3953 -0.1056
  484PYPI   C1A 7445   9.463   4.630   9.115  0.2347  0.1017  0.0086
  484PYPI   C2A 7446   9.685   4.414   8.844  0.0117  0.0507 -0.2213
  484PYPI   D3A 7447   9.596   4.466   8.427  0.2493  0.0428  0.0699
  484PYPI   C4A 7448   9.442   4.894   8.228  0.3440 -0.2003 -0.0110
  484PYPI   C1B 7449  10.000   5.065   9.280 -0.0664 -0.0711  0.2319
  484PYPI   C2B 7450  10.014   5.126   8.972 -0.1624 -0.1058 -0.0311
  484PYPI   C3B 7451  10.175   5.225   8.536  0.0428 -0.3427  0.1275
  484PYPI   C4B 7452  10.217   5.355   8.124  0.1822  0.3333  0.1002
  485PYPI    C1 7453   1.652  10.181   9.996 -0.0249 -0.1117  0.0175
  485PYPI    C2 7454   1.507  10.550   9.945  0.0245 -0.1262 -0.2393
  485PYPI    C3 7455   1.851  10.496  10.142 -0.0313 -0.0442 -0.1180
  485PYPI   PO4 7456   1.592  10.016   9.733  0.2310 -0.0175 -0.0918
  485PYPI   GL1 7457   1.332   9.807   9.404  0.3409  0.2094 -0.0730
  485PYPI   GL2 7458   0.966   9.791   9.353  0.0066  0.3479  0.0956
  485PYPI   C1A 7459   1.527   9.695   9.005 -0.2445  0.1204 -0.0887
  485PYPI   C2A 7460   1.703   9.686   8.515  0.0065  0.1650 -0.0443
  485PYPI   D3A 7461   1.974   9.710   8.154 -0.1276 -0.0212 -0.2204
  485PYPI   C4A 7462   2.355  10.037   8.179 -0.2056  0.1384  0.1616
  485PYPI   C1B 7463   1.089   9.478   9.007 -0.0290 -0.3072 -0.0806
  485PYPI   C2B 7464   1.298   9.323   8.672 -0.2261  0.0154  0.1173
  485PYPI   C3B 7465   1.429   9.023   8.324 -0.1486  0.1794  0.0338
  485PYPI   C4B 7466   1.794   8.749   8.233 -0.1846 -0.1946  0.1128
  486PYPI    C1 7467  18.558  14.722  10.312  0.0407  0.0588 -0.0204
  486PYPI    C2 7468  18.240  14.489  10.379 -0.1649  0.3495  0.0345
  486PYPI    C3 7469  18.515  14.538  10.665  0.2249 -0.3370 -0.1974
  486PYPI   PO4 7470  18.352  15.034  10.215  0.1540 -0.0061  0.0043
  486PYPI   GL1 7471  18.337  15.187   9.817 -0.0005 -0.0677  0.3698
  486PYPI   GL2 7472  18.039  15.249   9.592  0.1508  0.1483  0.1255
  486PYPI   C1A 7473  18.361  15.101   9.239 -0.0020  0.1490 -0.1399
  486PYPI   C2A 7474  18.252  15.061   8.816 -0.0039  0.1885  0.1346
  486PYPI   D3A 7475  17.899  14.939   8.575  0.0143  0.0394  0.2694
  486PYPI   C4A 7476  17.954  15.121   8.180 -0.2190 -0.0178 -0.2804
  486PYPI   C1B 7477  17.914  15.357   9.198  0.1899 -0.0795  0.2697
  486PYPI   C2B 7478  17.802  15.361   8.746  0.1888 -0.4204  0.0788
  486PYPI   C3B 7479  18.120  15.466   8.481  0.0795 -0.0498  0.1847
  486PYPI   C4B 7480  18.440  15.464   8.270 -0.0890 -0.1042 -0.1700
  487PYPI    C1 7481   0.952  11.235   9.828  0.0744  0.0202 -0.4037
  487PYPI    C2 7482   1.029  11.572  10.030 -0.2487 -0.0646 -0.1297
  487PYPI    C3 7483   1.330  11.339   9.908 -0.0346  0.1799 -0.0766
  487PYPI   PO4 7484   0.800  11.228   9.545 -0.4459  0.0955 -0.0876
  487PYPI   GL1 7485   0.944  11.004   9.213 -0.0460 -0.0004 -0.0384
  487PYPI   GL2 7486   0.784  10.729   9.245  0.1000 -0.2412  0.0121
  487PYPI   C1A 7487   0.918  11.237   8.915 -0.3505  0.0991 -0.1281
  487PYPI   C2A 7488   1.065  11.273   8.377 -0.0656  0.0439 -0.0244
  487PYPI   D3A 7489   1.165  11.341   8.005 -0.1619  0.0304  0.0184
  487PYPI   C4A 7490   1.026  11.274   7.663 -0.1930 -0.1965 -0.0470
  487PYPI   C1B 7491   1.005  10.607   8.862 -0.0537  0.0376 -0.2172
  487PYPI   C2B 7492   0.968  10.316   8.458 -0.0992 -0.4404 -0.1027
  487PYPI   C3B 7493   1.033  10.084   8.204  0.2198  0.1368  0.0527
  487PYPI   C4B 7494   1.440   9.922   8.028 -0.0426  0.2565 -0.2434
  488PYPI    C1 7495   8.835  17.281  10.190  0.3370 -0.0651 -0.1810
  488PYPI    C2 7496   9.031  17.431  10.504  0.1317 -0.0666 -0.0498
  488PYPI    C3 7497   9.060  17.042  10.418  0.0824 -0.0921  0.0476
  488PYPI   PO4 7498   8.913  17.451  10.023 -0.1206 -0.2641  0.1719
  488PYPI   GL1 7499   8.907  17.459   9.617 -0.0943  0.0435  0.0815
  488PYPI   GL2 7500   8.573  17.611   9.502 -0.1134 -0.0919  0.0619
  488PYPI   C1A 7501   8.834  17.324   9.105  0.3481  0.0868  0.2929
  488PYPI   C2A 7502   8.553  17.250   8.833  0.0077  0.1682 -0.0561
  488PYPI   D3A 7503   8.359  17.521   8.463  0.2400 -0.3599  0.2106
  488PYPI   C4A 7504   8.488  17.397   8.020 -0.1010  0.2447 -0.2953
  488PYPI   C1B 7505   8.445  17.755   9.141  0.3365 -0.0044 -0.0130
  488PYPI   C2B 7506   8.386  17.940   8.752  0.2789  0.2236  0.0346
  488PYPI   C3B 7507   8.357  17.977   8.311 -0.0496  0.0235 -0.1110
  488PYPI   C4B 7508   8.706  17.895   7.992 -0.4109 -0.2964 -0.1717
  489PYPI    C1 7509   8.860   6.488  10.670  0.1399  0.0762 -0.0190
  489PYPI    C2 7510   8.509   6.338  10.550  0.1626  0.0811 -0.0919
  489PYPI    C3 7511   8.527   6.572  10.874  0.1030  0.0569 -0.0711
  489PYPI   PO4 7512   8.966   6.645  10.380 -0.1407  0.0366  0.2376
  489PYPI   GL1 7513   9.016   6.560   9.946 -0.1275  0.0968  0.2700
  489PYPI   GL2 7514   9.048   6.850   9.859 -0.3929 -0.1025  0.0214
  489PYPI   C1A 7515   9.313   6.583   9.513 -0.1336  0.5988 -0.0784
  489PYPI   C2A 7516   9.427   6.611   9.115  0.1676 -0.0519 -0.2235
  489PYPI   D3A 7517   9.421   6.854   8.734  0.0812 -0.0263 -0.2441
  489PYPI   C4A 7518   9.781   7.270   8.554  0.1886  0.4341  0.0140
  489PYPI   C1B 7519   8.971   7.076   9.510  0.1335 -0.0317  0.0719
  489PYPI   C2B 7520   8.909   7.043   9.074  0.4399  0.0593  0.2035
  489PYPI   C3B 7521   8.881   6.925   8.649 -0.2537  0.0147 -0.0991
  489PYPI   C4B 7522   8.527   6.822   8.649 -0.0170 -0.2419 -0.0276
  490PYPI    C1 7523  11.036   4.188   9.916 -0.2477  0.2427 -0.1249
  490PYPI    C2 7524  11.165   4.166  10.294 -0.1653 -0.2060 -0.1742
  490PYPI    C3 7525  11.344   4.413  10.035 -0.1661  0.0388  0.0548
  490PYPI   PO4 7526  10.935   3.869   9.865 -0.1487 -0.1190 -0.0660
  490PYPI   GL1 7527  11.050   3.780   9.480 -0.0787 -0.2693 -0.0887
  490PYPI   GL2 7528  11.103   4.099   9.358 -0.0063 -0.0412  0.0320
  490PYPI   C1A 7529  11.150   3.669   9.088  0.1072  0.0938 -0.2251
  490PYPI   C2A 7530  11.314   3.651   8.715 -0.3044  0.0255  0.2454
  490PYPI   D3A 7531  11.227   3.596   8.261 -0.0903  0.1061  0.4983
  490PYPI   C4A 7532  10.930   3.397   8.019  0.1057 -0.4717  0.2075
  490PYPI   C1B 7533  11.198   4.140   8.952 -0.0585  0.0169  0.3827
  490PYPI   C2B 7534  11.220   4.090   8.521 -0.0542  0.0436  0.2755
  490PYPI   C3B 7535  11.124   4.072   8.041 -0.0993  0.1100 -0.2699
  490PYPI   C4B 7536  11.033   3.842   7.718 -0.2632  0.0966 -0.1581
  491PYPI    C1 7537  11.905  11.591  10.953 -0.2563  0.1205 -0.0138
  491PYPI    C2 7538  11.557  11.765  11.046 -0.3253 -0.0006 -0.0435
  491PYPI    C3 7539  11.839  11.723  11.325 -0.3592  0.0397 -0.0029
  491PYPI   PO4 7540  11.772  11.466  10.655 -0.2365 -0.2212  0.0613
  491PYPI   GL1 7541  11.612  11.616  10.351  0.2000 -0.1411 -0.0616
  491PYPI   GL2 7542  11.278  11.367  10.306  0.1079 -0.2535  0.1018
  491PYPI   C1A 7543  11.678  11.568   9.883  0.2091 -0.3925  0.0137
  491PYPI   C2A 7544  11.988  11.431   9.629  0.0941  0.3434  0.1801
  491PYPI   D3A 7545  12.349  11.559   9.423  0.1865 -0.2849 -0.2166
  491PYPI   C4A 7546  12.784  11.546   9.636 -0.3239 -0.3267 -0.3299
  491PYPI   C1B 7547  11.485  11.121   9.987  0.0929 -0.2876  0.1814
  491PYPI   C2B 7548  11.431  11.087   9.626 -0.0874  0.3413 -0.3230
  491PYPI   C3B 7549  11.663  11.118   9.292  0.4366 -0.5904 -0.0847
  491PYPI   C4B 7550  11.878  10.974   8.968  0.2393  0.0271  0.1901
  492PYPI    C1 7551  14.944  16.019  10.015 -0.0319 -0.0161 -0.2477
  492PYPI    C2 7552  14.697  16.147  10.303  0.4891  0.1372  0.1454
  492PYPI    C3 7553  14.838  15.773  10.312  0.0970 -0.0272 -0.2107
  492PYPI   PO4 7554  14.898  16.093   9.796 -0.0358  0.0926 -0.0020
  492PYPI   GL1 7555  14.926  16.207   9.372  0.0280  0.2527 -0.0688
  492PYPI   GL2 7556  15.029  15.894   9.313  0.1088 -0.1002 -0.2379
  492PYPI   C1A 7557  15.153  16.246   8.954 -0.2031 -0.2083  0.0507
  492PYPI   C2A 7558  15.144  16.172   8.516 -0.4823  0.1349 -0.0174
  492PYPI   D3A 7559  15.239  16.198   7.993 -0.1438  0.0574  0.1020
  492PYPI   C4A 7560  15.275  15.838   7.731  0.0210  0.1402 -0.0294
  492PYPI   C1B 7561  14.799  15.755   8.928  0.1182 -0.1006 -0.2259
  492PYPI   C2B 7562  14.847  15.742   8.525  0.1259 -0.1888  0.0283
  492PYPI   C3B 7563  14.871  15.786   8.059  0.3233 -0.1806 -0.0374
  492PYPI   C4B 7564  14.777  15.315   7.843  0.0129 -0.2696 -0.3811
  493PYPI    C1 7565  15.395   9.394  10.560 -0.3206 -0.1378 -0.1867
  493PYPI    C2 7566  15.085   9.164  10.663 -0.0825 -0.3903 -0.0197
  493PYPI    C3 7567  15.446   9.000  10.609  0.0421 -0.0872 -0.1265
  493PYPI   PO4 7568  15.243   9.520  10.370 -0.2903 -0.0885 -0.0721
  493PYPI   GL1 7569  15.175   9.771   9.971 -0.0504 -0.0410  0.0675
  493PYPI   GL2 7570  15.459   9.655   9.939  0.1555  0.0598  0.2207
  493PYPI   C1A 7571  15.010  10.024   9.549 -0.0184 -0.0683 -0.0023
  493PYPI   C2A 7572  14.672  10.100   9.278 -0.3681 -0.3117  0.2001
  493PYPI   D3A 7573  14.679  10.519   9.217  0.0046 -0.1728 -0.1168
  493PYPI   C4A 7574  14.800  10.445   8.800 -0.0113  0.1004  0.1263
  493PYPI   C1B 7575  15.450   9.703   9.469  0.1501 -0.0549  0.0547
  493PYPI   C2B 7576  15.397   9.753   9.077  0.1062  0.0006  0.3868
  493PYPI   C3B 7577  15.547   9.757   8.608  0.0679 -0.1511 -0.0994
  493PYPI   C4B 7578  15.494   9.784   8.136 -0.0227 -0.2444  0.1476
  494PYPI    C1 7579   7.322   0.129  10.006 -0.2151 -0.3502 -0.1201
  494PYPI    C2 7580   7.158   0.454  10.171  0.2480 -0.0956 -0.1424
  494PYPI    C3 7581   6.944   0.226   9.922 -0.0679  0.2200 -0.1676
  494PYPI   PO4 7582   7.484   0.192   9.792 -0.1513  0.1060  0.2473
  494PYPI   GL1 7583   7.492   0.037   9.316 -0.1143  0.1012 -0.0826
  494PYPI   GL2 7584   7.133   0.144   9.482 -0.0776 -0.0548  0.1790
  494PYPI   C1A 7585   7.426   0.510   9.189 -0.2319 -0.4296  0.1199
  494PYPI   C2A 7586   7.819   0.884   9.054  0.2266 -0.1232 -0.0603
  494PYPI   D3A 7587   7.865   1.011   8.716 -0.1211 -0.1156 -0.0769
  494PYPI   C4A 7588   7.869   1.047   8.387  0.3408 -0.0316 -0.0695
  494PYPI   C1B 7589   6.973   0.280   9.148  0.2790 -0.1362 -0.1383
  494PYPI   C2B 7590   7.031   0.311   8.704  0.0966 -0.1455 -0.1458
  494PYPI   C3B 7591   7.081   0.570   8.372  0.2677  0.0995  0.1325
  494PYPI   C4B 7592   6.933   0.902   8.039 -0.0835  0.1610  0.0085
  495PYPI    C1 7593  14.601   2.323  10.885  0.0727  0.1658  0.2203
  495PYPI    C2 7594  14.975   2.197  10.822  0.0445  0.1691  0.0396
  495PYPI    C3 7595  14.708   1.952  10.990  0.0904  0.1189  0.0400
  495PYPI   PO4 7596  14.529   2.466  10.683  0.0191 -0.0885  0.3233
  495PYPI   GL1 7597  14.563   2.552  10.230 -0.1521 -0.1963 -0.1410
  495PYPI   GL2 7598  14.244   2.474  10.123 -0.2840 -0.1931  0.0862
  495PYPI   C1A 7599  14.641   2.147   9.981 -0.1010  0.0251 -0.0503
  495PYPI   C2A 7600  14.757   2.186   9.625  0.3563 -0.0051  0.2043
  495PYPI   D3A 7601  14.726   2.018   9.221  0.2399 -0.1427  0.0125
  495PYPI   C4A 7602  14.544   1.915   8.822 -0.2873 -0.1453  0.0487
  495PYPI   C1B 7603  14.036   2.430   9.729  0.0784 -0.3374 -0.0521
  495PYPI   C2B 7604  14.077   2.592   9.344  0.1330  0.1988 -0.0121
  495PYPI   C3B 7605  14.353   2.958   9.118 -0.3310 -0.1100  0.1452
  495PYPI   C4B 7606  14.649   3.277   8.857  0.1684 -0.3832  0.3283
  496PYPI    C1 7607   3.179   3.742   9.282  0.2853  0.0232 -0.0020
  496PYPI    C2 7608   3.557   3.717   9.409  0.2557  0.0239  0.0863
  496PYPI    C3 7609   3.283   3.905   9.632  0.1340 -0.2549  0.1757
  496PYPI   PO4 7610   3.088   3.555   9.255  0.0720 -0.1587  0.2353
  496PYPI   GL1 7611   2.863   3.659   8.872 -0.0747  0.3176  0.1797
  496PYPI   GL2 7612   2.835   3.371   8.745 -0.0120  0.1040  0.1036
  496PYPI   C1A 7613   2.580   3.867   8.607  0.1367  0.0811 -0.3740
  496PYPI   C2A 7614   2.427   3.997   8.192 -0.3717 -0.0141  0.4469
  496PYPI   D3A 7615   2.091   3.946   7.862 -0.1599 -0.0275 -0.0111
  496PYPI   C4A 7616   1.759   3.998   7.479 -0.5141 -0.1502 -0.2452
  496PYPI   C1B 7617   3.000   3.443   8.412 -0.1599  0.0265 -0.2488
  496PYPI   C2B 7618   2.944   3.400   8.085  0.2521  0.0325 -0.0275
  496PYPI   C3B 7619   2.915   3.315   7.735  0.1527  0.2261 -0.0044
  496PYPI   C4B 7620   2.737   3.499   7.352 -0.0126 -0.2089 -0.1812
  497PYPI    C1 7621  18.092   8.645   9.857  0.2947 -0.1178 -0.1235
  497PYPI    C2 7622  18.373   8.626  10.141  0.1824 -0.1081 -0.0107
  497PYPI    C3 7623  18.240   8.290   9.969  0.0518 -0.1370  0.1453
  497PYPI   PO4 7624  18.133   8.850   9.738 -0.1290  0.1707  0.0474
  497PYPI   GL1 7625  18.084   8.818   9.303  0.0074  0.1356 -0.2328
  497PYPI   GL2 7626  18.004   9.191   9.367 -0.3166 -0.0805 -0.1351
  497PYPI   C1A 7627  17.689   8.881   9.235 -0.4481 -0.0148 -0.2233
  497PYPI   C2A 7628  17.566   9.036   8.822  0.2830 -0.0065  0.0139
  497PYPI   D3A 7629  17.131   9.206   8.550 -0.2885  0.2148 -0.1068
  497PYPI   C4A 7630  17.237   9.235   8.119  0.0768  0.1037  0.3698
  497PYPI   C1B 7631  17.930   9.350   8.901  0.1614  0.1370  0.0776
  497PYPI   C2B 7632  18.055   9.603   8.583 -0.3474  0.4079  0.1145
  497PYPI   C3B 7633  18.024   9.539   8.118 -0.1445  0.3389  0.1141
  497PYPI   C4B 7634  17.915   9.758   7.729  0.0503 -0.0152  0.0011
  498PYPI    C1 7635  11.359  14.823  10.462  0.2580  0.4087  0.1418
  498PYPI    C2 7636  11.232  15.201  10.428 -0.1856  0.2585  0.0688
  498PYPI    C3 7637  11.019  14.936  10.639  0.1418  0.0547  0.1520
  498PYPI   PO4 7638  11.410  14.802  10.160 -0.0095  0.1080 -0.0786
  498PYPI   GL1 7639  11.352  14.852   9.663  0.0739 -0.1878 -0.0599
  498PYPI   GL2 7640  11.087  14.646   9.699  0.0876  0.2408  0.2842
  498PYPI   C1A 7641  11.382  14.636   9.237  0.1463  0.0504  0.2167
  498PYPI   C2A 7642  11.457  14.490   8.810  0.1654 -0.2423  0.3152
  498PYPI   D3A 7643  11.550  14.562   8.418  0.2259  0.0129 -0.1794
  498PYPI   C4A 7644  11.223  14.393   8.247 -0.1924  0.1325 -0.1345
  498PYPI   C1B 7645  11.078  14.334   9.421  0.0546  0.1452  0.1636
  498PYPI   C2B 7646  10.977  14.231   9.153 -0.1169 -0.2214  0.1707
  498PYPI   C3B 7647  11.055  14.209   8.714 -0.2396 -0.1082 -0.0376
  498PYPI   C4B 7648  11.102  13.912   8.307  0.1200  0.2136  0.2878
  499PYPI    C1 7649  17.773  10.180  10.040 -0.0147 -0.2364 -0.0700
  499PYPI    C2 7650  17.451  10.187  10.276  0.0399 -0.1680  0.0027
  499PYPI    C3 7651  17.812  10.114  10.432  0.0955  0.0190 -0.0365
  499PYPI   PO4 7652  17.659  10.460   9.884  0.2618  0.1325 -0.1479
  499PYPI   GL1 7653  17.618  10.603   9.569 -0.2715  0.1883  0.0003
  499PYPI   GL2 7654  17.340  10.829   9.540  0.0611 -0.0902  0.1219
  499PYPI   C1A 7655  17.456  10.527   9.066  0.0752  0.3715  0.0112
  499PYPI   C2A 7656  17.221  10.161   8.944  0.1024 -0.0318  0.1529
  499PYPI   D3A 7657  17.180  10.091   8.496 -0.2495  0.1604  0.0844
  499PYPI   C4A 7658  17.099  10.012   8.005  0.3249  0.1522 -0.0832
  499PYPI   C1B 7659  17.291  11.024   9.088  0.0565  0.2186  0.2026
  499PYPI   C2B 7660  17.335  11.036   8.633  0.0079  0.4007  0.0432
  499PYPI   C3B 7661  17.326  11.096   8.177  0.1414 -0.2197  0.0921
  499PYPI   C4B 7662  17.612  11.273   7.803  0.0781 -0.2367 -0.1444
  500PYPI    C1 7663  10.691  15.297  10.203  0.0860 -0.0758 -0.0614
  500PYPI    C2 7664  10.478  15.610  10.332 -0.0452 -0.0912 -0.2371
  500PYPI    C3 7665  10.739  15.432  10.576 -0.1161  0.0292 -0.0718
  500PYPI   PO4 7666  10.576  15.194  10.033 -0.2272 -0.1948 -0.0861
  500PYPI   GL1 7667  10.243  15.134   9.785  0.2535  0.0324  0.0434
  500PYPI   GL2 7668  10.376  15.249   9.507 -0.0498 -0.1546 -0.1900
  500PYPI   C1A 7669   9.936  15.314   9.411 -0.1919 -0.0556  0.1885
  500PYPI   C2A 7670   9.830  15.380   8.933 -0.0082  0.0857  0.1102
  500PYPI   D3A 7671   9.812  15.367   8.519 -0.0606 -0.0999  0.2077
  500PYPI   C4A 7672  10.024  15.080   8.125 -0.2515 -0.3378 -0.0870
  500PYPI   C1B 7673  10.365  15.176   9.088  0.0550  0.0462  0.0606
  500PYPI   C2B 7674  10.393  14.989   8.683 -0.2692 -0.1117  0.1832
  500PYPI   C3B 7675  10.339  14.676   8.342  0.1843 -0.3478 -0.1420
  500PYPI   C4B 7676  10.214  14.347   8.368  0.0403 -0.0261 -0.1902
  501PYPI    C1 7677   6.830  10.711  10.382 -0.1251  0.1595 -0.1723
  501PYPI    C2 7678   6.824  11.082  10.531 -0.1641 -0.0062  0.2504
  501PYPI    C3 7679   6.789  10.767  10.776  0.1141 -0.2980 -0.0753
  501PYPI   PO4 7680   7.077  10.664  10.213  0.1115 -0.1028  0.1307
  501PYPI   GL1 7681   7.222  10.698   9.883  0.0475 -0.1111  0.0735
  501PYPI   GL2 7682   6.872  10.804   9.766  0.2937 -0.0209 -0.0673
  501PYPI   C1A 7683   7.348  10.931   9.582 -0.2026 -0.0937 -0.1937
  501PYPI   C2A 7684   7.333  10.841   9.197 -0.0710  0.2285 -0.1360
  501PYPI   D3A 7685   7.378  10.694   8.810  0.5590 -0.1654  0.0088
  501PYPI   C4A 7686   7.092  10.698   8.551  0.1408 -0.0089  0.0511
  501PYPI   C1B 7687   6.977  10.577   9.442 -0.1626 -0.2487 -0.1023
  501PYPI   C2B 7688   7.022  10.267   9.065  0.0890  0.0006  0.0344
  501PYPI   C3B 7689   7.048  10.040   8.697  0.1923  0.0107  0.4509
  501PYPI   C4B 7690   7.110   9.858   8.342  0.2158 -0.0143 -0.1441
  502PYPI    C1 7691  10.472   2.434  10.229 -0.0215 -0.0179 -0.0319
  502PYPI    C2 7692  10.208   2.134  10.237 -0.1482  0.0935  0.0140
  502PYPI    C3 7693  10.352   2.284  10.579 -0.2794  0.2534  0.0002
  502PYPI   PO4 7694  10.592   2.424   9.915 -0.1312  0.1243 -0.0623
  502PYPI   GL1 7695  10.746   2.203   9.566  0.1070 -0.3846 -0.0487
  502PYPI   GL2 7696  10.966   2.416   9.426 -0.0068 -0.2412  0.0500
  502PYPI   C1A 7697  10.688   1.794   9.332 -0.2452  0.1229  0.1444
  502PYPI   C2A 7698  10.607   1.553   8.919 -0.2708 -0.0474  0.1663
  502PYPI   D3A 7699  10.562   1.549   8.480 -0.2780  0.1220  0.3035
  502PYPI   C4A 7700  10.864   1.474   8.061  0.3004 -0.0637 -0.0026
  502PYPI   C1B 7701  10.964   2.143   9.041  0.1443 -0.2056 -0.2569
  502PYPI   C2B 7702  10.969   1.823   8.676 -0.3114  0.0175 -0.3468
  502PYPI   C3B 7703  10.950   1.968   8.327 -0.0820  0.0689 -0.0935
  502PYPI   C4B 7704  10.973   1.942   7.865 -0.1757  0.1760 -0.1067
  503PYPI    C1 7705  12.872   9.152  10.409  0.0514  0.1082 -0.1241
  503PYPI    C2 7706  12.837   8.941  10.747 -0.1253  0.0431 -0.1817
  503PYPI    C3 7707  12.813   8.757  10.393  0.1134  0.1030 -0.2306
  503PYPI   PO4 7708  12.779   9.423  10.462  0.3181 -0.2441 -0.1491
  503PYPI   GL1 7709  12.818   9.684  10.059  0.0396 -0.0192  0.0468
  503PYPI   GL2 7710  12.986   9.769   9.778 -0.0670  0.1349  0.3140
  503PYPI   C1A 7711  12.512   9.920   9.790  0.4145 -0.2628 -0.0589
  503PYPI   C2A 7712  12.289   9.752   9.546 -0.1102 -0.0565 -0.1270
  503PYPI   D3A 7713  11.894   9.468   9.796  0.0982  0.3310  0.0438
  503PYPI   C4A 7714  11.515   9.640   9.889 -0.2365 -0.0510 -0.0673
  503PYPI   C1B 7715  12.797   9.905   9.387 -0.2788 -0.1205  0.1558
  503PYPI   C2B 7716  12.734  10.073   8.950 -0.1468  0.1323  0.1481
  503PYPI   C3B 7717  12.911  10.116   8.562  0.3931 -0.2044 -0.0589
  503PYPI   C4B 7718  13.166   9.863   8.328  0.2841  0.3344 -0.2577
  504PYPI    C1 7719  12.976   0.520  10.221 -0.3044 -0.3064 -0.0279
  504PYPI    C2 7720  12.688   0.794  10.268 -0.1398 -0.1322 -0.0274
  504PYPI    C3 7721  12.592   0.420  10.165 -0.3688 -0.0842  0.0064
  504PYPI   PO4 7722  13.173   0.629  10.055  0.0541 -0.1456 -0.0589
  504PYPI   GL1 7723  13.390   0.817   9.743  0.0576  0.2131  0.0073
  504PYPI   GL2 7724  13.643   0.628   9.822 -0.2532  0.3184  0.1952
  504PYPI   C1A 7725  13.334   0.604   9.464  0.0683 -0.0825  0.1010
  504PYPI   C2A 7726  13.261   0.524   9.138 -0.0919 -0.2986 -0.1053
  504PYPI   D3A 7727  13.117   0.442   8.712 -0.1264  0.0375 -0.1087
  504PYPI   C4A 7728  13.111   0.248   8.411  0.2963 -0.0038  0.1419
  504PYPI   C1B 7729  13.845   0.443   9.403 -0.1314  0.0328 -0.1011
  504PYPI   C2B 7730  13.983   0.644   9.121  0.1299  0.1878  0.1574
  504PYPI   C3B 7731  14.113   0.793   8.761 -0.1484  0.1968  0.1829
  504PYPI   C4B 7732  14.277   1.072   8.443 -0.0419 -0.3434  0.3693
  505PYPI    C1 7733  17.911  15.651  10.466 -0.0977 -0.0240  0.3447
  505PYPI    C2 7734  18.106  15.307  10.530  0.2206  0.0921  0.0315
  505PYPI    C3 7735  18.293  15.656  10.588 -0.0172  0.2113  0.0927
  505PYPI   PO4 7736  17.772  15.615  10.282 -0.1853  0.0518 -0.3989
  505PYPI   GL1 7737  17.654  15.848   9.913 -0.0821  0.1520 -0.0779
  505PYPI   GL2 7738  17.952  15.821   9.828 -0.0818  0.3183 -0.0240
  505PYPI   C1A 7739  17.540  15.771   9.536 -0.1796 -0.1695 -0.1657
  505PYPI   C2A 7740  17.478  15.680   9.092  0.0551  0.0040 -0.2501
  505PYPI   D3A 7741  17.352  15.661   8.776 -0.0979 -0.2133  0.3861
  505PYPI   C4A 7742  17.456  16.004   8.478 -0.0662  0.1221  0.1830
  505PYPI   C1B 7743  18.370  15.647   9.581 -0.3277  0.0536  0.2542
  505PYPI   C2B 7744  18.501  15.562   9.163  0.2766  0.4424  0.3438
  505PYPI   C3B 7745  18.618  15.502   8.739 -0.0527 -0.1318  0.2270
  505PYPI   C4B 7746  18.924  15.917   8.549  0.3539  0.1680  0.0126
  506ERGO   ROH 7747   1.596  14.180   9.350 -0.1013 -0.1547  0.0457
  506ERGO    R1 7748   1.462  14.147   9.103 -0.0720 -0.0679  0.0173
  506ERGO    R2 7749   1.450  14.346   8.913  0.0104 -0.0237  0.0548
  506ERGO    R3 7750   1.551  14.154   8.750 -0.0142 -0.0180  0.0333
  506ERGO    R4 7751   1.438  14.354   8.568  0.2892  0.1661  0.0461
  506ERGO    R5 7752   1.394  14.140   8.570  0.1175  0.2000 -0.1001
  506ERGO    C1 7753   1.526  14.178   8.214  0.4285  0.2820  0.0209
  506ERGO    C2 7754   1.321  14.345   7.870  0.1167  0.0372  0.1372
  507ERGO   ROH 7755  13.905  15.293   9.240 -0.4343 -0.2025 -0.0463
  507ERGO    R1 7756  14.054  15.192   9.022 -0.3841 -0.2301  0.0011
  507ERGO    R2 7757  13.951  15.008   8.843 -0.4572 -0.0051 -0.1894
  507ERGO    R3 7758  14.027  15.193   8.659 -0.1153  0.0291 -0.0224
  507ERGO    R4 7759  14.049  14.936   8.520 -0.2594  0.0799 -0.1499
  507ERGO    R5 7760  14.205  15.088   8.539 -0.1179 -0.0834  0.0681
  507ERGO    C1 7761  14.178  15.067   8.159  0.1766  0.1614  0.0299
  507ERGO    C2 7762  14.321  15.191   7.978 -0.3210  0.0309  0.1958
  508ERGO   ROH 7763  10.622   3.823   9.226 -0.1139 -0.2452  0.0522
  508ERGO    R1 7764  10.731   3.885   8.972 -0.0380 -0.0162  0.1398
  508ERGO    R2 7765  10.792   3.691   8.785  0.0797  0.1493  0.0120
  508ERGO    R3 7766  10.634   3.843   8.624  0.1020  0.2336  0.0663
  508ERGO    R4 7767  10.794   3.680   8.439 -0.2522 -0.0781  0.0107
  508ERGO    R5 7768  10.774   3.898   8.438  0.0000 -0.0477 -0.1043
  508ERGO    C1 7769  10.647   3.817   8.087 -0.4246 -0.1314  0.0610
  508ERGO    C2 7770  10.569   4.025   7.776 -0.0064  0.0739 -0.3838
  509ERGO   ROH 7771   5.849  14.172   9.446 -0.0499  0.0955  0.1684
  509ERGO    R1 7772   5.877  14.005   9.220 -0.0268  0.1134  0.1583
  509ERGO    R2 7773   5.808  14.087   8.965  0.0110  0.1378  0.1566
  509ERGO    R3 7774   6.064  14.013   8.907  0.0156  0.1312  0.1839
  509ERGO    R4 7775   5.935  14.046   8.646 -0.0296 -0.1215  0.1716
  509ERGO    R5 7776   6.042  13.870   8.716  0.0116 -0.0420  0.3118
  509ERGO    C1 7777   6.248  13.952   8.406 -0.0490 -0.2787  0.2060
  509ERGO    C2 7778   6.438  14.112   8.096  0.2234 -0.0476 -0.1577
  510ERGO   ROH 7779   6.817  11.284   9.653 -0.0403  0.0731 -0.0870
  510ERGO    R1 7780   6.960  11.218   9.418 -0.0316 -0.1167 -0.0298
  510ERGO    R2 7781   6.868  11.034   9.234 -0.2203  0.0270 -0.0778
  510ERGO    R3 7782   6.902  11.239   9.059  0.1506 -0.0082 -0.0551
  510ERGO    R4 7783   6.882  10.998   8.891 -0.3774  0.0404 -0.0873
  510ERGO    R5 7784   7.043  11.146   8.887 -0.0700 -0.2746 -0.1032
  510ERGO    C1 7785   6.923  11.169   8.526 -0.1206  0.0151 -0.0714
  510ERGO    C2 7786   6.719  11.176   8.240 -0.3300 -0.0814 -0.2496
  511ERGO   ROH 7787  14.324  17.465   9.933 -0.1714  0.2097  0.0351
  511ERGO    R1 7788  14.235  17.603   9.703  0.0460  0.2481 -0.0298
  511ERGO    R2 7789  14.407  17.731   9.529  0.2390  0.0242 -0.0110
  511ERGO    R3 7790  14.283  17.577   9.343  0.1341  0.1048 -0.0079
  511ERGO    R4 7791  14.421  17.784   9.188 -0.0159  0.2158  0.0059
  511ERGO    R5 7792  14.209  17.732   9.176 -0.0147  0.1841  0.1296
  511ERGO    C1 7793  14.312  17.669   8.814 -0.2629  0.4029  0.0185
  511ERGO    C2 7794  14.308  17.577   8.641  0.1319  0.3530  0.2869
  512ERGO   ROH 7795   4.781  10.056   9.472 -0.0413 -0.1729  0.0274
  512ERGO    R1 7796   4.721  10.153   9.213 -0.0341 -0.1027  0.0518
  512ERGO    R2 7797   4.833  10.046   8.984  0.0524  0.0273  0.0320
  512ERGO    R3 7798   4.573  10.019   8.908  0.0769 -0.0529 -0.0240
  512ERGO    R4 7799   4.712  10.110   8.667  0.0968  0.0036  0.0103
  512ERGO    R5 7800   4.536  10.201   8.757  0.0488 -0.0580 -0.0225
  512ERGO    C1 7801   4.398  10.122   8.411  0.1455 -0.0854 -0.0550
  512ERGO    C2 7802   4.410  10.230   8.026  0.1377 -0.3940 -0.0701
  513ERGO   ROH 7803   8.980  17.913   9.340 -0.0021  0.1726  0.0306
  513ERGO    R1 7804   8.908  17.769   9.107  0.0381  0.0095  0.1176
  513ERGO    R2 7805   8.824  17.893   8.875 -0.3127 -0.1658  0.1450
  513ERGO    R3 7806   9.024  17.748   8.763 -0.1771  0.0973  0.0377
  513ERGO    R4 7807   8.850  17.821   8.538 -0.4323 -0.1772  0.1378
  513ERGO    R5 7808   8.916  17.620   8.592 -0.1131 -0.0817  0.1275
  513ERGO    C1 7809   9.053  17.643   8.236 -0.3748  0.0632  0.0329
  513ERGO    C2 7810   9.260  17.658   7.928  0.2790 -0.3354 -0.1686
  514ERGO   ROH 7811  12.539  12.273  10.030  0.1423 -0.2169 -0.0731
  514ERGO    R1 7812  12.608  12.175   9.773  0.0077  0.0113 -0.1991
  514ERGO    R2 7813  12.420  12.071   9.599 -0.0551 -0.0323 -0.1062
  514ERGO    R3 7814  12.524  12.256   9.428 -0.3582  0.1712 -0.0774
  514ERGO    R4 7815  12.523  12.007   9.275  0.1318  0.1690 -0.0899
  514ERGO    R5 7816  12.693  12.138   9.308 -0.1109  0.4856 -0.0502
  514ERGO    C1 7817  12.679  12.143   8.927 -0.0437  0.4771 -0.0533
  514ERGO    C2 7818  12.619  12.177   8.653 -0.1736 -0.0966 -0.1762
  515ERGO   ROH 7819   8.699   5.032   9.738 -0.2147 -0.0707 -0.0174
  515ERGO    R1 7820   8.824   4.932   9.505 -0.0683 -0.0203  0.0378
  515ERGO    R2 7821   8.723   4.975   9.252 -0.0896 -0.2367  0.0053
  515ERGO    R3 7822   8.973   5.071   9.204 -0.1920  0.0352  0.0024
  515ERGO    R4 7823   8.847   5.054   8.939 -0.1477 -0.1821 -0.0037
  515ERGO    R5 7824   9.038   4.967   8.998 -0.0525  0.0516  0.0389
  515ERGO    C1 7825   9.154   5.191   8.712 -0.2776  0.1050 -0.0117
  515ERGO    C2 7826   9.234   5.365   8.428 -0.1122  0.2088  0.2445
  516ERGO   ROH 7827   2.538  18.325   9.259  0.4195  0.2990 -0.4212
  516ERGO    R1 7828   2.552  18.287   8.979  0.4145 -0.0357 -0.3817
  516ERGO    R2 7829   2.635  18.050   8.865 -0.0453 -0.3501 -0.1095
  516ERGO    R3 7830   2.398  18.067   8.734  0.0120  0.0077 -0.1742
  516ERGO    R4 7831   2.574  17.921   8.550 -0.1859 -0.3423 -0.0849
  516ERGO    R5 7832   2.459  18.101   8.505  0.1243 -0.1621 -0.1676
  516ERGO    C1 7833   2.315  17.863   8.244 -0.2141 -0.0018 -0.1311
  516ERGO    C2 7834   2.205  17.618   8.110 -0.0470 -0.2483 -0.0054
  517ERGO   ROH 7835  12.272  10.365  10.028 -0.0184  0.1558  0.1651
  517ERGO    R1 7836  12.160  10.509   9.811  0.2052  0.0719 -0.0094
  517ERGO    R2 7837  12.213  10.445   9.548  0.0073 -0.4225  0.0607
  517ERGO    R3 7838  11.942  10.434   9.530 -0.0314  0.0928  0.1646
  517ERGO    R4 7839  12.032  10.505   9.260  0.0385 -0.4058  0.0441
  517ERGO    R5 7840  11.885  10.613   9.380  0.2798  0.0369 -0.0315
  517ERGO    C1 7841  11.672  10.530   9.075  0.0203  0.0877  0.1320
  517ERGO    C2 7842  11.455  10.376   8.842 -0.0519  0.0173 -0.0221
  518ERGO   ROH 7843  13.328   3.214   9.210 -0.2113  0.2755  0.0759
  518ERGO    R1 7844  13.199   3.163   8.964 -0.1262  0.3507  0.0154
  518ERGO    R2 7845  13.266   3.295   8.730  0.1784  0.1888  0.0098
  518ERGO    R3 7846  13.295   3.042   8.635 -0.0748  0.1175  0.1142
  518ERGO    R4 7847  13.169   3.189   8.415  0.3180  0.2291 -0.0480
  518ERGO    R5 7848  13.098   3.004   8.505 -0.0144  0.3467 -0.0528
  518ERGO    C1 7849  13.140   2.890   8.143  0.1615  0.1857  0.0163
  518ERGO    C2 7850  13.139   2.755   7.776  0.0172  0.0995 -0.1770
  519ERGO   ROH 7851  16.469   8.554   9.613 -0.0328  0.0882  0.0247
  519ERGO    R1 7852  16.408   8.495   9.343  0.0022  0.0917  0.0159
  519ERGO    R2 7853  16.178   8.361   9.268  0.0200  0.0772 -0.0145
  519ERGO    R3 7854  16.144   8.577   9.107  0.0230  0.0796 -0.0118
  519ERGO    R4 7855  16.044   8.350   8.949 -0.1199  0.1020  0.0432
  519ERGO    R5 7856  16.194   8.496   8.887 -0.0975  0.0493 -0.0292
  519ERGO    C1 7857  15.934   8.547   8.613 -0.1986  0.1186  0.0792
  519ERGO    C2 7858  15.753   8.549   8.441 -0.3606 -0.2725  0.2861
  520ERGO   ROH 7859  16.639   5.327   9.433 -0.0714 -0.2671  0.1354
  520ERGO    R1 7860  16.629   5.160   9.205 -0.0042 -0.1735  0.0628
  520ERGO    R2 7861  16.393   5.103   9.073  0.0145 -0.2285  0.0506
  520ERGO    R3 7862  16.529   5.195   8.857 -0.0394 -0.0683  0.0833
  520ERGO    R4 7863  16.327   5.013   8.746  0.1657 -0.2670  0.0305
  520ERGO    R5 7864  16.542   5.006   8.710  0.1811 -0.0431  0.0681
  520ERGO    C1 7865  16.418   5.047   8.352  0.2031 -0.1391  0.0496
  520ERGO    C2 7866  16.267   4.968   8.109 -0.2540 -0.0134  0.1205
  521ERGO   ROH 7867   7.566  15.876   9.006  0.2069 -0.0487 -0.0371
  521ERGO    R1 7868   7.528  15.949   8.735 -0.0183  0.0434  0.0159
  521ERGO    R2 7869   7.703  15.873   8.535 -0.0490  0.3157 -0.1212
  521ERGO    R3 7870   7.478  15.774   8.420 -0.0159  0.1400 -0.0377
  521ERGO    R4 7871   7.651  15.846   8.195 -0.0373 -0.0099 -0.0996
  521ERGO    R5 7872   7.445  15.910   8.226 -0.0567 -0.0462 -0.1625
  521ERGO    C1 7873   7.408  15.737   7.888  0.0006 -0.3643 -0.0085
  521ERGO    C2 7874   7.409  15.727   7.511  0.0582  0.4130 -0.2379
  522ERGO   ROH 7875  12.824   0.752   9.764 -0.3175  0.1112  0.1962
  522ERGO    R1 7876  12.806   0.900   9.523 -0.2548  0.0477  0.1523
  522ERGO    R2 7877  13.029   0.988   9.387 -0.2192  0.0390  0.2039
  522ERGO    R3 7878  12.915   0.857   9.178 -0.1347 -0.0283  0.1992
  522ERGO    R4 7879  13.083   1.062   9.054 -0.3177  0.1267  0.2069
  522ERGO    R5 7880  12.871   1.028   9.017 -0.2944 -0.0432  0.2264
  522ERGO    C1 7881  13.007   0.982   8.664 -0.2957  0.1147  0.2042
  522ERGO    C2 7882  13.310   0.927   8.408  0.1382  0.1887 -0.1053
  523ERGO   ROH 7883   5.014   5.220   8.716  0.0050 -0.1788 -0.0864
  523ERGO    R1 7884   5.213   5.260   8.519 -0.1580  0.0115 -0.2143
  523ERGO    R2 7885   5.231   5.492   8.370 -0.0223  0.3414  0.3036
  523ERGO    R3 7886   5.487   5.493   8.462  0.0924 -0.2124  0.0356
  523ERGO    R4 7887   5.502   5.626   8.202 -0.0730  0.5359  0.3712
  523ERGO    R5 7888   5.621   5.455   8.267 -0.1719  0.1921 -0.2448
  523ERGO    C1 7889   5.899   5.704   8.190  0.0052  0.1293  0.1590
  523ERGO    C2 7890   6.254   5.700   8.048  0.1510  0.0691  0.0133
  524ERGO   ROH 7891  12.033  15.222   9.483  0.0459 -0.1700 -0.0234
  524ERGO    R1 7892  12.011  14.985   9.329  0.2269 -0.1328 -0.1092
  524ERGO    R2 7893  11.794  14.934   9.166  0.1476 -0.3483  0.0593
  524ERGO    R3 7894  11.985  14.902   8.976  0.0284 -0.0052 -0.1265
  524ERGO    R4 7895  11.733  14.919   8.826 -0.1589 -0.4714  0.1160
  524ERGO    R5 7896  11.883  14.760   8.812  0.1231 -0.2034 -0.0183
  524ERGO    C1 7897  11.878  14.880   8.450 -0.4493 -0.2210 -0.0253
  524ERGO    C2 7898  11.983  15.047   8.135  0.1065 -0.0793  0.0054
  525ERGO   ROH 7899   1.919  11.209   8.877  0.3372 -0.0422 -0.1548
  525ERGO    R1 7900   1.846  11.127   8.616  0.2845 -0.1301 -0.1124
  525ERGO    R2 7901   1.760  11.306   8.423 -0.0965 -0.2371 -0.0462
  525ERGO    R3 7902   1.960  11.193   8.277 -0.0259  0.0572 -0.1858
  525ERGO    R4 7903   1.785  11.317   8.078 -0.2209  0.0141 -0.0499
  525ERGO    R5 7904   1.852  11.110   8.081 -0.0089  0.0740 -0.2052
  525ERGO    C1 7905   1.987  11.218   7.741 -0.2271  0.4367 -0.1830
  525ERGO    C2 7906   2.210  11.427   7.508 -0.4367  0.0910  0.2126
  526ERGO   ROH 7907   3.267  15.726   9.479  0.0715  0.1334  0.1407
  526ERGO    R1 7908   3.277  15.703   9.197  0.1200  0.1814  0.1373
  526ERGO    R2 7909   3.093  15.553   9.053  0.2863  0.0019  0.0992
  526ERGO    R3 7910   3.059  15.786   8.918  0.0507 -0.0112  0.1338
  526ERGO    R4 7911   3.020  15.577   8.717 -0.1484 -0.0187  0.1872
  526ERGO    R5 7912   3.157  15.746   8.703 -0.2111  0.0153  0.0083
  526ERGO    C1 7913   2.945  15.810   8.393 -0.6226 -0.0430  0.2710
  526ERGO    C2 7914   2.829  15.817   8.146 -0.1878  0.2063  0.1675
  527ERGO   ROH 7915  18.095   1.146  10.003  0.0913 -0.0821  0.1003
  527ERGO    R1 7916  17.962   1.062   9.767  0.1647 -0.1479  0.0824
  527ERGO    R2 7917  17.865   1.241   9.580  0.1634 -0.1994  0.0371
  527ERGO    R3 7918  18.016   1.094   9.408  0.2363 -0.1866  0.0890
  527ERGO    R4 7919  17.869   1.282   9.237  0.1432 -0.3125  0.0223
  527ERGO    R5 7920  17.876   1.065   9.216  0.2485 -0.3199  0.0971
  527ERGO    C1 7921  18.014   1.169   8.876  0.2001 -0.3664  0.0624
  527ERGO    C2 7922  18.156   1.494   8.718 -0.1271 -0.0402  0.0722
  528ERGO   ROH 7923   5.778   3.379   9.251 -0.2348  0.1805 -0.0733
  528ERGO    R1 7924   5.784   3.518   9.004 -0.2580  0.1244 -0.1061
  528ERGO    R2 7925   5.997   3.500   8.829 -0.1320  0.3293  0.0206
  528ERGO    R3 7926   5.803   3.430   8.651  0.0497  0.0513 -0.0745
  528ERGO    R4 7927   5.994   3.589   8.495 -0.1451  0.4150  0.0436
  528ERGO    R5 7928   5.779   3.623   8.511 -0.2144  0.0539 -0.0308
  528ERGO    C1 7929   5.810   3.575   8.134  0.0180  0.2040 -0.0322
  528ERGO    C2 7930   6.018   3.577   7.929 -0.0017  0.0101  0.0198
  529ERGO   ROH 7931   3.782   9.671   9.212  0.3669 -0.0122 -0.0123
  529ERGO    R1 7932   3.783   9.584   8.942  0.2014 -0.0550  0.0013
  529ERGO    R2 7933   3.559   9.477   8.820  0.0751  0.1033  0.1010
  529ERGO    R3 7934   3.607   9.671   8.636  0.1610  0.0346  0.0486
  529ERGO    R4 7935   3.414   9.492   8.507 -0.0668  0.1815  0.1681
  529ERGO    R5 7936   3.607   9.556   8.426 -0.0439 -0.0017  0.0641
  529ERGO    C1 7937   3.375   9.683   8.151 -0.0688  0.1627  0.1579
  529ERGO    C2 7938   3.178   9.893   7.964 -0.3533  0.0142  0.0678
  530ERGO   ROH 7939   6.854  17.710   9.115 -0.0562 -0.3760 -0.0632
  530ERGO    R1 7940   7.025  17.656   8.896  0.0529 -0.2077 -0.0202
  530ERGO    R2 7941   6.930  17.607   8.641  0.1748 -0.1373 -0.0754
  530ERGO    R3 7942   7.099  17.810   8.574  0.1173 -0.0379  0.0727
  530ERGO    R4 7943   7.007  17.703   8.318  0.3750 -0.0840 -0.0140
  530ERGO    R5 7944   7.214  17.730   8.380  0.3174  0.0290  0.1557
  530ERGO    C1 7945   7.210  17.949   8.067  0.4376  0.0403  0.1607
  530ERGO    C2 7946   7.408  18.004   7.785  0.0664 -0.1536  0.1253
  531ERGO   ROH 7947   0.836  17.823   9.797  0.1272 -0.0290 -0.1598
  531ERGO    R1 7948   0.805  17.697   9.545  0.1522  0.1601 -0.2598
  531ERGO    R2 7949   0.576  17.558   9.475  0.3116 -0.1263 -0.2312
  531ERGO    R3 7950   0.580  17.726   9.261 -0.0883  0.0892 -0.0795
  531ERGO    R4 7951   0.368  17.533   9.201  0.1070 -0.1307 -0.0775
  531ERGO    R5 7952   0.537  17.584   9.073 -0.0629  0.2117 -0.1790
  531ERGO    C1 7953   0.250  17.676   8.840 -0.3875  0.0686  0.1546
  531ERGO    C2 7954   0.179  17.692   8.516 -0.1627 -0.1137 -0.0546
  532ERGO   ROH 7955   9.426  14.654   9.867  0.0370 -0.3761  0.0050
  532ERGO    R1 7956   9.430  14.687   9.586 -0.0807 -0.1430  0.0285
  532ERGO    R2 7957   9.590  14.535   9.421  0.0125  0.1373 -0.1490
  532ERGO    R3 7958   9.354  14.483   9.295  0.0190  0.0216 -0.1136
  532ERGO    R4 7959   9.559  14.456   9.085  0.0029  0.0660 -0.1312
  532ERGO    R5 7960   9.381  14.582   9.078 -0.0467 -0.0074 -0.1333
  532ERGO    C1 7961   9.321  14.361   8.772  0.0034 -0.0842 -0.0875
  532ERGO    C2 7962   9.209  14.272   8.580  0.2325  0.1171  0.1061
  533ERGO   ROH 7963   0.591   5.660   8.961 -0.2364 -0.1735 -0.2005
  533ERGO    R1 7964   0.776   5.593   8.757  0.0206  0.1714 -0.0937
  533ERGO    R2 7965   0.712   5.424   8.548  0.5074 -0.0963 -0.0550
  533ERGO    R3 7966   0.797   5.632   8.396  0.0656  0.0589 -0.1002
  533ERGO    R4 7967   0.830   5.397   8.225  0.2939  0.1558 -0.1560
  533ERGO    R5 7968   0.983   5.545   8.273  0.1011  0.3779 -0.2657
  533ERGO    C1 7969   0.979   5.577   7.894 -0.2452  0.4483 -0.2574
  533ERGO    C2 7970   1.148   5.497   7.629  0.2160 -0.1189  0.0707
  534ERGO   ROH 7971  14.210   0.704   9.879  0.1543  0.1912  0.1816
  534ERGO    R1 7972  14.233   0.726   9.598  0.0196 -0.1401  0.1380
  534ERGO    R2 7973  14.254   0.970   9.469 -0.4152 -0.2593 -0.1977
  534ERGO    R3 7974  14.477   0.857   9.362 -0.2666 -0.0487 -0.1119
  534ERGO    R4 7975  14.369   1.025   9.148 -0.3934 -0.2281 -0.1829
  534ERGO    R5 7976  14.418   0.814   9.134 -0.1610 -0.1766 -0.1122
  534ERGO    C1 7977  14.645   0.952   8.861 -0.2413 -0.0122 -0.0937
  534ERGO    C2 7978  14.755   1.166   8.658 -0.1330 -0.1301 -0.1078
  535ERGO   ROH 7979   9.840  18.227   9.244 -0.0788  0.2855  0.2522
  535ERGO    R1 7980   9.730  18.359   9.020 -0.0913  0.1837  0.1986
  535ERGO    R2 7981   9.886  18.495   8.836 -0.1168  0.2171  0.2098
  535ERGO    R3 7982   9.758  18.334   8.658  0.0020  0.1219  0.2078
  535ERGO    R4 7983   9.934  18.502   8.494 -0.3607  0.5106  0.1773
  535ERGO    R5 7984   9.719  18.475   8.468 -0.3511  0.1914  0.3176
  535ERGO    C1 7985   9.842  18.356   8.127 -0.3914  0.5921  0.1564
  535ERGO    C2 7986   9.875  18.363   7.889 -0.1361 -0.1855 -0.1941
  536ERGO   ROH 7987   5.645  12.537   9.493 -0.1347 -0.1496  0.0772
  536ERGO    R1 7988   5.722  12.434   9.241 -0.1481 -0.1550  0.0753
  536ERGO    R2 7989   5.542  12.318   9.066 -0.1910  0.0097  0.0079
  536ERGO    R3 7990   5.643  12.501   8.892 -0.0158 -0.0266  0.0690
  536ERGO    R4 7991   5.626  12.253   8.737 -0.1878  0.0244  0.0059
  536ERGO    R5 7992   5.802  12.379   8.762 -0.0911 -0.1217  0.0659
  536ERGO    C1 7993   5.769  12.387   8.382 -0.0214 -0.0013  0.0620
  536ERGO    C2 7994   5.889  12.317   7.994  0.3468  0.0659  0.1238
  537ERGO   ROH 7995  12.231  14.402   9.778  0.1025  0.2151 -0.1463
  537ERGO    R1 7996  12.319  14.291   9.532  0.2331  0.0396 -0.0221
  537ERGO    R2 7997  12.557  14.365   9.413  0.2516  0.0160  0.0137
  537ERGO    R3 7998  12.604  14.097   9.417  0.3405  0.0310  0.2453
  537ERGO    R4 7999  12.696  14.184   9.153  0.3328 -0.1552  0.1717
  537ERGO    R5 8000  12.554  14.024   9.194  0.3792 -0.1719  0.2964
  537ERGO    C1 8001  12.820  13.828   9.005  0.4636 -0.2407  0.4810
  537ERGO    C2 8002  12.865  13.512   8.810  0.1778  0.0336 -0.0424
  538ERGO   ROH 8003  18.356   6.287   8.893 -0.0164  0.0527  0.1723
  538ERGO    R1 8004  18.465   6.293   8.632  0.2612  0.0316  0.2852
  538ERGO    R2 8005  18.674   6.129   8.554 -0.0077 -0.3601  0.3719
  538ERGO    R3 8006  18.502   6.060   8.355  0.0313  0.1687  0.1353
  538ERGO    R4 8007  18.767   5.996   8.249  0.0179 -0.3895  0.3916
  538ERGO    R5 8008  18.616   6.121   8.153  0.4029  0.0370  0.2951
  538ERGO    C1 8009  18.661   5.854   7.884  0.0695  0.0898  0.1810
  538ERGO    C2 8010  18.834   5.730   7.629 -0.1997  0.1411 -0.3000
  539ERGO   ROH 8011   6.004  17.153   8.958 -0.1202  0.0548 -0.0817
  539ERGO    R1 8012   6.033  17.325   8.735 -0.1408  0.0780 -0.0678
  539ERGO    R2 8013   6.164  17.248   8.504 -0.0819  0.1313 -0.0575
  539ERGO    R3 8014   5.932  17.324   8.386 -0.0907  0.0644 -0.0814
  539ERGO    R4 8015   6.135  17.350   8.175 -0.1048  0.0030 -0.0950
  539ERGO    R5 8016   5.995  17.504   8.241 -0.1150  0.0131 -0.1521
  539ERGO    C1 8017   5.899  17.481   7.873 -0.1266 -0.1345 -0.1393
  539ERGO    C2 8018   5.746  17.496   7.458 -0.0275  0.0471 -0.0359
  540ERGO   ROH 8019  16.535   1.239   9.840  0.1854 -0.1451  0.1092
  540ERGO    R1 8020  16.709   1.222   9.617  0.1413 -0.0301  0.0643
  540ERGO    R2 8021  16.924   1.049   9.610  0.2053  0.0505 -0.0249
  540ERGO    R3 8022  16.808   0.966   9.378  0.1814  0.0599 -0.0158
  540ERGO    R4 8023  17.077   0.850   9.372  0.1953  0.0953 -0.0684
  540ERGO    R5 8024  16.986   0.973   9.217  0.1561  0.0994 -0.0416
  540ERGO    C1 8025  17.058   0.657   9.016  0.1669  0.1302 -0.0852
  540ERGO    C2 8026  17.223   0.518   8.620  0.0523 -0.1326  0.0012
  541ERGO   ROH 8027   4.121  14.394   8.922  0.1707  0.0520 -0.1772
  541ERGO    R1 8028   4.119  14.179   8.737  0.0736  0.0321 -0.1534
  541ERGO    R2 8029   3.888  14.095   8.611  0.0120  0.0387 -0.0480
  541ERGO    R3 8030   4.036  14.134   8.386 -0.0787  0.0015 -0.1144
  541ERGO    R4 8031   3.911  13.871   8.349  0.1816 -0.1636  0.1363
  541ERGO    R5 8032   4.124  13.917   8.334  0.1332  0.0449  0.0512
  541ERGO    C1 8033   4.063  13.776   7.985  0.1953 -0.3163  0.1813
  541ERGO    C2 8034   4.211  13.672   7.689  0.1532 -0.0228 -0.3324
  542ERGO   ROH 8035  12.489  16.441   9.623 -0.1370  0.0502 -0.0559
  542ERGO    R1 8036  12.612  16.439   9.368 -0.0154  0.1137  0.0013
  542ERGO    R2 8037  12.467  16.423   9.133  0.1063 -0.0538 -0.0643
  542ERGO    R3 8038  12.606  16.648   9.070 -0.0599  0.0584 -0.0367
  542ERGO    R4 8039  12.517  16.540   8.812  0.0788 -0.0154 -0.0546
  542ERGO    R5 8040  12.721  16.591   8.867  0.0277  0.1493 -0.0129
  542ERGO    C1 8041  12.676  16.819   8.565 -0.0933  0.1122 -0.0232
  542ERGO    C2 8042  12.525  17.005   8.148 -0.1207 -0.2777 -0.1535
  543ERGO   ROH 8043   6.668  15.774   9.088 -0.2261 -0.1145 -0.0058
  543ERGO    R1 8044   6.551  15.853   8.843 -0.1399  0.0445  0.0024
  543ERGO    R2 8045   6.560  16.114   8.751  0.0453  0.0739  0.0871
  543ERGO    R3 8046   6.666  15.998   8.529  0.0026  0.0729  0.0684
  543ERGO    R4 8047   6.507  16.222   8.427  0.0510  0.1097  0.0988
  543ERGO    R5 8048   6.492  16.014   8.365  0.0009  0.1244  0.0811
  543ERGO    C1 8049   6.575  16.175   8.030  0.0143  0.1295  0.0879
  543ERGO    C2 8050   6.439  16.364   7.823  0.0036 -0.0058 -0.0148
  544ERGO   ROH 8051   3.614  17.947   9.018 -0.2484 -0.1483  0.0459
  544ERGO    R1 8052   3.577  17.905   8.741 -0.1796  0.0424  0.0055
  544ERGO    R2 8053   3.617  18.103   8.553  0.1728  0.0881  0.1222
  544ERGO    R3 8054   3.782  17.918   8.441 -0.0200 -0.0787  0.1077
  544ERGO    R4 8055   3.702  18.090   8.218  0.3904  0.2089  0.1705
  544ERGO    R5 8056   3.685  17.873   8.227  0.0602  0.2214  0.0035
  544ERGO    C1 8057   3.906  17.910   7.918  0.3359  0.1224  0.1852
  544ERGO    C2 8058   3.954  17.972   7.666 -0.0078  0.2646  0.6391
  545ERGO   ROH 8059  16.793   6.000   9.064  0.1714 -0.1311 -0.0606
  545ERGO    R1 8060  16.592   5.991   8.865  0.0233 -0.1884  0.0892
  545ERGO    R2 8061  16.651   5.975   8.595 -0.1620  0.2340  0.0169
  545ERGO    R3 8062  16.488   5.758   8.605  0.1735 -0.0344 -0.1131
  545ERGO    R4 8063  16.516   5.816   8.319  0.1394  0.1408 -0.0816
  545ERGO    R5 8064  16.330   5.795   8.429  0.1468 -0.2042 -0.1261
  545ERGO    C1 8065  16.285   5.520   8.168  0.6298 -0.1654 -0.2609
  545ERGO    C2 8066  16.150   5.393   7.875 -0.1684  0.0027 -0.3187
  546ERGO   ROH 8067   8.531  15.732   9.453  0.1593 -0.3714  0.1218
  546ERGO    R1 8068   8.689  15.826   9.237  0.0415 -0.2718  0.0782
  546ERGO    R2 8069   8.871  15.665   9.105  0.0202 -0.1917 -0.0496
  546ERGO    R3 8070   8.731  15.742   8.885 -0.0962 -0.1591  0.0341
  546ERGO    R4 8071   8.944  15.569   8.781 -0.0705 -0.0357 -0.1179
  546ERGO    R5 8072   8.898  15.772   8.716 -0.1745 -0.0279 -0.0213
  546ERGO    C1 8073   8.856  15.586   8.386 -0.2325  0.0857 -0.0791
  546ERGO    C2 8074   8.940  15.368   8.040 -0.0108 -0.0483 -0.1205
  547ERGO   ROH 8075   9.017   2.171   9.359 -0.0351 -0.0938  0.0026
  547ERGO    R1 8076   9.135   2.043   9.135  0.0799 -0.0277  0.0248
  547ERGO    R2 8077   8.986   1.944   8.924  0.1775 -0.0929 -0.0141
  547ERGO    R3 8078   9.152   2.101   8.776  0.1355 -0.0059  0.0307
  547ERGO    R4 8079   8.997   1.949   8.579  0.0693  0.1177 -0.0160
  547ERGO    R5 8080   9.214   1.963   8.591  0.0744  0.1046 -0.0743
  547ERGO    C1 8081   9.159   2.100   8.239 -0.0330  0.3220  0.0250
  547ERGO    C2 8082   9.098   2.199   7.920  0.1512  0.1221  0.1301
  548ERGO   ROH 8083   5.662  17.301   9.241 -0.1669 -0.0367  0.0104
  548ERGO    R1 8084   5.533  17.433   9.027 -0.1336  0.0493  0.0415
  548ERGO    R2 8085   5.673  17.561   8.825 -0.0980  0.0629  0.0666
  548ERGO    R3 8086   5.524  17.401   8.664 -0.1411  0.1351  0.0358
  548ERGO    R4 8087   5.611  17.619   8.490  0.1067  0.0127  0.0196
  548ERGO    R5 8088   5.407  17.552   8.521  0.0446  0.1795 -0.0647
  548ERGO    C1 8089   5.435  17.502   8.144  0.1855  0.0512 -0.0369
  548ERGO    C2 8090   5.421  17.615   7.886 -0.4264 -0.3358 -0.2085
  549ERGO   ROH 8091   8.720   7.471   9.701 -0.0973 -0.1097 -0.1434
  549ERGO    R1 8092   8.907   7.633   9.563 -0.1592  0.0241 -0.0714
  549ERGO    R2 8093   9.035   7.549   9.334  0.0074  0.1062 -0.0079
  549ERGO    R3 8094   8.934   7.780   9.231 -0.1235  0.0230 -0.0695
  549ERGO    R4 8095   9.195   7.748   9.100  0.0159  0.2658  0.1318
  549ERGO    R5 8096   9.125   7.923   9.209 -0.2312  0.1981  0.0924
  549ERGO    C1 8097   9.194   8.080   8.868 -0.1022  0.2806  0.1553
  549ERGO    C2 8098   9.442   8.282   8.693  0.1469  0.0349 -0.1546
  550ERGO   ROH 8099  15.381   5.024   9.245  0.0937 -0.2365  0.0454
  550ERGO    R1 8100  15.393   4.861   9.014  0.0657 -0.3353  0.1123
  550ERGO    R2 8101  15.264   4.617   8.997 -0.1921 -0.2048  0.1206
  550ERGO    R3 8102  15.156   4.727   8.772  0.0709 -0.1635  0.0109
  550ERGO    R4 8103  15.097   4.441   8.751 -0.2213 -0.1088  0.0712
  550ERGO    R5 8104  15.197   4.564   8.601  0.0101 -0.2645  0.0930
  550ERGO    C1 8105  14.899   4.441   8.397  0.0087 -0.0142 -0.0605
  550ERGO    C2 8106  14.738   4.225   8.310 -0.1475  0.5369  0.0292
  551ERGO   ROH 8107  16.597  13.498   9.572  0.4682  0.1399  0.1782
  551ERGO    R1 8108  16.514  13.552   9.307  0.1561  0.0827  0.2606
  551ERGO    R2 8109  16.689  13.637   9.111 -0.1172  0.2844  0.0978
  551ERGO    R3 8110  16.589  13.423   8.975 -0.0285  0.1943  0.1738
  551ERGO    R4 8111  16.696  13.600   8.767 -0.0251  0.1246  0.1162
  551ERGO    R5 8112  16.495  13.517   8.777 -0.0061  0.0763  0.1063
  551ERGO    C1 8113  16.607  13.378   8.440  0.1115 -0.0530  0.1981
  551ERGO    C2 8114  16.611  13.423   8.029 -0.1822 -0.2975  0.3926
  552ERGO   ROH 8115  17.944  13.883   9.566 -0.2184  0.0860  0.2525
  552ERGO    R1 8116  17.997  13.796   9.302 -0.1319  0.1073  0.2620
  552ERGO    R2 8117  17.831  13.621   9.167 -0.0328  0.0316  0.2309
  552ERGO    R3 8118  17.832  13.818   8.979 -0.0843  0.0338  0.2336
  552ERGO    R4 8119  17.726  13.582   8.840  0.0433 -0.0039  0.2109
  552ERGO    R5 8120  17.894  13.706   8.776 -0.0013  0.0674  0.2431
  552ERGO    C1 8121  17.666  13.743   8.473  0.0392 -0.0226  0.2017
  552ERGO    C2 8122  17.594  13.893   8.089 -0.0930  0.0907 -0.0596
  553ERGO   ROH 8123   3.827   6.594   9.319  0.0312  0.2144 -0.0707
  553ERGO    R1 8124   3.805   6.410   9.105  0.0714  0.0222  0.0887
  553ERGO    R2 8125   3.697   6.479   8.861 -0.0270 -0.2395  0.0603
  553ERGO    R3 8126   3.933   6.384   8.766 -0.0029 -0.1986  0.0756
  553ERGO    R4 8127   3.750   6.372   8.536  0.0762 -0.0038 -0.0035
  553ERGO    R5 8128   3.870   6.208   8.615  0.0270 -0.0809 -0.0805
  553ERGO    C1 8129   4.003   6.221   8.258  0.1589  0.1718 -0.0262
  553ERGO    C2 8130   4.219   6.329   7.920 -0.2179 -0.5388 -0.3006
  554ERGO   ROH 8131  18.141   5.485   8.995  0.1190 -0.2687  0.0520
  554ERGO    R1 8132  18.069   5.267   8.829  0.1422 -0.1709 -0.0892
  554ERGO    R2 8133  17.835   5.262   8.682  0.0290 -0.1971  0.0852
  554ERGO    R3 8134  18.004   5.214   8.475 -0.0925  0.1056 -0.0903
  554ERGO    R4 8135  17.741   5.126   8.378 -0.0967 -0.0133  0.0399
  554ERGO    R5 8136  17.925   5.009   8.380 -0.0047  0.1248 -0.2023
  554ERGO    C1 8137  17.846   5.002   8.007 -0.2837  0.3780 -0.1512
  554ERGO    C2 8138  17.890   4.825   7.782 -0.0350 -0.0878 -0.3788
  555ERGO   ROH 8139   6.002  11.904   9.333 -0.0174  0.1564 -0.1890
  555ERGO    R1 8140   5.965  12.021   9.078  0.0046  0.0768 -0.2300
  555ERGO    R2 8141   6.174  12.060   8.900  0.0269  0.0403 -0.2208
  555ERGO    R3 8142   6.014  11.919   8.731  0.0568 -0.0271 -0.1912
  555ERGO    R4 8143   6.208  12.052   8.556 -0.2240  0.2970 -0.2540
  555ERGO    R5 8144   5.991  12.061   8.540 -0.2445  0.0687 -0.0851
  555ERGO    C1 8145   6.078  11.916   8.198 -0.3420  0.3834 -0.2455
  555ERGO    C2 8146   6.226  11.804   7.899 -0.0153  0.0509 -0.1359
  556ERGO   ROH 8147  14.988   2.522   9.871 -0.0283 -0.0089 -0.0498
  556ERGO    R1 8148  15.155   2.600   9.657  0.0257  0.0453  0.0124
  556ERGO    R2 8149  15.137   2.488   9.405  0.1655  0.0283  0.0107
  556ERGO    R3 8150  15.111   2.747   9.327  0.0995  0.0158 -0.0113
  556ERGO    R4 8151  15.152   2.598   9.078 -0.0556 -0.0205 -0.0179
  556ERGO    R5 8152  15.266   2.771   9.146 -0.0189 -0.0028 -0.1180
  556ERGO    C1 8153  15.136   2.906   8.814 -0.2462 -0.0607 -0.0550
  556ERGO    C2 8154  14.908   3.016   8.511 -0.2064  0.1832  0.0076
  557ERGO   ROH 8155   7.527  16.438   9.284  0.0192  0.0622 -0.0244
  557ERGO    R1 8156   7.718  16.457   9.076  0.0614  0.0179  0.0093
  557ERGO    R2 8157   7.868  16.240   8.992  0.0473 -0.0121  0.0539
  557ERGO    R3 8158   7.767  16.305   8.748  0.0998 -0.0164  0.0313
  557ERGO    R4 8159   8.034  16.202   8.691  0.1174  0.0040  0.0908
  557ERGO    R5 8160   7.953  16.393   8.627  0.1199 -0.0024  0.0750
  557ERGO    C1 8161   8.035  16.240   8.287  0.2075  0.0098  0.0911
  557ERGO    C2 8162   8.079  15.993   8.101  0.1319  0.0783  0.2424
  558ERGO   ROH 8163  12.921  18.348   9.823  0.1211 -0.3054 -0.0184
  558ERGO    R1 8164  12.926  18.265   9.553  0.0730 -0.1488 -0.0690
  558ERGO    R2 8165  12.699  18.258   9.395  0.0509 -0.0077 -0.0512
  558ERGO    R3 8166  12.848  18.413   9.229  0.0678  0.0596  0.0272
  558ERGO    R4 8167  12.602  18.359   9.079  0.2601 -0.2164 -0.1850
  558ERGO    R5 8168  12.806  18.324   9.011  0.3542 -0.0617  0.0206
  558ERGO    C1 8169  12.686  18.564   8.740  0.3976 -0.2746 -0.1894
  558ERGO    C2 8170  12.614  18.791   8.472  0.0864  0.0396 -0.0271
  559ERGO   ROH 8171   7.229  11.458   9.778  0.0884  0.2856 -0.0445
  559ERGO    R1 8172   7.313  11.523   9.515  0.1177  0.0837 -0.0864
  559ERGO    R2 8173   7.509  11.381   9.381 -0.0225 -0.1577 -0.0402
  559ERGO    R3 8174   7.316  11.358   9.191 -0.0655 -0.0795 -0.0072
  559ERGO    R4 8175   7.566  11.299   9.051 -0.0998 -0.0258 -0.0875
  559ERGO    R5 8176   7.417  11.446   8.993 -0.1106 -0.0015  0.0050
  559ERGO    C1 8177   7.418  11.230   8.680 -0.1851  0.1244 -0.0839
  559ERGO    C2 8178   7.573  11.186   8.469  0.1424  0.0736 -0.0975
  560ERGO   ROH 8179  12.564   7.012   9.770 -0.3128  0.3402 -0.0315
  560ERGO    R1 8180  12.665   7.033   9.507 -0.1973  0.3120  0.0085
  560ERGO    R2 8181  12.655   6.824   9.327  0.0480  0.2306  0.0803
  560ERGO    R3 8182  12.530   7.007   9.170 -0.0143  0.0784 -0.0479
  560ERGO    R4 8183  12.678   6.836   8.982  0.0760  0.0276  0.0746
  560ERGO    R5 8184  12.688   7.053   8.996 -0.0196  0.0387 -0.0604
  560ERGO    C1 8185  12.574   7.015   8.634  0.0337 -0.2334 -0.0491
  560ERGO    C2 8186  12.421   6.861   8.241 -0.0538  0.2279 -0.1791
  561ERGO   ROH 8187  10.339  15.893   9.411 -0.0685 -0.0646 -0.0270
  561ERGO    R1 8188  10.328  15.689   9.215 -0.0450 -0.1234  0.0323
  561ERGO    R2 8189  10.151  15.696   9.003 -0.1404 -0.2717  0.1024
  561ERGO    R3 8190  10.377  15.665   8.855 -0.1833 -0.1911  0.0187
  561ERGO    R4 8191  10.157  15.631   8.664 -0.2283 -0.1343  0.0736
  561ERGO    R5 8192  10.321  15.492   8.698 -0.2084 -0.1299 -0.0345
  561ERGO    C1 8193  10.373  15.565   8.327 -0.3200  0.0215 -0.0216
  561ERGO    C2 8194  10.272  15.622   8.027  0.2984 -0.4812 -0.1990
  562ERGO   ROH 8195  17.127   8.756   7.310  0.1960 -0.1116 -0.2582
  562ERGO    R1 8196  17.125   8.493   7.205  0.0629 -0.1667 -0.1230
  562ERGO    R2 8197  17.337   8.318   7.238  0.0661 -0.1811 -0.2187
  562ERGO    R3 8198  17.144   8.155   7.338  0.1277 -0.1022  0.0349
  562ERGO    R4 8199  17.383   7.986   7.321  0.0400 -0.2036 -0.2965
  562ERGO    R5 8200  17.187   7.943   7.236 -0.0978 -0.1167 -0.0363
  562ERGO    C1 8201  17.228   7.639   7.463  0.0825 -0.1429 -0.1038
  562ERGO    C2 8202  17.238   7.319   7.402  0.2281  0.0210 -0.0261
  563ERGO   ROH 8203   9.438  16.248   9.387  0.3107 -0.1840 -0.0190
  563ERGO    R1 8204   9.422  16.442   9.181  0.1268 -0.0619  0.1057
  563ERGO    R2 8205   9.581  16.433   8.955  0.1790  0.2670  0.1182
  563ERGO    R3 8206   9.343  16.444   8.826  0.1826  0.0801  0.0948
  563ERGO    R4 8207   9.541  16.505   8.619  0.1550  0.1225  0.0901
  563ERGO    R5 8208   9.367  16.625   8.671  0.0832  0.0362  0.0319
  563ERGO    C1 8209   9.294  16.558   8.303  0.1445 -0.1372  0.0517
  563ERGO    C2 8210   9.452  16.650   7.974 -0.1239  0.1163 -0.0754
  564ERGO   ROH 8211   7.902   3.959   9.309  0.2109 -0.0270  0.0597
  564ERGO    R1 8212   7.972   3.864   9.052  0.0236 -0.0180  0.0051
  564ERGO    R2 8213   7.807   3.896   8.832 -0.0838  0.0956  0.1025
  564ERGO    R3 8214   8.028   4.010   8.723 -0.0896  0.0088 -0.0030
  564ERGO    R4 8215   7.870   3.918   8.493 -0.1244 -0.1375  0.0776
  564ERGO    R5 8216   8.079   3.872   8.535 -0.1216 -0.1230  0.0833
  564ERGO    C1 8217   8.114   4.038   8.193 -0.1535 -0.3547 -0.0360
  564ERGO    C2 8218   7.983   4.113   7.865 -0.0986 -0.0511  0.0485
  565ERGO   ROH 8219   7.091  12.268   9.682 -0.3867  0.2228 -0.0152
  565ERGO    R1 8220   7.020  12.257   9.408 -0.1561  0.3946 -0.0859
  565ERGO    R2 8221   7.141  12.416   9.217  0.2495  0.2755  0.0555
  565ERGO    R3 8222   7.186  12.177   9.095  0.0193  0.2355  0.0469
  565ERGO    R4 8223   7.249  12.378   8.891  0.3857  0.1831  0.1113
  565ERGO    R5 8224   7.111  12.211   8.870  0.1880  0.3595  0.0110
  565ERGO    C1 8225   7.354  12.133   8.586  0.2490  0.0916  0.1357
  565ERGO    C2 8226   7.429  12.068   8.244 -0.4118 -0.0263 -0.0638
  566ERGO   ROH 8227   9.018  10.439  10.168  0.0185 -0.1190  0.0271
  566ERGO    R1 8228   8.998  10.499   9.892 -0.0515 -0.0991  0.0386
  566ERGO    R2 8229   9.197  10.433   9.711 -0.1406 -0.1594 -0.0227
  566ERGO    R3 8230   8.991  10.311   9.581 -0.2242 -0.0775  0.0257
  566ERGO    R4 8231   9.167  10.409   9.368 -0.1752 -0.2239 -0.0177
  566ERGO    R5 8232   8.954  10.448   9.388 -0.1597 -0.0954 -0.0075
  566ERGO    C1 8233   8.957  10.281   9.045 -0.2739 -0.1845  0.0307
  566ERGO    C2 8234   9.012  10.095   8.691  0.1366 -0.1824  0.1102
  567ERGO   ROH 8235  16.143   6.737   8.317  0.0740  0.0902  0.0264
  567ERGO    R1 8236  15.978   6.534   8.207  0.4211 -0.1893  0.0057
  567ERGO    R2 8237  15.746   6.590   8.068  0.1642 -0.5759  0.2713
  567ERGO    R3 8238  15.863   6.437   7.876  0.3346 -0.1588  0.0239
  567ERGO    R4 8239  15.625   6.550   7.747  0.0535 -0.3958  0.2875
  567ERGO    R5 8240  15.678   6.339   7.759  0.4255 -0.3366  0.0131
  567ERGO    C1 8241  15.664   6.382   7.380  0.1490  0.1006  0.0646
  567ERGO    C2 8242  15.373   6.395   7.092 -0.0393 -0.2970 -0.2527
  568ERGO   ROH 8243   4.746  12.762   8.888 -0.0444 -0.0002  0.2355
  568ERGO    R1 8244   4.679  12.621   8.652 -0.0261  0.0172  0.2199
  568ERGO    R2 8245   4.659  12.743   8.405 -0.0094  0.0362  0.2284
  568ERGO    R3 8246   4.836  12.551   8.331 -0.0023  0.0431  0.2261
  568ERGO    R4 8247   4.701  12.627   8.082 -0.0020  0.0412  0.2273
  568ERGO    R5 8248   4.721  12.425   8.163  0.0043  0.0412  0.2238
  568ERGO    C1 8249   4.893  12.379   7.825  0.0090  0.0505  0.2244
  568ERGO    C2 8250   5.018  12.032   7.683 -0.0842  0.1137  0.1267
  569ERGO   ROH 8251   3.387  12.105   9.411  0.0026 -0.0868 -0.1825
  569ERGO    R1 8252   3.228  12.191   9.193 -0.1319  0.1445  0.0051
  569ERGO    R2 8253   3.257  12.440   9.077  0.1906  0.0475 -0.1085
  569ERGO    R3 8254   3.283  12.294   8.849 -0.4023 -0.0802 -0.1127
  569ERGO    R4 8255   3.229  12.568   8.757  0.4698  0.1478 -0.0968
  569ERGO    R5 8256   3.120  12.388   8.700 -0.1843  0.4800 -0.0381
  569ERGO    C1 8257   3.237  12.507   8.357  0.0758  0.0864 -0.0939
  569ERGO    C2 8258   3.206  12.727   8.086 -0.0409 -0.0988 -0.1923
  570ERGO   ROH 8259  15.859   9.840   9.688  0.1863 -0.2893 -0.0259
  570ERGO    R1 8260  15.895   9.944   9.427  0.0213 -0.3965 -0.0926
  570ERGO    R2 8261  16.105  10.110   9.361 -0.3295  0.0407 -0.1517
  570ERGO    R3 8262  16.149   9.925   9.167  0.1476 -0.0133 -0.0046
  570ERGO    R4 8263  16.111  10.176   9.021 -0.2502 -0.1736 -0.1936
  570ERGO    R5 8264  16.004   9.989   8.989  0.1248 -0.4103 -0.1400
  570ERGO    C1 8265  16.156  10.040   8.642  0.2440 -0.3492 -0.0798
  570ERGO    C2 8266  16.100   9.874   8.350  0.3154  0.2483  0.2289
  571ERGO   ROH 8267  14.641   5.609   9.296 -0.3909  0.3947  0.0603
  571ERGO    R1 8268  14.531   5.634   9.036 -0.2347  0.2156 -0.0265
  571ERGO    R2 8269  14.687   5.649   8.809 -0.0947  0.1203  0.0613
  571ERGO    R3 8270  14.533   5.441   8.728  0.0083  0.0341  0.0853
  571ERGO    R4 8271  14.637   5.557   8.480 -0.2598  0.2243  0.0569
  571ERGO    R5 8272  14.427   5.519   8.528 -0.1983  0.0406  0.1935
  571ERGO    C1 8273  14.462   5.308   8.212 -0.2594  0.2039  0.0768
  571ERGO    C2 8274  14.353   5.164   8.001  0.0641  0.1187  0.1460
  572ERGO   ROH 8275  10.378   2.500   9.433  0.1873 -0.0031  0.0457
  572ERGO    R1 8276  10.500   2.410   9.193  0.1795 -0.0126  0.0450
  572ERGO    R2 8277  10.475   2.150   9.102  0.0851  0.0120 -0.0021
  572ERGO    R3 8278  10.388   2.273   8.875  0.1614  0.0858  0.0088
  572ERGO    R4 8279  10.520   2.028   8.782 -0.0343 -0.0150 -0.0089
  572ERGO    R5 8280  10.562   2.231   8.716  0.1177 -0.0443 -0.0060
  572ERGO    C1 8281  10.466   2.072   8.382 -0.0322  0.0386 -0.0027
  572ERGO    C2 8282  10.499   1.871   8.124  0.1084 -0.2090  0.1255
  573ERGO   ROH 8283   5.768   9.454   9.550 -0.1885 -0.3645 -0.1130
  573ERGO    R1 8284   5.713   9.268   9.345 -0.2606 -0.1904 -0.2546
  573ERGO    R2 8285   5.609   9.342   9.100  0.0082  0.0682 -0.2962
  573ERGO    R3 8286   5.826   9.209   9.004 -0.0750 -0.1389 -0.2032
  573ERGO    R4 8287   5.686   9.307   8.765  0.3012  0.2933 -0.2569
  573ERGO    R5 8288   5.746   9.101   8.806 -0.0269  0.1659 -0.3943
  573ERGO    C1 8289   5.934   9.161   8.480  0.3938  0.2298 -0.1468
  573ERGO    C2 8290   6.067   8.993   8.260  0.0025 -0.2855 -0.1019
  574ERGO   ROH 8291  15.929  16.533   9.954  0.3331  0.0336  0.0026
  574ERGO    R1 8292  16.047  16.476   9.704  0.2711 -0.1066  0.0043
  574ERGO    R2 8293  16.171  16.235   9.649  0.0555 -0.2265  0.0311
  574ERGO    R3 8294  15.999  16.231   9.438  0.0403 -0.1033  0.0404
  574ERGO    R4 8295  16.212  16.042   9.365 -0.0858 -0.2420  0.0207
  574ERGO    R5 8296  16.141  16.211   9.246  0.0187 -0.1886  0.0319
  574ERGO    C1 8297  16.074  15.926   9.002 -0.1824 -0.1353  0.0233
  574ERGO    C2 8298  16.095  15.645   8.909  0.0751  0.2880 -0.1873
  575ERGO   ROH 8299   7.271  13.130   9.867  0.0315 -0.0292  0.0380
  575ERGO    R1 8300   7.491  13.206   9.707 -0.0487  0.0121 -0.0533
  575ERGO    R2 8301   7.703  13.036   9.655  0.0311  0.1009 -0.0208
  575ERGO    R3 8302   7.643  13.093   9.396 -0.0639 -0.0587 -0.0351
  575ERGO    R4 8303   7.865  12.902   9.381  0.1450  0.1768  0.0086
  575ERGO    R5 8304   7.855  13.098   9.285 -0.0811  0.1336 -0.0623
  575ERGO    C1 8305   7.903  12.877   8.978  0.1221  0.0710  0.0123
  575ERGO    C2 8306   8.029  12.760   8.665  0.0200 -0.1933 -0.0799
  576ERGO   ROH 8307  17.165   1.960   9.874  0.1860 -0.1235 -0.0764
  576ERGO    R1 8308  17.056   2.123   9.670 -0.0022 -0.0093  0.1089
  576ERGO    R2 8309  17.185   2.164   9.428 -0.0416  0.4223  0.1475
  576ERGO    R3 8310  16.949   2.077   9.325  0.0589  0.2582  0.0540
  576ERGO    R4 8311  17.043   2.280   9.135  0.0982  0.1444 -0.0327
  576ERGO    R5 8312  16.848   2.274   9.232  0.0409  0.1453 -0.1602
  576ERGO    C1 8313  16.739   2.265   8.867  0.2740 -0.1714 -0.2255
  576ERGO    C2 8314  16.601   2.144   8.585 -0.2740 -0.1470  0.0059
  577ERGO   ROH 8315   7.344  11.915   9.730 -0.0349 -0.1586  0.0359
  577ERGO    R1 8316   7.442  11.994   9.476 -0.3370  0.0514 -0.0211
  577ERGO    R2 8317   7.642  11.856   9.344  0.0219  0.5628 -0.0506
  577ERGO    R3 8318   7.459  11.848   9.143 -0.0472 -0.0058  0.0176
  577ERGO    R4 8319   7.707  11.751   9.021  0.1841  0.6392 -0.0432
  577ERGO    R5 8320   7.582  11.914   8.949 -0.3004  0.2782 -0.0492
  577ERGO    C1 8321   7.573  11.683   8.645  0.2137  0.1498  0.0251
  577ERGO    C2 8322   7.738  11.667   8.346  0.0777 -0.3958 -0.2135
  578ERGO   ROH 8323  16.268  18.037  10.078  0.0143  0.0876 -0.2024
  578ERGO    R1 8324  16.306  17.907   9.830  0.1438  0.0622 -0.1708
  578ERGO    R2 8325  16.224  18.018   9.590  0.0185 -0.0827 -0.1987
  578ERGO    R3 8326  16.483  17.975   9.519  0.0641  0.1722 -0.1922
  578ERGO    R4 8327  16.336  17.976   9.266  0.0351 -0.1957 -0.1788
  578ERGO    R5 8328  16.470  17.820   9.337  0.2300  0.0172 -0.0739
  578ERGO    C1 8329  16.644  17.913   9.010  0.0874 -0.0224 -0.1610
  578ERGO    C2 8330  16.720  17.836   8.633  0.2251  0.3318 -0.0013
  579ERGO   ROH 8331   2.550   8.816   9.334  0.1930 -0.2036  0.0535
  579ERGO    R1 8332   2.706   8.711   9.122  0.0815 -0.0597 -0.1012
  579ERGO    R2 8333   2.593   8.593   8.899 -0.0354  0.0799 -0.1155
  579ERGO    R3 8334   2.744   8.776   8.766 -0.1172  0.1721 -0.0839
  579ERGO    R4 8335   2.689   8.566   8.568  0.0206  0.1507 -0.1055
  579ERGO    R5 8336   2.885   8.644   8.624 -0.0265  0.2551 -0.0745
  579ERGO    C1 8337   2.887   8.722   8.250 -0.0236  0.2783 -0.0701
  579ERGO    C2 8338   2.923   8.645   7.859  0.2591  0.1237  0.0125
  580ERGO   ROH 8339  11.094  18.242   9.666  0.3008  0.0115 -0.1884
  580ERGO    R1 8340  10.894  18.303   9.476  0.0330 -0.2194  0.0106
  580ERGO    R2 8341  10.915  18.517   9.301 -0.4646 -0.0937  0.0931
  580ERGO    R3 8342  10.873  18.326   9.113 -0.3111 -0.0735  0.0359
  580ERGO    R4 8343  10.840  18.579   8.970 -0.2980 -0.0596  0.0603
  580ERGO    R5 8344  10.698  18.415   8.976 -0.2590 -0.0973 -0.0465
  580ERGO    C1 8345  10.757  18.436   8.600 -0.0569 -0.0206 -0.0124
  580ERGO    C2 8346  10.735  18.575   8.271 -0.1545 -0.1244 -0.0290
  581ERGO   ROH 8347   7.400  10.241   9.989  0.1292 -0.1558 -0.1305
  581ERGO    R1 8348   7.490  10.345   9.742 -0.1220  0.0707 -0.1316
  581ERGO    R2 8349   7.644  10.197   9.566  0.2878  0.4533 -0.1087
  581ERGO    R3 8350   7.448  10.263   9.390  0.1129 -0.0720 -0.1291
  581ERGO    R4 8351   7.681  10.200   9.223  0.1583  0.0820 -0.1298
  581ERGO    R5 8352   7.562  10.383   9.216 -0.1342 -0.1034 -0.3204
  581ERGO    C1 8353   7.518  10.263   8.857 -0.0813 -0.6274 -0.1613
  581ERGO    C2 8354   7.399  10.334   8.519  0.0325 -0.2076  0.2533
  582ERGO   ROH 8355  18.322   2.038   9.448  0.1391  0.2530  0.0224
  582ERGO    R1 8356  18.317   2.129   9.180  0.1220  0.0869 -0.0352
  582ERGO    R2 8357  18.259   1.963   8.966  0.0197 -0.0275  0.0798
  582ERGO    R3 8358  18.070   2.150   8.913  0.0785  0.0095 -0.0015
  582ERGO    R4 8359  18.092   1.995   8.666  0.1264 -0.0202  0.0208
  582ERGO    R5 8360  18.109   2.211   8.685  0.1679 -0.0216  0.0050
  582ERGO    C1 8361  17.817   2.190   8.441  0.2438  0.0188 -0.0898
  582ERGO    C2 8362  17.600   2.263   8.171 -0.2346 -0.2049  0.0111
  583ERGO   ROH 8363  12.109  13.315  10.092  0.4755  0.0324 -0.0600
  583ERGO    R1 8364  11.996  13.277   9.835  0.2103 -0.2582  0.0908
  583ERGO    R2 8365  12.133  13.339   9.603 -0.2417  0.0655 -0.1068
  583ERGO    R3 8366  12.074  13.081   9.539  0.2950 -0.0969  0.0057
  583ERGO    R4 8367  12.151  13.206   9.284 -0.4214  0.1031 -0.1336
  583ERGO    R5 8368  11.967  13.096   9.325 -0.0968 -0.3654  0.1722
  583ERGO    C1 8369  12.107  12.887   9.038 -0.0222 -0.0274 -0.0436
  583ERGO    C2 8370  12.213  12.777   8.782 -0.3979 -0.1033 -0.0379
  584ERGO   ROH 8371  15.812  11.941   9.947  0.2037 -0.0397 -0.0555
  584ERGO    R1 8372  15.877  11.909   9.673  0.0214 -0.0010 -0.1043
  584ERGO    R2 8373  15.785  11.696   9.522 -0.1546  0.0690 -0.0979
  584ERGO    R3 8374  15.694  11.893   9.359 -0.1809  0.1421  0.0042
  584ERGO    R4 8375  15.696  11.655   9.190 -0.1152  0.2377 -0.1302
  584ERGO    R5 8376  15.791  11.845   9.146 -0.1510  0.2829 -0.0147
  584ERGO    C1 8377  15.559  11.817   8.844 -0.1168  0.4044 -0.0532
  584ERGO    C2 8378  15.407  11.699   8.631  0.1370  0.3155  0.1008
  585ERGO   ROH 8379  17.293   6.307   8.917  0.1831  0.0343 -0.0383
  585ERGO    R1 8380  17.320   6.252   8.641  0.0809 -0.0107 -0.0402
  585ERGO    R2 8381  17.515   6.370   8.485  0.0457 -0.0622 -0.1248
  585ERGO    R3 8382  17.576   6.112   8.423 -0.0135 -0.0803 -0.1070
  585ERGO    R4 8383  17.549   6.246   8.164  0.0914 -0.0738 -0.1153
  585ERGO    R5 8384  17.445   6.066   8.228  0.0225 -0.0435 -0.1399
  585ERGO    C1 8385  17.626   5.932   7.919  0.0625 -0.0976 -0.0931
  585ERGO    C2 8386  17.707   5.866   7.578 -0.0667  0.3681 -0.3382
  586ERGO   ROH 8387   4.839   0.145   9.334 -0.2586 -0.1632 -0.2946
  586ERGO    R1 8388   4.921   0.049   9.081 -0.0925 -0.0483 -0.2849
  586ERGO    R2 8389   4.784   0.107   8.848 -0.0034 -0.0359 -0.3336
  586ERGO    R3 8390   5.027   0.195   8.765 -0.0000  0.0963 -0.1884
  586ERGO    R4 8391   4.873   0.155   8.518  0.1257  0.1377 -0.2751
  586ERGO    R5 8392   5.070   0.072   8.564  0.1392  0.1964 -0.2227
  586ERGO    C1 8393   5.153   0.267   8.247  0.2040  0.3629 -0.1047
  586ERGO    C2 8394   5.115   0.046   7.928  0.4874  0.0544 -0.2637
  587ERGO   ROH 8395   7.946   1.343   9.352 -0.1949 -0.2590  0.0248
  587ERGO    R1 8396   7.904   1.396   9.077 -0.1117 -0.1452  0.0335
  587ERGO    R2 8397   7.978   1.635   8.959  0.0138 -0.1336  0.1332
  587ERGO    R3 8398   8.112   1.472   8.788 -0.0157 -0.1294  0.1062
  587ERGO    R4 8399   8.006   1.686   8.618  0.1781  0.0177  0.1681
  587ERGO    R5 8400   7.979   1.472   8.589  0.0621  0.0473  0.0525
  587ERGO    C1 8401   8.149   1.563   8.259  0.2461  0.1097  0.1630
  587ERGO    C2 8402   8.245   1.724   7.906  0.0788 -0.1178  0.2287
  588ERGO   ROH 8403   7.976   8.949   9.816 -0.0217 -0.0476 -0.2009
  588ERGO    R1 8404   7.988   8.783   9.588 -0.1039 -0.0156 -0.2288
  588ERGO    R2 8405   7.858   8.844   9.352 -0.0183  0.1242 -0.2415
  588ERGO    R3 8406   8.106   8.813   9.245 -0.0201 -0.0384 -0.2015
  588ERGO    R4 8407   7.929   8.843   9.013  0.0603  0.2170 -0.2261
  588ERGO    R5 8408   8.071   8.681   9.048 -0.0863  0.0815 -0.2688
  588ERGO    C1 8409   8.204   8.813   8.716  0.1044  0.1185 -0.1797
  588ERGO    C2 8410   8.208   9.042   8.357 -0.1135 -0.1860  0.3334
  589ERGO   ROH 8411  18.166   4.155   9.788  0.1780 -0.0156 -0.0004
  589ERGO    R1 8412  18.201   4.124   9.509  0.0084 -0.0321 -0.0206
  589ERGO    R2 8413  18.327   3.905   9.398  0.0430  0.0158 -0.0765
  589ERGO    R3 8414  18.097   3.886   9.255 -0.0446 -0.1144  0.0772
  589ERGO    R4 8415  18.254   3.651   9.175  0.0973  0.0475 -0.1307
  589ERGO    R5 8416  18.167   3.800   9.042 -0.1213  0.0326 -0.0087
  589ERGO    C1 8417  17.996   3.486   8.910  0.0466 -0.0562 -0.0180
  589ERGO    C2 8418  17.821   3.240   8.913 -0.1498  0.0258 -0.0266
  590ERGO   ROH 8419   4.562  11.331   9.579 -0.2611  0.2624  0.2099
  590ERGO    R1 8420   4.433  11.458   9.361 -0.2178  0.0307  0.0461
  590ERGO    R2 8421   4.560  11.647   9.203 -0.2318 -0.0362 -0.0412
  590ERGO    R3 8422   4.484  11.481   9.001 -0.0591 -0.2309  0.0486
  590ERGO    R4 8423   4.566  11.729   8.867 -0.3372 -0.2027 -0.0854
  590ERGO    R5 8424   4.375  11.625   8.844 -0.2285 -0.4292 -0.0239
  590ERGO    C1 8425   4.497  11.621   8.482 -0.2365 -0.4823 -0.0268
  590ERGO    C2 8426   4.687  11.404   8.219 -0.2065  0.2159  0.0830
  591ERGO   ROH 8427   7.607  14.965   9.278  0.1147 -0.0976 -0.1436
  591ERGO    R1 8428   7.636  14.977   8.997  0.0566 -0.0593 -0.1485
  591ERGO    R2 8429   7.783  14.791   8.855  0.1064  0.0117 -0.1952
  591ERGO    R3 8430   7.552  14.764   8.714  0.0884 -0.0679 -0.1504
  591ERGO    R4 8431   7.762  14.668   8.533  0.0489 -0.2421 -0.0970
  591ERGO    R5 8432   7.613  14.821   8.489  0.0691 -0.2567 -0.2030
  591ERGO    C1 8433   7.533  14.571   8.212 -0.0015 -0.4646  0.0022
  591ERGO    C2 8434   7.542  14.399   7.981 -0.1230 -0.0646  0.1210
  592ERGO   ROH 8435   6.024  15.155   8.950 -0.0602 -0.1246 -0.0548
  592ERGO    R1 8436   6.152  15.174   8.698 -0.0717 -0.0374 -0.0534
  592ERGO    R2 8437   6.097  15.001   8.490 -0.0682  0.0266 -0.1025
  592ERGO    R3 8438   6.049  15.230   8.353 -0.0862  0.0651 -0.0342
  592ERGO    R4 8439   6.193  15.059   8.163 -0.2187  0.0589 -0.1420
  592ERGO    R5 8440   6.246  15.262   8.220 -0.1410  0.0405 -0.1288
  592ERGO    C1 8441   6.203  15.308   7.844 -0.3233  0.1137 -0.1010
  592ERGO    C2 8442   6.472  15.384   7.549  0.5383 -0.1823 -0.0611
  593ERGO   ROH 8443   0.507   4.806   8.695 -0.3208 -0.0844  0.2376
  593ERGO    R1 8444   0.465   4.604   8.501  0.0241  0.0481  0.0127
  593ERGO    R2 8445   0.667   4.440   8.410  0.1703  0.0115  0.3709
  593ERGO    R3 8446   0.497   4.242   8.485 -0.1001  0.0436 -0.1208
  593ERGO    R4 8447   0.723   4.102   8.362  0.1015  0.0125  0.2871
  593ERGO    R5 8448   0.513   4.080   8.309  0.1994  0.1460 -0.1886
  593ERGO    C1 8449   0.596   3.720   8.404 -0.1923  0.0432 -0.2234
  593ERGO    C2 8450   0.582   3.486   8.567 -0.2136  0.0192 -0.0353
  594ERGO   ROH 8451   3.305  14.793   9.356 -0.0003 -0.0552 -0.1384
  594ERGO    R1 8452   3.196  14.796   9.094  0.1536  0.0046 -0.2037
  594ERGO    R2 8453   3.259  14.991   8.909  0.1879  0.1057 -0.0916
  594ERGO    R3 8454   3.325  14.777   8.755  0.3659  0.1907 -0.1353
  594ERGO    R4 8455   3.268  14.991   8.563  0.1070  0.1551 -0.0937
  594ERGO    R5 8456   3.179  14.793   8.565  0.3071  0.0669 -0.0980
  594ERGO    C1 8457   3.335  14.791   8.217  0.2270  0.2638 -0.1359
  594ERGO    C2 8458   3.335  15.040   8.001 -0.0891  0.0484 -0.0525
  595ERGO   ROH 8459   7.336   4.061   9.349  0.2812  0.2931 -0.1607
  595ERGO    R1 8460   7.445   3.985   9.099  0.2259 -0.0068 -0.0968
  595ERGO    R2 8461   7.464   3.721   9.020 -0.2927 -0.0795 -0.0114
  595ERGO    R3 8462   7.328   3.811   8.802 -0.0249  0.1477 -0.0920
  595ERGO    R4 8463   7.477   3.579   8.705 -0.5152 -0.2521  0.0540
  595ERGO    R5 8464   7.479   3.779   8.620 -0.0286 -0.2786 -0.0334
  595ERGO    C1 8465   7.357   3.581   8.318 -0.3934 -0.1393  0.0164
  595ERGO    C2 8466   7.362   3.503   8.047 -0.2238 -0.3204  0.1342
  596ERGO   ROH 8467   6.329   1.854   9.031  0.1194 -0.0566  0.0372
  596ERGO    R1 8468   6.270   2.028   8.816  0.3150 -0.1138 -0.0643
  596ERGO    R2 8469   6.309   1.956   8.552  0.0980 -0.3708 -0.0275
  596ERGO    R3 8470   6.047   2.026   8.528  0.1945  0.0364  0.0257
  596ERGO    R4 8471   6.155   2.041   8.255  0.0720 -0.5788 -0.0757
  596ERGO    R5 8472   6.048   2.199   8.362  0.3973 -0.2177 -0.2517
  596ERGO    C1 8473   5.819   2.156   8.059  0.1474 -0.3177 -0.0538
  596ERGO    C2 8474   5.734   2.144   7.783  0.1275  0.0862 -0.1387
  597ERGO   ROH 8475   9.059  10.952  10.157 -0.2475  0.0091 -0.2562
  597ERGO    R1 8476   9.138  11.014   9.893 -0.0010  0.0365 -0.1799
  597ERGO    R2 8477   9.365  10.909   9.776 -0.0489 -0.1891 -0.0824
  597ERGO    R3 8478   9.191  10.832   9.582 -0.0258  0.1102 -0.2269
  597ERGO    R4 8479   9.455  10.820   9.454  0.0648 -0.3267 -0.0130
  597ERGO    R5 8480   9.279  10.928   9.381  0.2999 -0.0277 -0.1536
  597ERGO    C1 8481   9.343  10.696   9.085  0.1524 -0.1260 -0.1084
  597ERGO    C2 8482   9.237  10.592   8.813  0.3583  0.1464  0.0826
  598ERGO   ROH 8483   0.695   2.233   9.494  0.1827  0.1315 -0.0068
  598ERGO    R1 8484   0.702   2.115   9.237  0.0634 -0.1341  0.1077
  598ERGO    R2 8485   0.478   2.010   9.116 -0.0674  0.0489  0.1768
  598ERGO    R3 8486   0.548   2.176   8.913  0.1962 -0.2388  0.0246
  598ERGO    R4 8487   0.314   2.031   8.812  0.0256 -0.0279  0.1221
  598ERGO    R5 8488   0.509   2.049   8.714  0.0695 -0.3798  0.1414
  598ERGO    C1 8489   0.286   2.200   8.445  0.3272 -0.3426 -0.0527
  598ERGO    C2 8490   0.064   2.395   8.309  0.1543 -0.2143  0.1943
  599ERGO   ROH 8491   1.265  17.748   9.567  0.0306  0.2591 -0.0855
  599ERGO    R1 8492   1.252  17.628   9.311  0.0135  0.2312 -0.0707
  599ERGO    R2 8493   1.114  17.393   9.264  0.1670  0.1280  0.0049
  599ERGO    R3 8494   0.991  17.542   9.072 -0.0225  0.0215  0.0402
  599ERGO    R4 8495   0.893  17.269   9.029  0.0217 -0.0299  0.2200
  599ERGO    R5 8496   0.986  17.399   8.880 -0.1264 -0.0564  0.0966
  599ERGO    C1 8497   0.650  17.336   8.712 -0.2409 -0.2220  0.3783
  599ERGO    C2 8498   0.248  17.233   8.737  0.0497  0.4804 -0.1060
  600ERGO   ROH 8499  11.877   3.958   9.264  0.0686  0.3288 -0.1753
  600ERGO    R1 8500  11.893   4.035   8.992  0.1019  0.1351 -0.2301
  600ERGO    R2 8501  11.934   3.853   8.788 -0.0421 -0.0337 -0.1143
  600ERGO    R3 8502  11.709   3.966   8.686  0.0278  0.0577 -0.1675
  600ERGO    R4 8503  11.849   3.856   8.453 -0.0162 -0.0876 -0.1209
  600ERGO    R5 8504  11.779   4.061   8.478  0.0939 -0.0440 -0.1897
  600ERGO    C1 8505  11.588   3.963   8.162  0.0646 -0.0331 -0.1748
  600ERGO    C2 8506  11.647   3.959   7.863  0.1426  0.2195 -0.0868
  601ERGO   ROH 8507   1.400  15.834   9.531  0.2405  0.0644  0.0420
  601ERGO    R1 8508   1.389  15.992   9.296  0.1737  0.0347  0.0244
  601ERGO    R2 8509   1.604  16.143   9.209  0.1795 -0.0445 -0.1042
  601ERGO    R3 8510   1.565  16.005   8.978  0.0202 -0.0664 -0.0655
  601ERGO    R4 8511   1.741  16.228   8.903  0.1410 -0.1964 -0.1643
  601ERGO    R5 8512   1.552  16.175   8.809  0.0784 -0.0931 -0.0954
  601ERGO    C1 8513   1.786  16.147   8.509 -0.0310 -0.3054 -0.1630
  601ERGO    C2 8514   2.089  16.168   8.324 -0.0799 -0.0986  0.1063
  602ERGO   ROH 8515  10.684   9.263  10.231  0.0163 -0.1091  0.0282
  602ERGO    R1 8516  10.510   9.290  10.010  0.0005 -0.0769  0.0446
  602ERGO    R2 8517  10.454   9.534   9.892  0.1119 -0.0783 -0.0114
  602ERGO    R3 8518  10.535   9.407   9.666  0.0161 -0.1801  0.0101
  602ERGO    R4 8519  10.381   9.637   9.571  0.1786 -0.0853 -0.0291
  602ERGO    R5 8520  10.350   9.429   9.516  0.0270 -0.0747  0.0106
  602ERGO    C1 8521  10.415   9.578   9.171  0.1275 -0.1849 -0.0192
  602ERGO    C2 8522  10.378   9.404   8.818 -0.0687  0.0106 -0.2956
  603ERGO   ROH 8523   5.856  10.831   9.425 -0.3357 -0.3984 -0.1673
  603ERGO    R1 8524   5.975  10.935   9.190 -0.3027 -0.1785 -0.0561
  603ERGO    R2 8525   6.077  10.772   8.991 -0.1827  0.0066 -0.1471
  603ERGO    R3 8526   5.911  10.918   8.832 -0.1883  0.0640 -0.0896
  603ERGO    R4 8527   6.052  10.738   8.648 -0.3817 -0.0492 -0.1285
  603ERGO    R5 8528   6.038  10.955   8.632 -0.2727 -0.0444 -0.1643
  603ERGO    C1 8529   5.882  10.854   8.299 -0.5028 -0.0277 -0.0637
  603ERGO    C2 8530   5.628  10.940   8.033 -0.3145 -0.0133 -0.0717
  604ERGO   ROH 8531  11.172  16.042   9.636 -0.2032 -0.0376  0.0051
  604ERGO    R1 8532  11.115  15.989   9.364  0.0149  0.0988 -0.0693
  604ERGO    R2 8533  11.280  16.074   9.159  0.2659  0.0653  0.1122
  604ERGO    R3 8534  11.276  15.811   9.091  0.1539  0.0911  0.0170
  604ERGO    R4 8535  11.359  15.951   8.846 -0.0392  0.1624 -0.0069
  604ERGO    R5 8536  11.194  15.810   8.866 -0.0492  0.1886  0.0892
  604ERGO    C1 8537  11.402  15.632   8.599 -0.3221  0.2430 -0.1656
  604ERGO    C2 8538  11.641  15.512   8.243  0.0384 -0.0892 -0.3519
  605ERGO   ROH 8539  13.414  17.995   9.816  0.0705 -0.0280  0.1572
  605ERGO    R1 8540  13.369  18.137   9.575  0.2714  0.0793  0.1792
  605ERGO    R2 8541  13.472  18.054   9.332  0.0271 -0.1218  0.1330
  605ERGO    R3 8542  13.212  18.069   9.254  0.0185  0.4034  0.2318
  605ERGO    R4 8543  13.361  18.014   9.007 -0.2214 -0.3324  0.2404
  605ERGO    R5 8544  13.220  18.178   9.040  0.1933  0.0710  0.0679
  605ERGO    C1 8545  13.052  18.006   8.744 -0.3742  0.0383  0.3956
  605ERGO    C2 8546  12.983  17.909   8.417  0.1054 -0.0713 -0.1379
  606ERGO   ROH 8547   9.355   4.082   9.250 -0.1231 -0.2979 -0.0160
  606ERGO    R1 8548   9.309   4.000   8.983 -0.1290 -0.1392 -0.0648
  606ERGO    R2 8549   9.102   4.101   8.830 -0.1139 -0.0242 -0.0122
  606ERGO    R3 8550   9.302   4.159   8.655 -0.1028  0.0504  0.0254
  606ERGO    R4 8551   9.058   4.161   8.492 -0.0801  0.0265 -0.0074
  606ERGO    R5 8552   9.239   4.046   8.453 -0.0502  0.0732 -0.0032
  606ERGO    C1 8553   9.221   4.251   8.132 -0.0499  0.1261  0.0307
  606ERGO    C2 8554   9.340   4.490   7.924  0.0934 -0.1654 -0.2309
  607ERGO   ROH 8555   2.992   7.393   9.587 -0.1104  0.1022 -0.0679
  607ERGO    R1 8556   3.121   7.289   9.358 -0.0140  0.1643 -0.0429
  607ERGO    R2 8557   2.982   7.196   9.138  0.0747  0.1097 -0.0775
  607ERGO    R3 8558   3.139   7.373   9.004  0.0281  0.1822 -0.0366
  607ERGO    R4 8559   2.991   7.232   8.794  0.1755  0.0826 -0.0774
  607ERGO    R5 8560   3.207   7.255   8.807  0.1602  0.1995 -0.0027
  607ERGO    C1 8561   3.144   7.418   8.468  0.1904  0.1348 -0.0390
  607ERGO    C2 8562   3.218   7.336   8.041 -0.3886  0.0526  0.2579
  608ERGO   ROH 8563  10.690   0.706   9.558  0.0983  0.0661  0.0334
  608ERGO    R1 8564  10.751   0.877   9.340 -0.1863  0.1600  0.0225
  608ERGO    R2 8565  10.937   0.812   9.147  0.1767  0.5932  0.2028
  608ERGO    R3 8566  10.731   0.861   8.977  0.1658 -0.0460  0.0097
  608ERGO    R4 8567  10.970   0.872   8.808  0.2817  0.5365  0.2032
  608ERGO    R5 8568  10.816   1.025   8.826 -0.1622  0.1293  0.0124
  608ERGO    C1 8569  10.795   0.953   8.452  0.3325 -0.0966  0.0223
  608ERGO    C2 8570  10.678   0.799   8.163 -0.0709  0.1864 -0.2653
  609ERGO   ROH 8571  13.796  16.730   9.629 -0.1548  0.0262  0.0994
  609ERGO    R1 8572  13.618  16.836   9.435 -0.1967 -0.2841 -0.0377
  609ERGO    R2 8573  13.645  17.091   9.332 -0.7666 -0.0850  0.2613
  609ERGO    R3 8574  13.642  16.960   9.094 -0.0599  0.1223  0.1158
  609ERGO    R4 8575  13.537  17.227   9.034 -0.6329 -0.0797  0.2142
  609ERGO    R5 8576  13.443  17.036   8.987 -0.0893 -0.2823 -0.1262
  609ERGO    C1 8577  13.472  17.183   8.636  0.1083  0.1180  0.0501
  609ERGO    C2 8578  13.449  17.137   8.266 -0.0966  0.1814  0.1598
  610ERGO   ROH 8579   3.400   9.841   9.066  0.0886  0.0125  0.0270
  610ERGO    R1 8580   3.183   9.770   8.899  0.0678 -0.1052  0.1008
  610ERGO    R2 8581   3.022   9.958   8.776 -0.1987 -0.1856  0.3031
  610ERGO    R3 8582   3.090   9.821   8.551 -0.1698  0.0236  0.1840
  610ERGO    R4 8583   2.802   9.871   8.525 -0.2142 -0.2204  0.3296
  610ERGO    R5 8584   2.902   9.678   8.510 -0.0514 -0.1166  0.1601
  610ERGO    C1 8585   2.736   9.693   8.166 -0.1961 -0.0444  0.2332
  610ERGO    C2 8586   2.635   9.682   7.862 -0.0936 -0.2916 -0.1293
  611ERGO   ROH 8587  10.815  15.071   9.590  0.2276  0.0916 -0.0923
  611ERGO    R1 8588  10.944  15.013   9.344  0.2360  0.1096 -0.0924
  611ERGO    R2 8589  10.907  14.775   9.210  0.3025  0.0858 -0.0719
  611ERGO    R3 8590  10.842  14.939   9.003  0.2447  0.0504 -0.0816
  611ERGO    R4 8591  10.958  14.701   8.876  0.1051 -0.0158 -0.0810
  611ERGO    R5 8592  11.019  14.909   8.845  0.1517 -0.0439 -0.1673
  611ERGO    C1 8593  10.927  14.813   8.487 -0.0640 -0.1081 -0.0954
  611ERGO    C2 8594  10.829  14.692   8.062  0.1386  0.3246 -0.0089
  612ERGO   ROH 8595   2.364  16.500   9.351  0.2078 -0.3447 -0.1578
  612ERGO    R1 8596   2.307  16.611   9.097  0.1918 -0.1594 -0.0751
  612ERGO    R2 8597   2.408  16.504   8.863  0.0809 -0.0612 -0.1688
  612ERGO    R3 8598   2.146  16.500   8.790  0.0589  0.1066 -0.1038
  612ERGO    R4 8599   2.284  16.629   8.565  0.0947 -0.0375 -0.1647
  612ERGO    R5 8600   2.113  16.708   8.675  0.1762  0.1060 -0.1394
  612ERGO    C1 8601   1.966  16.698   8.323  0.0822  0.1337 -0.1012
  612ERGO    C2 8602   2.033  16.583   8.070 -0.2645  0.0787  0.2335
  613ERGO   ROH 8603   7.956  12.983  10.052  0.1522 -0.0563  0.0997
  613ERGO    R1 8604   8.172  13.050   9.883  0.2025 -0.1510  0.1264
  613ERGO    R2 8605   8.362  12.865   9.804  0.0172 -0.2843 -0.0145
  613ERGO    R3 8606   8.292  12.948   9.555  0.0734 -0.0468  0.0460
  613ERGO    R4 8607   8.548  12.810   9.518 -0.1311 -0.3998 -0.0907
  613ERGO    R5 8608   8.499  13.012   9.453  0.1443 -0.2899  0.0309
  613ERGO    C1 8609   8.590  12.857   9.117 -0.1646 -0.2441 -0.0783
  613ERGO    C2 8610   8.532  12.911   8.776 -0.0614 -0.0131 -0.2770
  614ERGO   ROH 8611   6.061  16.161   8.954 -0.1305  0.1010  0.0893
  614ERGO    R1 8612   6.133  16.246   8.694  0.0246  0.0326  0.1081
  614ERGO    R2 8613   6.071  16.101   8.467  0.0876  0.0123  0.1004
  614ERGO    R3 8614   5.959  16.335   8.387  0.2010  0.0355  0.0080
  614ERGO    R4 8615   6.088  16.230   8.147  0.1691 -0.1058  0.0571
  614ERGO    R5 8616   6.116  16.427   8.233  0.2525 -0.0898 -0.0126
  614ERGO    C1 8617   5.992  16.524   7.885  0.3232 -0.1524 -0.0548
  614ERGO    C2 8618   5.750  16.591   7.624  0.1491  0.2118 -0.0605
  615ERGO   ROH 8619   4.768   6.655   9.073  0.1852  0.0771  0.1260
  615ERGO    R1 8620   4.835   6.717   8.805  0.1261  0.0863  0.1132
  615ERGO    R2 8621   4.659   6.843   8.633  0.0881  0.0926  0.1557
  615ERGO    R3 8622   4.865   7.018   8.602  0.0815  0.0932  0.1169
  615ERGO    R4 8623   4.779   6.954   8.329  0.1578 -0.0582  0.1275
  615ERGO    R5 8624   4.982   6.938   8.409  0.1382  0.0005  0.1889
  615ERGO    C1 8625   5.043   7.182   8.122  0.1921 -0.1454  0.0749
  615ERGO    C2 8626   5.126   7.339   7.902 -0.0634 -0.3830  0.0228
  616ERGO   ROH 8627  13.447   8.262   9.811  0.4847 -0.0357 -0.0751
  616ERGO    R1 8628  13.528   8.380   9.567  0.2864 -0.0629 -0.1559
  616ERGO    R2 8629  13.514   8.246   9.325 -0.0010 -0.0573 -0.1481
  616ERGO    R3 8630  13.371   8.464   9.249  0.0003 -0.0047 -0.0019
  616ERGO    R4 8631  13.464   8.345   8.998 -0.0250  0.1501 -0.0831
  616ERGO    R5 8632  13.491   8.552   9.061 -0.0135  0.1091  0.0430
  616ERGO    C1 8633  13.299   8.607   8.736 -0.0378  0.3203  0.0921
  616ERGO    C2 8634  13.299   8.689   8.376  0.1645 -0.1211  0.0274
  617ERGO   ROH 8635   8.835   3.160   9.390 -0.2362  0.0140 -0.2677
  617ERGO    R1 8636   9.040   3.166   9.195 -0.1918  0.3828 -0.2174
  617ERGO    R2 8637   9.070   2.968   9.004  0.5157  0.1423  0.1043
  617ERGO    R3 8638   9.059   3.178   8.832 -0.1557 -0.1445 -0.2400
  617ERGO    R4 8639   9.201   2.970   8.684  0.6454  0.0893  0.1567
  617ERGO    R5 8640   9.269   3.174   8.718 -0.0742  0.4069 -0.1332
  617ERGO    C1 8641   9.267   3.168   8.337  0.0906 -0.2108 -0.1360
  617ERGO    C2 8642   9.500   3.134   8.213  0.1499 -0.2078  0.1715
  618ERGO   ROH 8643   3.389  13.444   9.424  0.0282  0.0750  0.2129
  618ERGO    R1 8644   3.325  13.580   9.184  0.0991  0.1960  0.2614
  618ERGO    R2 8645   3.232  13.449   8.959  0.3575  0.2794  0.0975
  618ERGO    R3 8646   3.029  13.629   8.978  0.2073  0.1135  0.0852
  618ERGO    R4 8647   3.068  13.591   8.690  0.1209  0.0098  0.0945
  618ERGO    R5 8648   3.067  13.781   8.797 -0.0018  0.0599 -0.0026
  618ERGO    C1 8649   2.782  13.843   8.551 -0.1579 -0.3030  0.0811
  618ERGO    C2 8650   2.826  13.866   8.169  0.0076  0.1070 -0.0587
  619ERGO   ROH 8651   9.879  12.983   6.533  0.0421  0.2842 -0.1618
  619ERGO    R1 8652   9.897  13.095   6.792  0.0304  0.1118 -0.0851
  619ERGO    R2 8653   9.845  12.950   7.021  0.1329 -0.0725 -0.1786
  619ERGO    R3 8654  10.092  13.037   7.093  0.1044 -0.0085 -0.1554
  619ERGO    R4 8655   9.936  13.044   7.341  0.0593  0.0145 -0.1824
  619ERGO    R5 8656  10.050  13.208   7.255  0.0424  0.0193 -0.1992
  619ERGO    C1 8657  10.221  13.180   7.595 -0.0102  0.1253 -0.1629
  619ERGO    C2 8658  10.430  13.211   7.856  0.2332 -0.0452  0.0131
  620ERGO   ROH 8659  14.611   6.635   9.271 -0.2060  0.3850 -0.0721
  620ERGO    R1 8660  14.679   6.565   9.005 -0.1969  0.1366 -0.0090
  620ERGO    R2 8661  14.498   6.578   8.797 -0.1350  0.1702 -0.0809
  620ERGO    R3 8662  14.691   6.732   8.682  0.0507 -0.0867 -0.1140
  620ERGO    R4 8663  14.518   6.648   8.459 -0.3143  0.4804 -0.0290
  620ERGO    R5 8664  14.734   6.624   8.472 -0.3557  0.0474 -0.2637
  620ERGO    C1 8665  14.710   6.833   8.154 -0.2445  0.4199 -0.0298
  620ERGO    C2 8666  14.740   6.929   7.800  0.1573 -0.3111  0.2382
  621ERGO   ROH 8667  13.744   5.581   9.568 -0.0523  0.1058 -0.0483
  621ERGO    R1 8668  13.540   5.659   9.388 -0.1796  0.0296  0.0627
  621ERGO    R2 8669  13.555   5.612   9.117 -0.2263  0.1933  0.0355
  621ERGO    R3 8670  13.314   5.493   9.157 -0.1154 -0.0367  0.0448
  621ERGO    R4 8671  13.343   5.505   8.865 -0.2376  0.2231  0.0313
  621ERGO    R5 8672  13.175   5.580   8.982 -0.2569 -0.0037  0.1658
  621ERGO    C1 8673  12.994   5.332   8.756 -0.1400  0.0244  0.0377
  621ERGO    C2 8674  12.735   5.136   8.501  0.0410  0.3031 -0.1013
  622ERGO   ROH 8675   8.118   2.567   9.555 -0.3148  0.1529  0.0304
  622ERGO    R1 8676   8.206   2.434   9.322 -0.1449  0.1905  0.0720
  622ERGO    R2 8677   8.072   2.218   9.213  0.0498  0.0733  0.0588
  622ERGO    R3 8678   8.076   2.370   8.988 -0.0006  0.0494  0.0414
  622ERGO    R4 8679   8.031   2.096   8.893  0.0817  0.0260  0.0723
  622ERGO    R5 8680   8.187   2.233   8.826  0.0386  0.0662  0.0545
  622ERGO    C1 8681   8.011   2.168   8.494  0.0530 -0.0239  0.0639
  622ERGO    C2 8682   7.880   2.108   8.124 -0.1022 -0.1182  0.0126
  623ERGO   ROH 8683   8.184  11.312   9.909  0.1712  0.1159 -0.0771
  623ERGO    R1 8684   8.321  11.195   9.690  0.0838  0.0961 -0.1209
  623ERGO    R2 8685   8.230  10.967   9.563  0.0945  0.0199  0.0119
  623ERGO    R3 8686   8.248  11.124   9.341 -0.0991 -0.0497 -0.0555
  623ERGO    R4 8687   8.295  10.851   9.243  0.2992 -0.0374  0.0724
  623ERGO    R5 8688   8.424  11.024   9.212  0.0626  0.1359  0.0129
  623ERGO    C1 8689   8.349  10.931   8.850  0.2368 -0.1363  0.0442
  623ERGO    C2 8690   8.260  10.801   8.501 -0.0207  0.0100  0.1016
  624ERGO   ROH 8691   9.542  13.585   9.881  0.0053  0.1912 -0.0880
  624ERGO    R1 8692   9.690  13.473   9.668 -0.0333  0.0362 -0.0340
  624ERGO    R2 8693   9.742  13.202   9.650 -0.1727  0.0025  0.0691
  624ERGO    R3 8694   9.631  13.230   9.403 -0.1349 -0.0297  0.0479
  624ERGO    R4 8695   9.697  12.945   9.423  0.0148  0.0017  0.0308
  624ERGO    R5 8696   9.758  13.081   9.264 -0.0235  0.0525  0.0584
  624ERGO    C1 8697   9.567  12.821   9.060  0.1596 -0.0291 -0.0116
  624ERGO    C2 8698   9.504  12.626   8.816 -0.1101 -0.0386 -0.1643
  625ERGO   ROH 8699  11.675   7.527  10.106 -0.1808  0.0812 -0.0231
  625ERGO    R1 8700  11.738   7.678   9.875 -0.0824 -0.0056 -0.0536
  625ERGO    R2 8701  11.845   7.564   9.647 -0.1518 -0.1198 -0.0279
  625ERGO    R3 8702  11.633   7.685   9.526 -0.0739 -0.0102 -0.0569
  625ERGO    R4 8703  11.825   7.635   9.309 -0.0918 -0.1709 -0.0425
  625ERGO    R5 8704  11.732   7.826   9.360  0.0236 -0.1015 -0.0802
  625ERGO    C1 8705  11.614   7.789   8.999  0.0163 -0.0978 -0.0783
  625ERGO    C2 8706  11.651   8.000   8.794  0.2109  0.0047 -0.0116
  626ERGO   ROH 8707  10.311  11.041  10.193 -0.1424 -0.2627 -0.0202
  626ERGO    R1 8708  10.374  11.195   9.964 -0.1269 -0.0928  0.0966
  626ERGO    R2 8709  10.494  11.086   9.739  0.0372  0.1062  0.0873
  626ERGO    R3 8710  10.280  11.196   9.612  0.0319  0.0573  0.0524
  626ERGO    R4 8711  10.453  11.098   9.397  0.0659  0.0419  0.0809
  626ERGO    R5 8712  10.374  11.300   9.418  0.0367  0.0377  0.0416
  626ERGO    C1 8713  10.229  11.209   9.077  0.0777 -0.0415  0.0445
  626ERGO    C2 8714  10.172  11.329   8.742  0.0935  0.4399 -0.0091
  627ERGO   ROH 8715   1.078  18.107   9.477  0.1980 -0.0868 -0.0924
  627ERGO    R1 8716   0.968  17.968   9.256  0.1633 -0.0535 -0.0952
  627ERGO    R2 8717   0.778  18.079   9.090  0.2537  0.0277 -0.1389
  627ERGO    R3 8718   0.955  18.012   8.895  0.2498 -0.0898 -0.1040
  627ERGO    R4 8719   0.692  17.976   8.771  0.2421  0.1744 -0.1848
  627ERGO    R5 8720   0.852  17.828   8.781  0.1107  0.0240 -0.1712
  627ERGO    C1 8721   0.809  17.853   8.403  0.2317  0.1491 -0.1788
  627ERGO    C2 8722   0.644  17.961   8.130 -0.1733  0.0751 -0.0153
  628ERGO   ROH 8723   1.634  10.287   9.300 -0.0682 -0.0255  0.0751
  628ERGO    R1 8724   1.662  10.331   9.022 -0.0782  0.0130  0.0785
  628ERGO    R2 8725   1.584  10.144   8.833 -0.0333  0.0105  0.0513
  628ERGO    R3 8726   1.441  10.353   8.734 -0.0858 -0.0117  0.0851
  628ERGO    R4 8727   1.563  10.229   8.498  0.1618  0.2329  0.0938
  628ERGO    R5 8728   1.575  10.439   8.555 -0.0107  0.1964  0.2454
  628ERGO    C1 8729   1.416  10.473   8.211  0.2261  0.3415  0.1504
  628ERGO    C2 8730   1.372  10.405   7.842 -0.0914 -0.1448 -0.2658
  629ERGO   ROH 8731   7.175   5.692   8.965  0.1091 -0.1116 -0.0076
  629ERGO    R1 8732   7.027   5.543   8.775  0.1081 -0.1187 -0.0010
  629ERGO    R2 8733   6.842   5.659   8.606 -0.0223 -0.1510  0.1163
  629ERGO    R3 8734   6.991   5.539   8.413 -0.0364 -0.0046  0.0118
  629ERGO    R4 8735   6.717   5.531   8.310 -0.0664 -0.1001  0.1121
  629ERGO    R5 8736   6.852   5.361   8.332  0.0233 -0.0414 -0.0049
  629ERGO    C1 8737   6.784   5.342   7.957 -0.1052  0.0669  0.0116
  629ERGO    C2 8738   6.701   5.332   7.677 -0.0610 -0.1941 -0.1427
  630ERGO   ROH 8739   7.089   2.563   9.283  0.0886  0.1925  0.0526
  630ERGO    R1 8740   7.080   2.698   9.034  0.0594  0.0208 -0.0402
  630ERGO    R2 8741   7.169   2.582   8.799  0.0095 -0.1504  0.0248
  630ERGO    R3 8742   6.920   2.646   8.711  0.0010 -0.1888  0.0204
  630ERGO    R4 8743   7.092   2.675   8.475  0.0224 -0.0488  0.0503
  630ERGO    R5 8744   6.956   2.825   8.556 -0.0312 -0.1180  0.0926
  630ERGO    C1 8745   6.813   2.788   8.204  0.0219 -0.0257  0.0610
  630ERGO    C2 8746   6.695   2.878   7.927 -0.0278  0.1399  0.1792
  631ERGO   ROH 8747  11.217  12.633  10.252  0.1620 -0.0935 -0.2354
  631ERGO    R1 8748  11.103  12.638   9.993 -0.0741 -0.1396 -0.1360
  631ERGO    R2 8749  11.205  12.792   9.788 -0.3204 -0.0917 -0.2342
  631ERGO    R3 8750  11.210  12.555   9.655 -0.3382 -0.0917 -0.2321
  631ERGO    R4 8751  11.182  12.758   9.445 -0.1231 -0.0889 -0.2479
  631ERGO    R5 8752  11.054  12.585   9.476 -0.2120 -0.0309 -0.3280
  631ERGO    C1 8753  11.173  12.516   9.120 -0.0248 -0.0873 -0.2539
  631ERGO    C2 8754  11.197  12.401   8.776 -0.0545  0.0673  0.1231
  632ERGO   ROH 8755   6.579  10.249   9.527  0.1491 -0.0567 -0.1039
  632ERGO    R1 8756   6.657  10.019   9.382 -0.0645 -0.0716 -0.1977
  632ERGO    R2 8757   6.475   9.861   9.247 -0.2174  0.1301 -0.2317
  632ERGO    R3 8758   6.642   9.907   9.037 -0.2053  0.0650 -0.2371
  632ERGO    R4 8759   6.600   9.617   9.035 -0.1110  0.0497 -0.0787
  632ERGO    R5 8760   6.792   9.720   9.037 -0.1443  0.1129 -0.1120
  632ERGO    C1 8761   6.828   9.519   8.715 -0.0376 -0.0583  0.0056
  632ERGO    C2 8762   6.987   9.393   8.389  0.0785 -0.2322 -0.3778
  633ERGO   ROH 8763  11.114  13.852   9.779  0.0557  0.1536  0.0444
  633ERGO    R1 8764  11.145  13.817   9.500  0.1477 -0.1008  0.0846
  633ERGO    R2 8765  11.165  13.567   9.384 -0.3012 -0.2344  0.2689
  633ERGO    R3 8766  10.958  13.657   9.232 -0.0349  0.1006  0.0901
  633ERGO    R4 8767  11.120  13.496   9.048 -0.1995 -0.2657  0.2615
  633ERGO    R5 8768  11.056  13.702   9.018  0.2012 -0.1520  0.1410
  633ERGO    C1 8769  10.900  13.540   8.710  0.1096  0.0304  0.0894
  633ERGO    C2 8770  10.915  13.441   8.345 -0.1541 -0.1365  0.2381
  634ERGO   ROH 8771  11.246   5.102   9.509  0.0145  0.1988  0.0591
  634ERGO    R1 8772  11.416   5.171   9.293  0.1044 -0.0122  0.0585
  634ERGO    R2 8773  11.543   4.981   9.137 -0.0511 -0.1749  0.1147
  634ERGO    R3 8774  11.422   5.114   8.934  0.0875 -0.1106  0.0754
  634ERGO    R4 8775  11.603   4.926   8.801 -0.0422 -0.2606  0.1312
  634ERGO    R5 8776  11.594   5.142   8.770  0.1291 -0.2637  0.0998
  634ERGO    C1 8777  11.525   5.020   8.415  0.0932 -0.2502  0.1039
  634ERGO    C2 8778  11.415   5.212   8.113 -0.0722  0.1138  0.0936
  635ERGO   ROH 8779   5.135  17.201   9.044  0.2641 -0.0108 -0.1624
  635ERGO    R1 8780   5.124  17.332   8.794 -0.0378  0.0007 -0.1466
  635ERGO    R2 8781   4.914  17.297   8.617 -0.2846  0.0536  0.1237
  635ERGO    R3 8782   4.901  17.568   8.629 -0.2075  0.0555  0.1554
  635ERGO    R4 8783   4.754  17.498   8.385 -0.1638  0.1359  0.1113
  635ERGO    R5 8784   4.920  17.639   8.401 -0.1281  0.0830  0.1724
  635ERGO    C1 8785   4.650  17.870   8.262 -0.0210  0.1856  0.1338
  635ERGO    C2 8786   4.646  18.111   8.023  0.2007  0.0947  0.2113
  636ERGO   ROH 8787   5.273  12.778   9.478  0.0824 -0.1052 -0.0681
  636ERGO    R1 8788   5.350  12.722   9.211  0.0815 -0.0371 -0.0833
  636ERGO    R2 8789   5.177  12.611   9.026  0.1283 -0.1486 -0.0646
  636ERGO    R3 8790   5.248  12.828   8.879 -0.0443 -0.0887 -0.0605
  636ERGO    R4 8791   5.110  12.652   8.690  0.0862 -0.1841 -0.0606
  636ERGO    R5 8792   5.308  12.738   8.666  0.0171 -0.0313 -0.0648
  636ERGO    C1 8793   5.138  12.880   8.355 -0.1003 -0.1485 -0.0543
  636ERGO    C2 8794   5.067  12.927   8.036  0.1835 -0.0294  0.1402
  637ERGO   ROH 8795   9.461   1.119   9.695  0.2649 -0.0581  0.0780
  637ERGO    R1 8796   9.472   0.935   9.479  0.1793 -0.0880  0.0994
  637ERGO    R2 8797   9.273   0.919   9.288  0.1393 -0.0656  0.1427
  637ERGO    R3 8798   9.481   0.955   9.116  0.1127 -0.1387  0.0939
  637ERGO    R4 8799   9.258   0.868   8.946  0.0974 -0.2787  0.1745
  637ERGO    R5 8800   9.457   0.779   8.956  0.1153 -0.2443  0.2046
  637ERGO    C1 8801   9.445   0.872   8.586  0.0480 -0.4713  0.1473
  637ERGO    C2 8802   9.327   1.082   8.506  0.0991  0.4151 -0.1129
  638ERGO   ROH 8803   8.138  17.907   9.535  0.0800  0.0633  0.1728
  638ERGO    R1 8804   8.238  18.153   9.435 -0.1180  0.0771  0.0012
  638ERGO    R2 8805   8.504  18.190   9.371 -0.1473  0.2475 -0.0210
  638ERGO    R3 8806   8.402  18.268   9.132 -0.2097 -0.0013 -0.0790
  638ERGO    R4 8807   8.693  18.262   9.091 -0.2071  0.1399 -0.0905
  638ERGO    R5 8808   8.559  18.430   9.051 -0.3102  0.0305 -0.2157
  638ERGO    C1 8809   8.707  18.378   8.703 -0.3004 -0.1563 -0.1853
  638ERGO    C2 8810   8.753  18.283   8.415  0.3565 -0.0821 -0.0343
  639ERGO   ROH 8811   2.078  12.200   9.264  0.0794 -0.2232 -0.0410
  639ERGO    R1 8812   2.082  12.385   9.049  0.0727 -0.1752 -0.0007
  639ERGO    R2 8813   2.304  12.423   8.889  0.0883 -0.1004  0.0311
  639ERGO    R3 8814   2.128  12.371   8.689  0.1190 -0.0913  0.0028
  639ERGO    R4 8815   2.376  12.448   8.552  0.1066 -0.0078  0.0422
  639ERGO    R5 8816   2.178  12.535   8.522  0.0947 -0.0454  0.0453
  639ERGO    C1 8817   2.252  12.414   8.167  0.1461  0.0548  0.0223
  639ERGO    C2 8818   2.236  12.536   7.803  0.0379  0.0857  0.1363
  640ERGO   ROH 8819   3.376  16.682   9.184  0.0243 -0.0041  0.2236
  640ERGO    R1 8820   3.353  16.870   8.974  0.4125  0.0916  0.2578
  640ERGO    R2 8821   3.548  16.901   8.780  0.3355 -0.5384  0.0481
  640ERGO    R3 8822   3.339  16.860   8.610 -0.0055  0.1311  0.2688
  640ERGO    R4 8823   3.550  16.978   8.443  0.3248 -0.7895 -0.0097
  640ERGO    R5 8824   3.345  17.049   8.463  0.5906  0.0242  0.1340
  640ERGO    C1 8825   3.356  16.983   8.087 -0.0015 -0.3073  0.1639
  640ERGO    C2 8826   3.520  17.043   7.775 -0.0673 -0.1272 -0.2093
  641ERGO   ROH 8827  11.863   8.883  10.404 -0.2383 -0.0898  0.1039
  641ERGO    R1 8828  11.830   8.842  10.126 -0.1924  0.0703  0.0732
  641ERGO    R2 8829  11.995   8.958   9.938 -0.0186 -0.0015  0.1771
  641ERGO    R3 8830  12.027   8.701   9.855 -0.2427  0.0033  0.0720
  641ERGO    R4 8831  11.926   8.843   9.619  0.0966  0.2374  0.0637
  641ERGO    R5 8832  11.841   8.663   9.708 -0.1747  0.2841 -0.0922
  641ERGO    C1 8833  11.915   8.535   9.356 -0.0470  0.3811 -0.1011
  641ERGO    C2 8834  11.961   8.288   9.198 -0.1118 -0.0100  0.0825
  642ERGO   ROH 8835  10.994   1.789   9.732 -0.0947 -0.2956 -0.0455
  642ERGO    R1 8836  11.166   1.893   9.532 -0.1731 -0.0780 -0.0036
  642ERGO    R2 8837  11.391   1.758   9.445  0.0723  0.2407  0.1111
  642ERGO    R3 8838  11.277   1.791   9.201  0.1072  0.0099  0.0615
  642ERGO    R4 8839  11.531   1.656   9.146  0.2057  0.1427  0.2059
  642ERGO    R5 8840  11.460   1.841   9.056  0.1053  0.0376  0.0722
  642ERGO    C1 8841  11.505   1.628   8.742  0.3163 -0.1310  0.2147
  642ERGO    C2 8842  11.587   1.660   8.444  0.0478  0.0563  0.0819
  643ERGO   ROH 8843   1.267   0.556   8.992 -0.1177  0.0548 -0.0167
  643ERGO    R1 8844   1.178   0.632   8.735  0.1548 -0.0711 -0.1513
  643ERGO    R2 8845   1.075   0.882   8.681 -0.0799 -0.1978 -0.3095
  643ERGO    R3 8846   1.267   0.885   8.489  0.1993  0.0243 -0.0376
  643ERGO    R4 8847   1.080   1.097   8.410  0.0642 -0.1930 -0.3043
  643ERGO    R5 8848   1.148   0.931   8.286  0.4366 -0.1156 -0.2126
  643ERGO    C1 8849   1.263   1.224   8.072  0.4102  0.0184 -0.0459
  643ERGO    C2 8850   1.468   1.410   7.890  0.0353 -0.4588 -0.1055
  644ERGO   ROH 8851   4.866  14.926   8.719  0.2868  0.2391  0.1132
  644ERGO    R1 8852   4.691  14.954   8.499  0.3484  0.4463  0.0869
  644ERGO    R2 8853   4.778  15.026   8.247  0.4908  0.2285  0.0664
  644ERGO    R3 8854   4.649  14.799   8.172  0.1377  0.4009  0.1350
  644ERGO    R4 8855   4.668  14.958   7.926  0.4725  0.2553  0.0680
  644ERGO    R5 8856   4.487  14.872   8.012  0.3046  0.5919  0.0537
  644ERGO    C1 8857   4.483  14.704   7.670  0.1304  0.4328  0.1334
  644ERGO    C2 8858   4.424  14.721   7.313  0.1484  0.0341  0.2009
  645ERGO   ROH 8859  14.917  14.631   9.763 -0.1918  0.4771  0.0161
  645ERGO    R1 8860  14.988  14.668   9.491 -0.0253  0.2543  0.0253
  645ERGO    R2 8861  15.212  14.552   9.379 -0.0437  0.0243  0.2108
  645ERGO    R3 8862  15.032  14.458   9.197 -0.0191  0.0328  0.1835
  645ERGO    R4 8863  15.294  14.377   9.092 -0.0051  0.1123  0.1687
  645ERGO    R5 8864  15.140  14.489   8.986 -0.0234  0.1058  0.1945
  645ERGO    C1 8865  15.174  14.186   8.755  0.0404  0.1717  0.1185
  645ERGO    C2 8866  15.448  14.200   8.456  0.2846  0.1430  0.2932
  646ERGO   ROH 8867  18.483  16.474  10.041 -0.0238 -0.1227  0.0123
  646ERGO    R1 8868  18.262  16.413   9.875 -0.0524 -0.0265  0.0138
  646ERGO    R2 8869  18.280  16.409   9.599 -0.0349 -0.1125  0.0144
  646ERGO    R3 8870  18.179  16.159   9.628 -0.1968 -0.0418  0.0774
  646ERGO    R4 8871  18.194  16.200   9.338  0.1954 -0.2670  0.0599
  646ERGO    R5 8872  18.018  16.138   9.452  0.0167 -0.0928 -0.1154
  646ERGO    C1 8873  18.049  15.842   9.213  0.1771 -0.2905  0.1454
  646ERGO    C2 8874  18.145  15.727   8.909  0.4153  0.0930  0.0629
  647ERGO   ROH 8875   8.306  11.713   9.811  0.1061  0.0603 -0.0259
  647ERGO    R1 8876   8.476  11.700   9.585  0.0027  0.0537 -0.1034
  647ERGO    R2 8877   8.619  11.472   9.519 -0.0066  0.0629 -0.1451
  647ERGO    R3 8878   8.494  11.503   9.279 -0.1183  0.0246 -0.0933
  647ERGO    R4 8879   8.737  11.350   9.218 -0.0272  0.2049 -0.2120
  647ERGO    R5 8880   8.673  11.536   9.123 -0.1944  0.1829 -0.1525
  647ERGO    C1 8881   8.689  11.308   8.818 -0.1439  0.2520 -0.2024
  647ERGO    C2 8882   8.685  11.111   8.522 -0.0947  0.3572  0.1064
  648ERGO   ROH 8883  17.778  10.147   9.461  0.0650  0.0709 -0.0865
  648ERGO    R1 8884  17.621  10.069   9.239  0.1491  0.2359 -0.2049
  648ERGO    R2 8885  17.724  10.048   8.983  0.3759 -0.0683 -0.0919
  648ERGO    R3 8886  17.622   9.797   8.997 -0.0798  0.1093 -0.0672
  648ERGO    R4 8887  17.662   9.845   8.711  0.6190 -0.2142 -0.0423
  648ERGO    R5 8888  17.477   9.781   8.807  0.2924  0.1842 -0.3685
  648ERGO    C1 8889  17.530   9.491   8.566  0.3326 -0.1323  0.0096
  648ERGO    C2 8890  17.661   9.270   8.332 -0.2929 -0.1307 -0.2263
  649ERGO   ROH 8891  14.637   8.649   9.413  0.1100 -0.1313 -0.0282
  649ERGO    R1 8892  14.647   8.684   9.133  0.0721  0.0461 -0.0068
  649ERGO    R2 8893  14.491   8.537   8.959  0.1397  0.0739 -0.0815
  649ERGO    R3 8894  14.414   8.782   8.871  0.0049  0.0879  0.0656
  649ERGO    R4 8895  14.370   8.604   8.642 -0.1929  0.1350  0.0529
  649ERGO    R5 8896  14.486   8.789   8.642 -0.2214  0.1609 -0.0113
  649ERGO    C1 8897  14.228   8.874   8.375 -0.5132  0.1837  0.2692
  649ERGO    C2 8898  14.013   8.986   8.017  0.2256 -0.1533 -0.2543
  650ERGO   ROH 8899  13.760  16.381   9.245  0.0070 -0.3881 -0.0734
  650ERGO    R1 8900  13.651  16.527   9.029 -0.2706 -0.4232  0.0381
  650ERGO    R2 8901  13.809  16.644   8.834 -0.4655  0.1957  0.2271
  650ERGO    R3 8902  13.651  16.501   8.666 -0.0331 -0.0400  0.0056
  650ERGO    R4 8903  13.735  16.735   8.509 -0.4818  0.3021  0.2600
  650ERGO    R5 8904  13.530  16.667   8.542 -0.3536 -0.2122  0.0799
  650ERGO    C1 8905  13.544  16.653   8.161 -0.0853  0.1428  0.0713
  650ERGO    C2 8906  13.571  16.760   7.769  0.1232 -0.2755 -0.0799
  651ERGO   ROH 8907   1.326  12.737   9.578 -0.0729 -0.0398  0.1412
  651ERGO    R1 8908   1.230  12.808   9.321 -0.2012  0.2931  0.2762
  651ERGO    R2 8909   1.179  13.069   9.249  0.5492  0.4902  0.3815
  651ERGO    R3 8910   1.346  13.011   9.043  0.0989 -0.0521  0.1409
  651ERGO    R4 8911   1.152  13.200   8.930  0.5580  0.6455  0.4426
  651ERGO    R5 8912   1.204  13.003   8.851 -0.2057  0.4598  0.3246
  651ERGO    C1 8913   1.293  13.221   8.550  0.1405  0.2269  0.2521
  651ERGO    C2 8914   1.528  13.255   8.325  0.3272  0.1171  0.2346
  652ERGO   ROH 8915   6.397  13.058   9.653 -0.0525  0.1402 -0.0461
  652ERGO    R1 8916   6.336  13.117   9.383  0.0084  0.0886 -0.0711
  652ERGO    R2 8917   6.530  13.141   9.188  0.0423 -0.0783 -0.0579
  652ERGO    R3 8918   6.379  12.954   9.060 -0.0453 -0.0368 -0.0158
  652ERGO    R4 8919   6.476  13.129   8.846  0.0582 -0.1446 -0.0585
  652ERGO    R5 8920   6.269  13.075   8.886  0.0275 -0.0278 -0.0565
  652ERGO    C1 8921   6.302  12.946   8.529 -0.0148 -0.1442 -0.0194
  652ERGO    C2 8922   6.084  12.895   8.252 -0.2195 -0.1171  0.0602
  653ERGO   ROH 8923   0.404   8.043   8.630 -0.0688 -0.0168 -0.2551
  653ERGO    R1 8924   0.426   8.313   8.547 -0.0878  0.0506 -0.0469
  653ERGO    R2 8925   0.566   8.387   8.320  0.0492  0.2529  0.1036
  653ERGO    R3 8926   0.332   8.508   8.254  0.0603  0.2335  0.0244
  653ERGO    R4 8927   0.527   8.616   8.064  0.1318  0.2875  0.1210
  653ERGO    R5 8928   0.395   8.731   8.194  0.0612  0.2523  0.0857
  653ERGO    C1 8929   0.284   8.863   7.854  0.1903  0.2896  0.0568
  653ERGO    C2 8930   0.135   9.120   7.683  0.2230  0.2373 -0.1295
  654ERGO   ROH 8931  17.731  18.613   9.912 -0.0592  0.1089  0.0563
  654ERGO    R1 8932  17.838  18.435   9.721  0.0135  0.0375  0.1635
  654ERGO    R2 8933  17.873  18.504   9.455 -0.1010 -0.1367  0.1036
  654ERGO    R3 8934  18.129  18.425   9.502 -0.0338  0.0702  0.0983
  654ERGO    R4 8935  18.067  18.324   9.233  0.0614  0.0691  0.0755
  654ERGO    R5 8936  18.143  18.208   9.401  0.1534  0.0994  0.0567
  654ERGO    C1 8937  18.421  18.145   9.148  0.2190  0.3834  0.0542
  654ERGO    C2 8938  18.474  17.965   8.832 -0.1541  0.0709  0.0540
  655ERGO   ROH 8939   5.051  16.490   8.731 -0.1987  0.1636 -0.0748
  655ERGO    R1 8940   5.037  16.393   8.465 -0.0701  0.2925 -0.1308
  655ERGO    R2 8941   4.940  16.141   8.403  0.2391  0.1985 -0.2753
  655ERGO    R3 8942   4.775  16.281   8.238  0.0706  0.0954 -0.1958
  655ERGO    R4 8943   4.729  16.001   8.167  0.2457  0.0799 -0.2108
  655ERGO    R5 8944   4.783  16.162   8.031  0.0724  0.1306 -0.2105
  655ERGO    C1 8945   4.453  16.051   7.875  0.0914 -0.0861 -0.0986
  655ERGO    C2 8946   4.217  16.182   7.545  0.0597 -0.1082  0.0747
  656ERGO   ROH 8947  12.997  11.056   9.739  0.4378  0.0521 -0.2225
  656ERGO    R1 8948  12.914  10.945   9.492  0.2855 -0.0376 -0.1327
  656ERGO    R2 8949  12.714  11.059   9.338  0.1266 -0.1429 -0.0107
  656ERGO    R3 8950  12.905  11.052   9.144 -0.0165 -0.1252 -0.1539
  656ERGO    R4 8951  12.653  11.088   8.999 -0.1181 -0.0952  0.0360
  656ERGO    R5 8952  12.802  10.933   8.963 -0.1521 -0.0950 -0.0951
  656ERGO    C1 8953  12.795  11.099   8.620 -0.3948 -0.0508 -0.0713
  656ERGO    C2 8954  12.750  11.307   8.190 -0.1111  0.0944 -0.1032
  657ERGO   ROH 8955   7.754  14.826   9.661 -0.1767 -0.0492 -0.3888
  657ERGO    R1 8956   7.790  14.577   9.531 -0.0059 -0.0390 -0.3633
  657ERGO    R2 8957   7.647  14.505   9.306 -0.0457 -0.2093 -0.2845
  657ERGO    R3 8958   7.894  14.464   9.202 -0.0540  0.0037 -0.3935
  657ERGO    R4 8959   7.710  14.341   9.009 -0.0282 -0.2945 -0.2344
  657ERGO    R5 8960   7.881  14.245   9.104  0.1277 -0.0629 -0.2741
  657ERGO    C1 8961   7.979  14.207   8.737 -0.0260 -0.1441 -0.3073
  657ERGO    C2 8962   7.844  14.133   8.355 -0.1117 -0.4277  0.3259
  658ERGO   ROH 8963  12.850   2.301   9.707 -0.2770 -0.1214  0.0289
  658ERGO    R1 8964  12.915   2.256   9.435 -0.1870 -0.0453  0.0374
  658ERGO    R2 8965  12.801   2.053   9.286 -0.1638  0.0178 -0.0667
  658ERGO    R3 8966  12.737   2.256   9.117 -0.0744  0.0799 -0.0267
  658ERGO    R4 8967  12.710   2.013   8.955 -0.0697  0.1308 -0.1070
  658ERGO    R5 8968  12.829   2.189   8.907 -0.0215  0.1243 -0.0187
  658ERGO    C1 8969  12.597   2.180   8.604  0.0690  0.2548 -0.0930
  658ERGO    C2 8970  12.471   2.014   8.364  0.0674  0.3928  0.1672
  659ERGO   ROH 8971   2.361   3.016   9.515 -0.1560  0.0861  0.0376
  659ERGO    R1 8972   2.255   3.132   9.280 -0.1263  0.1087  0.0360
  659ERGO    R2 8973   2.384   3.335   9.142  0.0208 -0.0602 -0.0731
  659ERGO    R3 8974   2.358   3.164   8.932 -0.2136 -0.1046 -0.0124
  659ERGO    R4 8975   2.328   3.431   8.815  0.2809 -0.0836 -0.1271
  659ERGO    R5 8976   2.190   3.264   8.794 -0.0085  0.1400 -0.0986
  659ERGO    C1 8977   2.271   3.327   8.427  0.2123 -0.1389 -0.1016
  659ERGO    C2 8978   2.438   3.470   8.216  0.0841  0.1143  0.2792
  660ERGO   ROH 8979   6.121   4.344   9.344  0.1137  0.1685  0.0955
  660ERGO    R1 8980   6.016   4.390   9.086  0.0747  0.0443  0.0879
  660ERGO    R2 8981   6.053   4.628   8.950 -0.1301  0.0633  0.0566
  660ERGO    R3 8982   6.149   4.464   8.755  0.0154  0.1185  0.0812
  660ERGO    R4 8983   6.076   4.711   8.616  0.0802  0.1371  0.0883
  660ERGO    R5 8984   6.010   4.510   8.566  0.1359  0.1428  0.0001
  660ERGO    C1 8985   6.179   4.606   8.238  0.3392  0.2319  0.1299
  660ERGO    C2 8986   6.139   4.639   7.858  0.2358  0.2074  0.0688
  661ERGO   ROH 8987  14.315  10.531  10.041 -0.0171  0.0411 -0.0842
  661ERGO    R1 8988  14.203  10.408   9.812 -0.1462  0.1761 -0.0966
  661ERGO    R2 8989  14.128  10.552   9.588 -0.0286  0.2808 -0.0765
  661ERGO    R3 8990  14.292  10.377   9.460 -0.1946  0.1471 -0.1048
  661ERGO    R4 8991  14.120  10.485   9.249 -0.0238  0.4150 -0.1025
  661ERGO    R5 8992  14.152  10.275   9.295 -0.2679  0.3638 -0.1753
  661ERGO    C1 8993  14.268  10.281   8.932 -0.1770  0.3676 -0.1444
  661ERGO    C2 8994  14.294  10.248   8.579 -0.1634 -0.0085 -0.0827
  662ERGO   ROH 8995   6.933  10.205   9.851  0.0974  0.0653 -0.0053
  662ERGO    R1 8996   7.110  10.133   9.642  0.0687  0.0200 -0.0144
  662ERGO    R2 8997   7.191   9.872   9.600  0.0866  0.0140  0.0494
  662ERGO    R3 8998   7.099   9.918   9.348  0.0380 -0.0691  0.0517
  662ERGO    R4 8999   7.276   9.687   9.320  0.1517  0.0180  0.0663
  662ERGO    R5 9000   7.286   9.872   9.207  0.0461  0.0060  0.0393
  662ERGO    C1 9001   7.239   9.623   8.922  0.1439 -0.0575  0.0785
  662ERGO    C2 9002   7.398   9.493   8.654 -0.1127  0.1266 -0.0975
  663ERGO   ROH 9003   9.934   1.463   9.637 -0.0508  0.0237 -0.1149
  663ERGO    R1 9004   9.914   1.286   9.417 -0.0172 -0.0249 -0.0783
  663ERGO    R2 9005   9.720   1.311   9.223  0.0253 -0.0579 -0.1202
  663ERGO    R3 9006   9.933   1.312   9.054  0.0563 -0.1112 -0.0823
  663ERGO    R4 9007   9.706   1.228   8.888  0.0602 -0.0840 -0.1155
  663ERGO    R5 9008   9.896   1.123   8.911  0.0408 -0.1201 -0.0726
  663ERGO    C1 9009   9.899   1.180   8.534  0.1097 -0.1493 -0.0772
  663ERGO    C2 9010   9.841   1.201   8.109  0.0472 -0.1412  0.1838
  664ERGO   ROH 9011   7.559   5.826   9.087 -0.1654 -0.0929 -0.1875
  664ERGO    R1 9012   7.683   5.640   8.914 -0.1438 -0.0998 -0.1643
  664ERGO    R2 9013   7.652   5.650   8.640 -0.0209 -0.0439 -0.1754
  664ERGO    R3 9014   7.924   5.653   8.641 -0.0193 -0.1254 -0.0569
  664ERGO    R4 9015   7.851   5.569   8.369  0.0661  0.1834 -0.1814
  664ERGO    R5 9016   7.986   5.465   8.505 -0.0212 -0.0034 -0.2322
  664ERGO    C1 9017   8.222   5.526   8.212  0.1182  0.2393 -0.0737
  664ERGO    C2 9018   8.230   5.635   7.874 -0.0059  0.0293 -0.1283
  665ERGO   ROH 9019  10.741   4.404   9.471 -0.1115 -0.0109  0.1596
  665ERGO    R1 9020  10.658   4.309   9.217 -0.1161 -0.0846  0.1878
  665ERGO    R2 9021  10.574   4.478   9.015 -0.0962 -0.1400  0.1296
  665ERGO    R3 9022  10.765   4.349   8.872 -0.1048 -0.2054  0.1775
  665ERGO    R4 9023  10.605   4.491   8.672  0.1327  0.0334  0.1550
  665ERGO    R5 9024  10.653   4.279   8.673 -0.0334 -0.0041  0.0645
  665ERGO    C1 9025  10.803   4.378   8.336  0.2579  0.0730  0.2147
  665ERGO    C2 9026  11.000   4.594   8.152 -0.2532  0.2042  0.4923
  666ERGO   ROH 9027  15.519   3.506   9.625  0.0189 -0.1523  0.0421
  666ERGO    R1 9028  15.569   3.659   9.393  0.4570 -0.2119  0.0876
  666ERGO    R2 9029  15.759   3.589   9.206  0.1967 -0.7661  0.0134
  666ERGO    R3 9030  15.550   3.608   9.033  0.1914 -0.0249  0.0721
  666ERGO    R4 9031  15.787   3.590   8.861  0.1107 -0.7994  0.0058
  666ERGO    R5 9032  15.633   3.745   8.855  0.6135 -0.2589  0.0773
  666ERGO    C1 9033  15.608   3.610   8.499  0.0558 -0.1231  0.0564
  666ERGO    C2 9034  15.486   3.689   8.234 -0.0853  0.0124  0.0021
  667ERGO   ROH 9035   9.248   6.128   9.801 -0.0002 -0.0572 -0.0663
  667ERGO    R1 9036   9.164   6.018   9.554  0.0711 -0.0522 -0.0936
  667ERGO    R2 9037   8.903   6.034   9.465  0.0610 -0.1863 -0.0975
  667ERGO    R3 9038   9.019   6.143   9.245  0.0054 -0.0667 -0.0680
  667ERGO    R4 9039   8.776   6.011   9.145  0.0877 -0.1817 -0.1081
  667ERGO    R5 9040   8.979   5.981   9.072  0.1059 -0.0462 -0.1082
  667ERGO    C1 9041   8.810   6.100   8.751  0.0510 -0.0667 -0.0866
  667ERGO    C2 9042   8.836   6.111   8.431  0.4415  0.1137 -0.4769
  668ERGO   ROH 9043  12.265  18.085   9.478  0.3349 -0.0163  0.0794
  668ERGO    R1 9044  12.255  18.033   9.200  0.1202  0.1689  0.0488
  668ERGO    R2 9045  12.297  17.781   9.094  0.3125  0.2876 -0.1681
  668ERGO    R3 9046  12.056  17.826   8.976  0.1373  0.0924  0.1041
  668ERGO    R4 9047  12.219  17.702   8.766  0.0342  0.3049 -0.1083
  668ERGO    R5 9048  12.110  17.890   8.752 -0.1643  0.2080  0.0591
  668ERGO    C1 9049  11.948  17.698   8.465 -0.2921  0.1317  0.1820
  668ERGO    C2 9050  11.879  17.532   8.209  0.1488  0.0729 -0.0360
  669ERGO   ROH 9051  11.565   0.412  10.035  0.1438 -0.0947  0.0001
  669ERGO    R1 9052  11.720   0.364   9.802  0.1020  0.1067 -0.0703
  669ERGO    R2 9053  11.690   0.137   9.648  0.2892  0.0939 -0.0861
  669ERGO    R3 9054  11.655   0.317   9.447  0.0080  0.0831 -0.0508
  669ERGO    R4 9055  11.744   0.073   9.313  0.1672  0.1750 -0.1222
  669ERGO    R5 9056  11.832   0.271   9.294 -0.0287  0.2643 -0.1530
  669ERGO    C1 9057  11.742   0.204   8.929 -0.1678  0.2121 -0.1101
  669ERGO    C2 9058  11.708   0.217   8.565  0.1754 -0.0261 -0.0939
  670ERGO   ROH 9059   3.084   2.210   8.878 -0.1297  0.0604 -0.1045
  670ERGO    R1 9060   3.007   2.361   8.651  0.0204  0.0096 -0.1898
  670ERGO    R2 9061   3.157   2.573   8.555 -0.0027  0.0944 -0.0341
  670ERGO    R3 9062   3.147   2.433   8.323  0.3257  0.0844 -0.0485
  670ERGO    R4 9063   3.207   2.708   8.241 -0.2407  0.2361 -0.0139
  670ERGO    R5 9064   3.044   2.584   8.167  0.0233 -0.1094 -0.0481
  670ERGO    C1 9065   3.226   2.655   7.840 -0.0710  0.3092 -0.0155
  670ERGO    C2 9066   3.494   2.863   7.757 -0.0116  0.1063 -0.0459
  671ERGO   ROH 9067  13.927   9.257   9.581 -0.0431 -0.3798 -0.0724
  671ERGO    R1 9068  13.795   9.420   9.392 -0.2145 -0.3372  0.0824
  671ERGO    R2 9069  13.908   9.488   9.148 -0.2464  0.0825  0.1817
  671ERGO    R3 9070  13.677   9.385   9.049 -0.0947 -0.1082  0.0138
  671ERGO    R4 9071  13.788   9.542   8.829 -0.1676  0.1814  0.1675
  671ERGO    R5 9072  13.588   9.559   8.912 -0.2295 -0.1008  0.1018
  671ERGO    C1 9073  13.502   9.476   8.549  0.0209  0.0599  0.0015
  671ERGO    C2 9074  13.687   9.581   8.233  0.0668 -0.4360  0.1276
  672ERGO   ROH 9075   0.289  11.922   9.267 -0.1462 -0.0427  0.0228
  672ERGO    R1 9076   0.235  11.836   9.002 -0.1814  0.1305 -0.0271
  672ERGO    R2 9077   0.194  12.013   8.794 -0.0374  0.2674  0.0594
  672ERGO    R3 9078   0.393  11.870   8.676 -0.1258  0.1876  0.0053
  672ERGO    R4 9079   0.269  12.023   8.457  0.0040  0.3925  0.0714
  672ERGO    R5 9080   0.301  11.807   8.464 -0.1500  0.3643 -0.0391
  672ERGO    C1 9081   0.500  11.894   8.150 -0.0548  0.3904  0.0277
  672ERGO    C2 9082   0.347  11.987   7.918 -0.1410  0.5417  0.0768
  673ERGO   ROH 9083   9.008  14.915   9.733 -0.1185  0.0817 -0.1240
  673ERGO    R1 9084   9.004  14.717   9.532  0.1461  0.1082 -0.1561
  673ERGO    R2 9085   8.777  14.654   9.388  0.2072 -0.2310 -0.1001
  673ERGO    R3 9086   8.937  14.704   9.174  0.0702  0.0586 -0.1424
  673ERGO    R4 9087   8.716  14.543   9.067  0.3013 -0.3382 -0.0828
  673ERGO    R5 9088   8.929  14.501   9.046  0.3850  0.0328 -0.1412
  673ERGO    C1 9089   8.830  14.525   8.678  0.2273 -0.1289 -0.1124
  673ERGO    C2 9090   8.785  14.454   8.389 -0.0093  0.0552 -0.0854
  674ERGO   ROH 9091  17.600   7.885   8.817 -0.1594  0.1580 -0.0690
  674ERGO    R1 9092  17.773   7.834   8.600 -0.1163  0.1801 -0.0394
  674ERGO    R2 9093  17.801   7.583   8.488  0.0099  0.1641  0.0315
  674ERGO    R3 9094  17.740   7.714   8.257 -0.0292  0.0723 -0.0117
  674ERGO    R4 9095  17.861   7.461   8.170  0.2239  0.1558  0.0737
  674ERGO    R5 9096  17.922   7.662   8.110  0.0693  0.2028  0.0590
  674ERGO    C1 9097  17.840   7.514   7.768  0.3115  0.0649  0.0576
  674ERGO    C2 9098  17.758   7.318   7.453  0.2064 -0.2463 -0.1384
  675PSPI    C1 9099   6.180   4.447   5.590 -0.1111  0.0024 -0.1579
  675PSPI    C2 9100   5.988   4.214   5.328 -0.1517 -0.1348 -0.0078
  675PSPI    C3 9101   6.252   4.486   5.198 -0.2028 -0.1721 -0.1928
  675PSPI   PO4 9102   6.354   4.253   5.756  0.1179  0.2444  0.1523
  675PSPI   GL1 9103   6.475   4.271   6.130  0.3333 -0.2273 -0.5077
  675PSPI   GL2 9104   6.780   4.393   6.075  0.1295 -0.2932 -0.0971
  675PSPI   C1A 9105   6.653   4.279   6.582 -0.0323  0.0512  0.0147
  675PSPI   C2A 9106   6.680   4.449   7.043  0.3278  0.0520 -0.0408
  675PSPI   C3A 9107   6.836   4.688   7.252 -0.3121  0.2208  0.0423
  675PSPI   C4A 9108   7.240   4.923   7.198 -0.1323  0.2823  0.0895
  675PSPI   C1B 9109   7.137   4.227   6.369 -0.1192  0.2792  0.2798
  675PSPI   C2B 9110   7.217   4.204   6.786  0.1686  0.1296 -0.0038
  675PSPI   C3B 9111   7.587   4.028   7.034 -0.0913 -0.3183  0.2257
  675PSPI   C4B 9112   7.770   4.144   7.410 -0.1821 -0.2489 -0.2566
  676PSPI    C1 9113  12.468  13.948   5.727  0.1913 -0.0691 -0.1088
  676PSPI    C2 9114  12.498  14.242   5.459 -0.1213  0.1499  0.0897
  676PSPI    C3 9115  12.138  14.124   5.586  0.0074 -0.2318  0.1104
  676PSPI   PO4 9116  12.627  13.964   6.017  0.0077  0.1324 -0.0501
  676PSPI   GL1 9117  12.555  13.854   6.455 -0.0671 -0.3094 -0.0843
  676PSPI   GL2 9118  12.471  14.223   6.422  0.1817  0.0371 -0.1381
  676PSPI   C1A 9119  12.569  13.906   6.953  0.0332 -0.2006  0.0895
  676PSPI   C2A 9120  12.530  13.749   7.360 -0.1783  0.3058 -0.0069
  676PSPI   C3A 9121  12.560  13.663   7.765 -0.1416  0.2098  0.0472
  676PSPI   C4A 9122  12.323  13.495   8.086 -0.6703  0.1078  0.1526
  676PSPI   C1B 9123  12.329  14.344   6.736  0.0731  0.0119 -0.2170
  676PSPI   C2B 9124  12.328  14.689   7.054  0.0223 -0.2005  0.3766
  676PSPI   C3B 9125  12.513  14.824   7.370  0.0695  0.0489 -0.0986
  676PSPI   C4B 9126  12.828  15.123   7.536  0.1350 -0.0254 -0.0846
  677PSPI    C1 9127  16.769   4.029   5.439 -0.2037  0.0367  0.1115
  677PSPI    C2 9128  16.642   4.303   5.178 -0.2436  0.0868  0.1830
  677PSPI    C3 9129  17.034   4.253   5.240 -0.2196 -0.1719 -0.1494
  677PSPI   PO4 9130  16.746   4.030   5.660 -0.1107  0.1967  0.0009
  677PSPI   GL1 9131  16.889   4.279   5.993  0.1729 -0.4339  0.4794
  677PSPI   GL2 9132  16.915   3.964   6.242 -0.0162 -0.1151  0.2013
  677PSPI   C1A 9133  17.231   4.371   6.301 -0.1808  0.1273  0.1372
  677PSPI   C2A 9134  17.386   4.610   6.686 -0.2789  0.2658  0.0322
  677PSPI   C3A 9135  17.470   4.648   7.133 -0.1366 -0.1738 -0.2537
  677PSPI   C4A 9136  17.446   4.996   7.475  0.4473 -0.0747  0.0188
  677PSPI   C1B 9137  16.869   4.149   6.544  0.1999 -0.0991 -0.0382
  677PSPI   C2B 9138  16.882   4.257   6.887 -0.0231  0.0107 -0.1045
  677PSPI   C3B 9139  16.831   4.011   7.180  0.4881 -0.3884  0.4466
  677PSPI   C4B 9140  16.802   3.630   7.321 -0.1906  0.0451 -0.2498
  678PSPI    C1 9141   8.855   8.064   5.570 -0.2271 -0.0528 -0.0331
  678PSPI    C2 9142   8.964   7.691   5.475 -0.2128 -0.0520 -0.0197
  678PSPI    C3 9143   8.833   7.939   5.190 -0.1141 -0.0311 -0.0471
  678PSPI   PO4 9144   8.775   8.061   5.773  0.0996 -0.0174 -0.3017
  678PSPI   GL1 9145   8.761   7.980   6.213  0.1936 -0.1169  0.1339
  678PSPI   GL2 9146   8.510   8.137   6.453 -0.0323  0.1912 -0.1911
  678PSPI   C1A 9147   9.018   8.053   6.569  0.1069 -0.1475  0.2633
  678PSPI   C2A 9148   9.089   7.848   6.948  0.1655  0.2007 -0.2096
  678PSPI   C3A 9149   8.986   7.868   7.396 -0.0320 -0.0744  0.3536
  678PSPI   C4A 9150   8.940   8.029   7.697 -0.3446  0.4772  0.0290
  678PSPI   C1B 9151   8.271   8.103   6.905 -0.1497 -0.0203 -0.0014
  678PSPI   C2B 9152   8.000   8.010   7.220 -0.1224  0.0457  0.0555
  678PSPI   C3B 9153   7.929   7.788   7.569  0.1117  0.2098 -0.0620
  678PSPI   C4B 9154   8.080   7.781   8.014 -0.1979  0.0692  0.3552
  679PSPI    C1 9155  16.731  14.647   5.767 -0.0348  0.1932 -0.2958
  679PSPI    C2 9156  16.357  14.688   5.632 -0.1077  0.1266 -0.1172
  679PSPI    C3 9157  16.577  14.375   5.517 -0.1945  0.0315 -0.0272
  679PSPI   PO4 9158  16.740  14.763   5.988 -0.1642 -0.1372 -0.1672
  679PSPI   GL1 9159  16.801  14.883   6.421  0.0978 -0.4509  0.2574
  679PSPI   GL2 9160  17.102  14.914   6.399  0.0630  0.0624 -0.2919
  679PSPI   C1A 9161  16.798  14.786   6.845 -0.2882  0.3190  0.1512
  679PSPI   C2A 9162  16.772  14.855   7.276 -0.1269  0.2148 -0.1851
  679PSPI   C3A 9163  16.606  15.029   7.599  0.0693  0.3554 -0.0288
  679PSPI   C4A 9164  16.288  15.133   7.888  0.2449 -0.0523 -0.2178
  679PSPI   C1B 9165  16.990  15.219   6.860 -0.1811  0.1129  0.0470
  679PSPI   C2B 9166  16.913  15.289   7.268 -0.2719 -0.0260  0.2312
  679PSPI   C3B 9167  17.186  15.380   7.711  0.0700  0.2847  0.1757
  679PSPI   C4B 9168  16.774  15.346   8.044 -0.0932 -0.0643  0.2468
  680PSPI    C1 9169   9.801   0.414   5.550 -0.1533 -0.1086  0.0770
  680PSPI    C2 9170  10.048   0.450   5.238  0.0370 -0.0720  0.2297
  680PSPI    C3 9171   9.653   0.476   5.184  0.0670 -0.0882 -0.0104
  680PSPI   PO4 9172   9.846   0.593   5.742 -0.1079  0.0522  0.0937
  680PSPI   GL1 9173  10.186   0.545   6.085  0.3477  0.3238 -0.1273
  680PSPI   GL2 9174   9.872   0.646   6.191  0.0663  0.2274 -0.1231
  680PSPI   C1A 9175  10.255   0.850   6.481  0.2197 -0.0540 -0.0342
  680PSPI   C2A 9176  10.697   0.932   6.490  0.5083 -0.0455 -0.0801
  680PSPI   C3A 9177  11.008   1.149   6.273  0.0705 -0.1979 -0.2942
  680PSPI   C4A 9178  11.354   1.227   6.513 -0.0695  0.2254  0.3066
  680PSPI   C1B 9179   9.876   0.368   6.542  0.1575  0.1614  0.4172
  680PSPI   C2B 9180   9.932   0.494   6.870 -0.4087  0.2285  0.1190
  680PSPI   C3B 9181   9.894   0.427   7.315 -0.0431 -0.2393 -0.1949
  680PSPI   C4B 9182   9.918   0.628   7.695  0.2084  0.1130 -0.1512
  681PSPI    C1 9183  14.744  17.243   5.967 -0.0545 -0.0801  0.1004
  681PSPI    C2 9184  14.424  17.474   5.903  0.0766  0.0509 -0.0936
  681PSPI    C3 9185  14.651  17.356   5.595  0.1842 -0.0868  0.0368
  681PSPI   PO4 9186  15.054  17.446   6.156 -0.0423  0.2319  0.3050
  681PSPI   GL1 9187  15.460  17.484   6.446 -0.3674 -0.1348 -0.1167
  681PSPI   GL2 9188  15.418  17.135   6.406  0.0545 -0.0238 -0.0205
  681PSPI   C1A 9189  15.606  17.532   6.891  0.2246  0.2431  0.1172
  681PSPI   C2A 9190  15.773  17.422   7.324  0.3305  0.2048  0.1646
  681PSPI   C3A 9191  16.184  17.463   7.452  0.2878 -0.1190 -0.1541
  681PSPI   C4A 9192  16.469  17.718   7.647 -0.1107  0.1339  0.1653
  681PSPI   C1B 9193  15.233  16.802   6.673  0.4127  0.2833  0.1279
  681PSPI   C2B 9194  14.822  16.687   6.895 -0.0719  0.3256  0.0980
  681PSPI   C3B 9195  14.567  16.840   7.260 -0.2797 -0.0822  0.0067
  681PSPI   C4B 9196  14.198  16.694   7.592 -0.1539  0.0926 -0.0747
  682PSPI    C1 9197   5.091  16.040   4.961  0.1768  0.3212  0.0584
  682PSPI    C2 9198   5.317  15.774   4.764 -0.1737 -0.0182  0.1035
  682PSPI    C3 9199   5.472  16.126   4.872  0.3055 -0.2078  0.0600
  682PSPI   PO4 9200   4.994  15.928   5.189  0.0308  0.0994  0.0223
  682PSPI   GL1 9201   4.843  15.815   5.540 -0.3826 -0.1754 -0.2361
  682PSPI   GL2 9202   5.057  15.425   5.585  0.0982 -0.1344 -0.0994
  682PSPI   C1A 9203   4.846  15.675   6.002  0.0026  0.1558  0.2010
  682PSPI   C2A 9204   4.723  15.720   6.412  0.1189 -0.1254 -0.0099
  682PSPI   C3A 9205   4.533  15.887   6.661  0.0824  0.1133 -0.2302
  682PSPI   C4A 9206   4.291  15.938   6.884 -0.0717  0.0039 -0.0905
  682PSPI   C1B 9207   5.141  15.324   6.016  0.1538 -0.4640 -0.3908
  682PSPI   C2B 9208   5.185  15.418   6.319  0.0308 -0.2261 -0.1963
  682PSPI   C3B 9209   5.131  15.393   6.686  0.1411 -0.0311 -0.1491
  682PSPI   C4B 9210   5.190  15.688   7.057  0.1503 -0.3102 -0.0009
  683PSPI    C1 9211  15.629   6.812   4.939  0.0642 -0.0797  0.2421
  683PSPI    C2 9212  15.782   7.155   4.802 -0.1404 -0.1726 -0.2425
  683PSPI    C3 9213  16.008   6.825   4.811 -0.0895 -0.1380 -0.2400
  683PSPI   PO4 9214  15.475   6.911   5.214  0.1641 -0.1315 -0.2347
  683PSPI   GL1 9215  15.544   7.113   5.605 -0.0640 -0.1975  0.0600
  683PSPI   GL2 9216  15.703   7.239   5.854  0.1383  0.0010 -0.0200
  683PSPI   C1A 9217  15.683   6.773   6.019 -0.3523 -0.1360 -0.2730
  683PSPI   C2A 9218  15.712   6.630   6.468  0.3794  0.0154 -0.1975
  683PSPI   C3A 9219  15.924   6.583   6.937 -0.0087 -0.1457 -0.2551
  683PSPI   C4A 9220  16.181   6.900   7.123 -0.0211  0.0276 -0.3207
  683PSPI   C1B 9221  15.904   7.125   6.260 -0.0921 -0.2027  0.2349
  683PSPI   C2B 9222  15.928   7.061   6.716  0.1799  0.0968  0.1267
  683PSPI   C3B 9223  15.875   7.354   7.104 -0.1914 -0.2784  0.0296
  683PSPI   C4B 9224  15.554   7.413   7.399  0.0373  0.0157  0.1957
  684PSPI    C1 9225  15.301   5.187   5.528  0.1022 -0.0398 -0.3757
  684PSPI    C2 9226  14.912   5.095   5.549  0.0799  0.1621  0.4414
  684PSPI    C3 9227  15.039   5.368   5.286 -0.2513 -0.2142 -0.1328
  684PSPI   PO4 9228  15.361   5.041   5.715  0.2181  0.2443 -0.1516
  684PSPI   GL1 9229  15.334   5.064   6.061 -0.5464 -0.0302 -0.1219
  684PSPI   GL2 9230  15.585   4.797   6.048  0.2666  0.1917  0.0035
  684PSPI   C1A 9231  15.356   5.302   6.455 -0.1285  0.0364  0.0620
  684PSPI   C2A 9232  15.269   5.411   6.956 -0.1539  0.1531  0.0185
  684PSPI   C3A 9233  15.080   5.522   7.365 -0.0514 -0.0106 -0.1877
  684PSPI   C4A 9234  15.179   5.665   7.739 -0.3092  0.0586  0.0489
  684PSPI   C1B 9235  15.685   4.933   6.506  0.1813  0.0966 -0.2851
  684PSPI   C2B 9236  15.988   5.039   6.878 -0.0843 -0.0013  0.2565
  684PSPI   C3B 9237  15.871   5.064   7.332  0.0407  0.0537  0.0994
  684PSPI   C4B 9238  15.728   4.966   7.724 -0.1587 -0.2060  0.1906
  685PSPI    C1 9239  17.397  14.054   5.870  0.2010 -0.3330 -0.2866
  685PSPI    C2 9240  17.459  14.321   5.579 -0.0620 -0.0374 -0.0791
  685PSPI    C3 9241  17.087  14.249   5.708  0.0555 -0.1300  0.2142
  685PSPI   PO4 9242  17.510  14.161   6.041  0.3061  0.2985 -0.1422
  685PSPI   GL1 9243  17.797  14.228   6.403  0.0826  0.0041 -0.0506
  685PSPI   GL2 9244  18.006  14.174   6.312 -0.1832 -0.0667 -0.2490
  685PSPI   C1A 9245  17.867  14.309   6.877 -0.2257  0.0422 -0.0545
  685PSPI   C2A 9246  17.592  14.137   7.208 -0.0266 -0.1964  0.3385
  685PSPI   C3A 9247  17.254  13.829   7.374  0.1524 -0.1699 -0.0346
  685PSPI   C4A 9248  16.810  13.875   7.258  0.0743 -0.2106 -0.2955
  685PSPI   C1B 9249  18.359  14.218   6.605 -0.2814  0.3293 -0.0926
  685PSPI   C2B 9250  18.327  14.170   7.039  0.0900  0.1460 -0.0064
  685PSPI   C3B 9251  18.061  14.217   7.424  0.1376 -0.3510  0.2339
  685PSPI   C4B 9252  18.064  14.296   7.809  0.1413  0.0737  0.0082
  686PSPI    C1 9253  12.889   7.183   6.030 -0.0131 -0.0493  0.0624
  686PSPI    C2 9254  13.074   7.120   5.681 -0.0119  0.0299  0.0486
  686PSPI    C3 9255  13.288   7.157   6.017 -0.0229 -0.2211  0.0853
  686PSPI   PO4 9256  12.764   6.985   6.055 -0.2366 -0.2977  0.1616
  686PSPI   GL1 9257  12.656   6.602   6.331  0.1888 -0.0887  0.0696
  686PSPI   GL2 9258  12.881   6.446   6.307 -0.0310  0.3270  0.0838
  686PSPI   C1A 9259  12.331   6.466   6.487  0.1420  0.0265 -0.1579
  686PSPI   C2A 9260  12.125   6.434   6.945 -0.1231 -0.0117  0.0201
  686PSPI   C3A 9261  12.234   6.500   7.353  0.2226 -0.1428  0.0616
  686PSPI   C4A 9262  12.413   6.753   7.687 -0.0318  0.0745 -0.1343
  686PSPI   C1B 9263  12.973   6.339   6.761 -0.3929 -0.3748  0.0058
  686PSPI   C2B 9264  13.113   6.405   7.248 -0.2523  0.1075 -0.0023
  686PSPI   C3B 9265  13.333   6.385   7.714 -0.1394 -0.0585 -0.1490
  686PSPI   C4B 9266  13.034   6.416   8.027  0.2881  0.0352  0.2529
  687PSPI    C1 9267   8.640   4.801   5.043 -0.1454 -0.1032  0.0230
  687PSPI    C2 9268   9.015   4.929   4.989 -0.1393 -0.0877  0.1008
  687PSPI    C3 9269   8.919   4.550   4.904 -0.0836 -0.1182  0.1730
  687PSPI   PO4 9270   8.530   4.898   5.299  0.3143  0.0935 -0.1184
  687PSPI   GL1 9271   8.456   4.784   5.819 -0.0679 -0.1093 -0.0734
  687PSPI   GL2 9272   8.452   5.065   6.009  0.2544  0.0211  0.0972
  687PSPI   C1A 9273   8.357   4.344   5.927  0.1382  0.0024 -0.0733
  687PSPI   C2A 9274   8.248   4.114   6.267  0.1901 -0.2234  0.0798
  687PSPI   C3A 9275   8.363   3.947   6.658  0.1618 -0.2716 -0.1536
  687PSPI   C4A 9276   8.448   3.605   6.932  0.3884  0.1357 -0.1406
  687PSPI   C1B 9277   8.675   4.813   6.348  0.3290 -0.1082  0.1940
  687PSPI   C2B 9278   8.811   4.785   6.707  0.4135  0.3575  0.1305
  687PSPI   C3B 9279   8.896   5.049   7.006 -0.0524  0.2206  0.0126
  687PSPI   C4B 9280   8.696   5.141   7.348 -0.0494  0.0042 -0.0780
  688PSPI    C1 9281  13.506   8.356   5.513 -0.0278  0.0894 -0.0422
  688PSPI    C2 9282  13.809   8.437   5.265  0.0074  0.0644 -0.0074
  688PSPI    C3 9283  13.440   8.383   5.120  0.0436 -0.0362 -0.0633
  688PSPI   PO4 9284  13.494   8.492   5.731  0.1773  0.1917 -0.1489
  688PSPI   GL1 9285  13.440   8.393   6.193  0.1836 -0.0081  0.0229
  688PSPI   GL2 9286  13.466   8.105   6.346 -0.3344  0.3422  0.3493
  688PSPI   C1A 9287  13.223   8.418   6.581  0.1008  0.1636  0.0594
  688PSPI   C2A 9288  13.193   8.848   6.781 -0.2942 -0.1244 -0.1123
  688PSPI   C3A 9289  13.182   9.183   7.022 -0.1409  0.0041  0.0268
  688PSPI   C4A 9290  13.328   9.259   7.404  0.3932 -0.1237 -0.0598
  688PSPI   C1B 9291  13.570   8.047   6.711 -0.1919 -0.0799 -0.1531
  688PSPI   C2B 9292  13.799   7.895   7.095 -0.1861  0.0900 -0.0606
  688PSPI   C3B 9293  13.988   7.672   7.409  0.0599 -0.1578  0.0539
  688PSPI   C4B 9294  14.188   7.829   7.787  0.4412 -0.2090  0.1197
  689PSPI    C1 9295  14.551  11.326   5.856 -0.2359  0.2748  0.0297
  689PSPI    C2 9296  14.599  11.707   5.744  0.2015  0.1006 -0.4112
  689PSPI    C3 9297  14.782  11.414   5.543  0.0827 -0.3281  0.0803
  689PSPI   PO4 9298  14.589  11.264   6.152  0.1901 -0.1211 -0.2231
  689PSPI   GL1 9299  14.667  11.093   6.527  0.1359  0.0434 -0.0467
  689PSPI   GL2 9300  14.494  10.956   6.552  0.2803  0.1877 -0.3675
  689PSPI   C1A 9301  14.790  11.123   6.951  0.1952  0.2631  0.0161
  689PSPI   C2A 9302  14.743  11.246   7.353 -0.1989 -0.1993 -0.0419
  689PSPI   C3A 9303  14.570  11.345   7.823  0.2231 -0.1090  0.0040
  689PSPI   C4A 9304  14.314  11.449   8.160  0.2489  0.2491  0.0868
  689PSPI   C1B 9305  14.624  10.613   6.763  0.0384 -0.1733  0.0671
  689PSPI   C2B 9306  14.752  10.721   7.266  0.0997  0.0807 -0.0694
  689PSPI   C3B 9307  14.985  10.847   7.554 -0.0969 -0.1739 -0.1181
  689PSPI   C4B 9308  15.083  11.198   7.714 -0.0663 -0.0798 -0.3327
  690PSPI    C1 9309   7.971  10.047   6.148  0.0887 -0.0902 -0.0858
  690PSPI    C2 9310   8.150  10.141   6.493 -0.1123  0.0686 -0.0227
  690PSPI    C3 9311   8.362   9.980   6.195  0.0872  0.0431  0.1311
  690PSPI   PO4 9312   7.778  10.259   6.195 -0.1101  0.3877  0.4812
  690PSPI   GL1 9313   7.471  10.330   6.512  0.2325  0.4021  0.3634
  690PSPI   GL2 9314   7.288  10.120   6.348  0.0569 -0.1635 -0.1595
  690PSPI   C1A 9315   7.410  10.251   6.927 -0.0797 -0.0638 -0.1546
  690PSPI   C2A 9316   7.289  10.452   7.314  0.1103 -0.4016 -0.2069
  690PSPI   C3A 9317   7.242  10.478   7.711 -0.0180 -0.0196  0.2747
  690PSPI   C4A 9318   7.175  10.356   8.081 -0.0068  0.1297 -0.1688
  690PSPI   C1B 9319   6.888  10.266   6.738  0.0185  0.1065  0.0208
  690PSPI   C2B 9320   6.815  10.345   7.145 -0.1565 -0.1869 -0.0239
  690PSPI   C3B 9321   6.879  10.703   7.447  0.0637 -0.0440 -0.1324
  690PSPI   C4B 9322   6.840  10.740   7.928 -0.2042 -0.2818  0.0825
  691PSPI    C1 9323   8.368  11.097   5.931  0.0214  0.0549 -0.0712
  691PSPI    C2 9324   8.640  10.804   5.953  0.1077  0.1387 -0.0120
  691PSPI    C3 9325   8.626  11.040   5.631  0.0148  0.0478 -0.0754
  691PSPI   PO4 9326   8.222  11.088   6.164  0.2259  0.1439 -0.1780
  691PSPI   GL1 9327   8.143  11.406   6.463  0.1473 -0.1337 -0.0833
  691PSPI   GL2 9328   8.408  11.414   6.582 -0.3078 -0.2340 -0.1668
  691PSPI   C1A 9329   7.863  11.303   6.761  0.0319 -0.0163 -0.1439
  691PSPI   C2A 9330   7.618  11.041   7.001 -0.0169 -0.2414 -0.3813
  691PSPI   C3A 9331   7.376  10.978   7.316  0.1373  0.2055  0.2760
  691PSPI   C4A 9332   7.522  10.948   7.735 -0.3683  0.2645 -0.2750
  691PSPI   C1B 9333   8.285  11.509   6.992  0.1001 -0.1284 -0.0678
  691PSPI   C2B 9334   8.308  11.689   7.350  0.1086  0.4740 -0.0654
  691PSPI   C3B 9335   8.097  12.084   7.356  0.1370 -0.1463  0.1797
  691PSPI   C4B 9336   8.258  12.418   7.379  0.1450 -0.3123  0.0212
  692PSPI    C1 9337  16.177   7.475   5.264 -0.0810 -0.0674 -0.1260
  692PSPI    C2 9338  16.232   7.845   5.121  0.1695 -0.1210 -0.1734
  692PSPI    C3 9339  15.957   7.605   4.956 -0.1113  0.0993 -0.0352
  692PSPI   PO4 9340  16.118   7.433   5.517 -0.5393 -0.1083  0.0677
  692PSPI   GL1 9341  16.243   7.360   5.880 -0.0172 -0.0287 -0.0028
  692PSPI   GL2 9342  16.535   7.178   5.956 -0.0275  0.1461  0.0457
  692PSPI   C1A 9343  16.350   7.361   6.342  0.0267 -0.1458 -0.2074
  692PSPI   C2A 9344  16.512   7.352   6.701  0.3071  0.1276  0.2237
  692PSPI   C3A 9345  16.478   7.393   7.193  0.1204  0.1561 -0.0000
  692PSPI   C4A 9346  16.532   7.062   7.478  0.0914 -0.1933  0.1612
  692PSPI   C1B 9347  16.766   6.970   6.171  0.0720 -0.1076  0.0707
  692PSPI   C2B 9348  16.825   6.946   6.534 -0.2963 -0.1666 -0.0306
  692PSPI   C3B 9349  17.139   6.738   6.771 -0.4047  0.2304  0.0070
  692PSPI   C4B 9350  17.295   6.473   7.063 -0.1145  0.3113  0.0559
  693PSPI    C1 9351   0.966  15.547   5.898 -0.0494  0.0067 -0.0082
  693PSPI    C2 9352   1.053  15.174   5.781  0.1464  0.0553 -0.0218
  693PSPI    C3 9353   0.731  15.243   6.008 -0.0258 -0.0896 -0.2183
  693PSPI   PO4 9354   1.331  15.590   5.917  0.1878  0.1412 -0.4175
  693PSPI   GL1 9355   1.587  15.355   6.182 -0.0349  0.0827  0.0267
  693PSPI   GL2 9356   1.250  15.227   6.216 -0.0044  0.1242 -0.0751
  693PSPI   C1A 9357   1.420  15.412   6.608 -0.1426  0.0112  0.1826
  693PSPI   C2A 9358   1.494  15.231   6.948  0.3009 -0.1065  0.0014
  693PSPI   C3A 9359   1.555  15.099   7.427  0.1157 -0.0436  0.0065
  693PSPI   C4A 9360   1.616  14.988   7.824 -0.0311 -0.0846  0.1652
  693PSPI   C1B 9361   0.887  15.359   6.540  0.0696 -0.1448  0.2599
  693PSPI   C2B 9362   0.997  15.383   7.021 -0.4104 -0.0336 -0.0767
  693PSPI   C3B 9363   1.187  15.486   7.288 -0.0082  0.0000 -0.0162
  693PSPI   C4B 9364   1.337  15.440   7.792 -0.1075  0.1951  0.2698
  694PSPI    C1 9365  10.815   9.082   6.470  0.1876 -0.0143  0.0636
  694PSPI    C2 9366  10.642   9.436   6.540 -0.1442 -0.1285 -0.1528
  694PSPI    C3 9367  10.431   9.099   6.583  0.1651 -0.3021  0.0372
  694PSPI   PO4 9368  11.163   9.128   6.562  0.1754 -0.1922 -0.0048
  694PSPI   GL1 9369  11.191   9.112   6.947  0.2037  0.1048  0.0374
  694PSPI   GL2 9370  11.320   8.888   6.985 -0.1802  0.0869  0.0078
  694PSPI   C1A 9371  11.089   9.172   7.468 -0.0659 -0.2010  0.0961
  694PSPI   C2A 9372  10.928   9.161   7.876  0.1852  0.0010 -0.2716
  694PSPI   C3A 9373  10.751   9.403   8.294  0.1470  0.0507  0.0335
  694PSPI   C4A 9374  10.422   9.593   8.260 -0.1118  0.3278  0.1396
  694PSPI   C1B 9375  11.567   9.057   7.363 -0.3774 -0.3334  0.4288
  694PSPI   C2B 9376  11.881   8.941   7.280 -0.2193 -0.0315 -0.2130
  694PSPI   C3B 9377  12.196   8.819   6.973 -0.1110  0.2180 -0.1189
  694PSPI   C4B 9378  12.414   8.580   6.605 -0.0415 -0.1491  0.5538
  695POPI    C1 9379  17.257   1.556   5.650 -0.1057  0.0095  0.0241
  695POPI    C2 9380  16.896   1.435   5.774  0.0163 -0.1959  0.1844
  695POPI    C3 9381  17.080   1.242   5.476 -0.0940  0.0368 -0.0374
  695POPI   PO4 9382  17.357   1.541   5.884 -0.3044 -0.1090 -0.3434
  695POPI   GL1 9383  17.180   1.816   6.317 -0.1660  0.0451  0.2045
  695POPI   GL2 9384  16.906   1.823   6.276  0.0258 -0.0202 -0.1444
  695POPI   C1A 9385  17.309   1.707   6.660 -0.0312  0.0671  0.2419
  695POPI   D2A 9386  17.461   1.600   7.116  0.2095  0.1882 -0.0584
  695POPI   C3A 9387  17.556   1.592   7.492 -0.5192  0.0491 -0.1636
  695POPI   C4A 9388  17.536   1.913   7.688  0.0116 -0.0551 -0.0973
  695POPI   C1B 9389  16.845   1.939   6.725  0.2507  0.0839 -0.0064
  695POPI   C2B 9390  16.642   2.123   7.074 -0.1737 -0.1853  0.1201
  695POPI   C3B 9391  16.598   2.302   7.428 -0.4861  0.0350  0.0702
  695POPI   C4B 9392  16.294   2.286   7.726 -0.0688 -0.0041  0.1356
  696POPI    C1 9393   1.883  17.937   5.655  0.1985 -0.1430  0.0261
  696POPI    C2 9394   1.803  17.705   5.339 -0.0979  0.1072 -0.0866
  696POPI    C3 9395   2.172  17.849   5.393  0.0668 -0.3107 -0.0649
  696POPI   PO4 9396   1.658  17.840   5.853  0.2202 -0.1994 -0.0656
  696POPI   GL1 9397   1.679  17.864   6.339  0.1244  0.1444 -0.3167
  696POPI   GL2 9398   1.934  17.554   6.283 -0.1844  0.1209  0.2132
  696POPI   C1A 9399   1.926  17.927   6.646 -0.2237 -0.1290  0.3038
  696POPI   D2A 9400   2.133  18.020   6.977  0.1129 -0.1755 -0.3593
  696POPI   C3A 9401   1.838  17.761   7.258 -0.1857 -0.2782 -0.0893
  696POPI   C4A 9402   1.976  17.423   7.583 -0.3066 -0.2990  0.1191
  696POPI   C1B 9403   2.105  17.455   6.572 -0.0916  0.0091  0.1443
  696POPI   C2B 9404   2.273  17.594   6.932 -0.2213  0.0311 -0.1732
  696POPI   C3B 9405   2.336  17.732   7.373 -0.0157 -0.0318 -0.1630
  696POPI   C4B 9406   1.997  17.891   7.738 -0.2034  0.0996 -0.1076
  697POPI    C1 9407  17.380  17.349   6.025  0.1927 -0.0634  0.3520
  697POPI    C2 9408  17.703  17.454   5.814 -0.1079  0.1250 -0.0267
  697POPI    C3 9409  17.553  17.085   5.779 -0.1532  0.1539 -0.1399
  697POPI   PO4 9410  17.451  17.428   6.229  0.1781 -0.0257 -0.0621
  697POPI   GL1 9411  17.262  17.639   6.442  0.0596  0.1601 -0.0164
  697POPI   GL2 9412  17.585  17.719   6.606  0.1631 -0.2021  0.4823
  697POPI   C1A 9413  17.238  17.657   6.974 -0.1855 -0.1725 -0.0322
  697POPI   D2A 9414  17.385  17.393   7.326 -0.2134 -0.0117 -0.0265
  697POPI   C3A 9415  17.523  17.508   7.625  0.1208 -0.2039 -0.0611
  697POPI   C4A 9416  17.678  17.681   7.979  0.0516 -0.1857 -0.3371
  697POPI   C1B 9417  17.749  17.541   6.932 -0.6273  0.1505  0.3004
  697POPI   C2B 9418  17.826  17.640   7.297 -0.0834 -0.0413  0.0471
  697POPI   C3B 9419  18.015  17.478   7.551  0.0223  0.1051 -0.0008
  697POPI   C4B 9420  18.389  17.409   7.830 -0.2013 -0.0802  0.3465
  698POPI    C1 9421  12.383   9.569   6.279  0.2143  0.0450 -0.1608
  698POPI    C2 9422  12.257   9.250   6.072  0.0351  0.0708 -0.0932
  698POPI    C3 9423  12.556   9.475   5.931 -0.0694  0.0744 -0.3134
  698POPI   PO4 9424  12.318   9.578   6.481  0.1681 -0.2007  0.0874
  698POPI   GL1 9425  12.590   9.515   6.780  0.0384  0.1296 -0.0348
  698POPI   GL2 9426  12.825   9.302   6.643 -0.1832 -0.1456  0.0323
  698POPI   C1A 9427  12.823   9.556   7.123  0.2024 -0.2828  0.2231
  698POPI   D2A 9428  12.937   9.646   7.482 -0.4076 -0.2580  0.2446
  698POPI   C3A 9429  12.929   9.372   7.774 -0.1536 -0.2046  0.0614
  698POPI   C4A 9430  13.016   8.999   7.982  0.0257 -0.1010  0.0986
  698POPI   C1B 9431  12.698   8.971   6.966  0.1050 -0.2932 -0.1407
  698POPI   C2B 9432  12.425   8.669   7.390 -0.3708  0.3149 -0.0339
  698POPI   C3B 9433  12.514   8.773   7.739  0.1262  0.2449  0.0598
  698POPI   C4B 9434  12.382   8.600   8.001 -0.3949  0.0439  0.2510
  699POPI    C1 9435  13.621  17.686   5.749  0.0933  0.1387 -0.1755
  699POPI    C2 9436  13.628  17.310   5.612 -0.0476  0.0880 -0.0453
  699POPI    C3 9437  13.667  17.616   5.358 -0.2883 -0.0055 -0.1987
  699POPI   PO4 9438  13.519  17.589   6.075 -0.0440  0.2700  0.3067
  699POPI   GL1 9439  13.636  17.589   6.466 -0.3597  0.4227  0.2572
  699POPI   GL2 9440  13.700  17.285   6.417 -0.0739  0.1248  0.3869
  699POPI   C1A 9441  13.290  17.509   6.696 -0.3142  0.0160 -0.1626
  699POPI   D2A 9442  13.272  17.362   7.049  0.2118 -0.2443 -0.0617
  699POPI   C3A 9443  12.925  17.332   7.416  0.0985  0.0784  0.1778
  699POPI   C4A 9444  12.675  17.511   7.782  0.0503  0.2993 -0.1675
  699POPI   C1B 9445  13.736  17.230   6.808 -0.1213  0.0614  0.0409
  699POPI   C2B 9446  13.723  17.337   7.254 -0.1126 -0.0758 -0.0105
  699POPI   C3B 9447  13.397  17.592   7.442 -0.3477  0.1286  0.2741
  699POPI   C4B 9448  13.046  17.775   7.485 -0.2607 -0.0121 -0.1158
  700POPI    C1 9449   6.783  11.708   5.670  0.0801  0.0208  0.0386
  700POPI    C2 9450   6.557  11.379   5.678  0.2662 -0.1143 -0.1322
  700POPI    C3 9451   6.683  11.526   5.328  0.0153  0.2589 -0.0720
  700POPI   PO4 9452   6.857  11.833   5.914 -0.1905  0.0120 -0.0881
  700POPI   GL1 9453   6.566  11.606   6.233  0.0089 -0.0285  0.1311
  700POPI   GL2 9454   6.407  11.384   6.353  0.2639  0.1275 -0.1279
  700POPI   C1A 9455   6.513  11.844   6.656 -0.0049  0.3538  0.0946
  700POPI   D2A 9456   6.459  11.931   6.999 -0.1574  0.0859  0.3599
  700POPI   C3A 9457   6.401  12.011   7.377 -0.0847 -0.1157 -0.1276
  700POPI   C4A 9458   6.441  12.331   7.647  0.2350  0.1859  0.1471
  700POPI   C1B 9459   6.271  11.381   6.768  0.1641 -0.2958  0.2281
  700POPI   C2B 9460   5.954  11.257   6.963  0.0980 -0.0456 -0.0756
  700POPI   C3B 9461   5.736  11.169   7.255 -0.0094 -0.0639 -0.0320
  700POPI   C4B 9462   5.574  11.174   7.619  0.1913 -0.5809  0.4130
  701POPI    C1 9463   4.550  13.397   5.462 -0.0899 -0.0317  0.0038
  701POPI    C2 9464   4.511  13.550   5.094 -0.1042 -0.0198  0.0103
  701POPI    C3 9465   4.859  13.389   5.208 -0.1645 -0.2194 -0.0831
  701POPI   PO4 9466   4.457  13.627   5.613 -0.0841 -0.1811  0.0719
  701POPI   GL1 9467   4.559  13.733   6.074  0.0008 -0.0986 -0.0977
  701POPI   GL2 9468   4.188  13.704   6.078  0.1960  0.1023  0.3488
  701POPI   C1A 9469   4.499  13.475   6.421  0.1534  0.1802 -0.1268
  701POPI   D2A 9470   4.350  13.361   6.793 -0.1000 -0.2528 -0.0750
  701POPI   C3A 9471   4.484  13.418   7.148 -0.0727  0.2687 -0.1792
  701POPI   C4A 9472   4.706  13.525   7.520  0.0353  0.0565  0.3386
  701POPI   C1B 9473   4.254  14.059   6.349 -0.3570 -0.1681  0.1916
  701POPI   C2B 9474   4.416  14.326   6.723 -0.0760  0.3009  0.2071
  701POPI   C3B 9475   4.420  14.234   7.081  0.0396  0.2204  0.1320
  701POPI   C4B 9476   4.215  13.865   7.202 -0.0569 -0.1727  0.3511
  702POPI    C1 9477   4.282   0.693   5.333  0.0269  0.1016  0.0848
  702POPI    C2 9478   3.927   0.733   5.513  0.0698  0.0971  0.1709
  702POPI    C3 9479   4.133   1.058   5.403  0.0331  0.0996  0.1086
  702POPI   PO4 9480   4.433   0.526   5.520  0.0526 -0.3082  0.3225
  702POPI   GL1 9481   4.654   0.295   5.713 -0.0286  0.3667 -0.0731
  702POPI   GL2 9482   4.433   0.167   5.984  0.1259 -0.0027 -0.1849
  702POPI   C1A 9483   4.790   0.434   6.163 -0.3632  0.0104  0.0093
  702POPI   D2A 9484   4.878   0.469   6.576  0.1580  0.0422 -0.0156
  702POPI   C3A 9485   4.679   0.426   7.006  0.0330  0.1793  0.1840
  702POPI   C4A 9486   4.703   0.667   7.376  0.6142  0.3824  0.0317
  702POPI   C1B 9487   4.264  -0.087   6.236  0.1170 -0.2194  0.1268
  702POPI   C2B 9488   4.032  -0.459   6.317 -0.1494  0.3078 -0.0811
  702POPI   C3B 9489   3.721  -0.610   6.530 -0.1901 -0.1132  0.0137
  702POPI   C4B 9490   3.408  -0.613   6.902  0.1369 -0.0391 -0.0714
  703POPI    C1 9491   4.195   8.337   5.297 -0.2143 -0.1891  0.0625
  703POPI    C2 9492   4.347   7.975   5.223  0.1776  0.0365 -0.2799
  703POPI    C3 9493   4.142   8.168   4.938  0.0084  0.1048 -0.1138
  703POPI   PO4 9494   4.379   8.411   5.542 -0.1264 -0.1613  0.0024
  703POPI   GL1 9495   4.593   8.581   5.962  0.1518  0.0687 -0.0113
  703POPI   GL2 9496   4.682   8.241   5.902 -0.3585 -0.0933  0.1656
  703POPI   C1A 9497   4.632   8.751   6.449  0.1166 -0.0636 -0.0860
  703POPI   D2A 9498   4.795   8.703   6.742  0.0782  0.0451  0.1276
  703POPI   C3A 9499   4.921   9.017   7.080 -0.2577 -0.1177 -0.2250
  703POPI   C4A 9500   5.010   9.113   7.422 -0.1696 -0.1771 -0.1104
  703POPI   C1B 9501   4.918   8.285   6.324  0.0417 -0.0806 -0.1261
  703POPI   C2B 9502   4.914   8.230   6.881  0.3392 -0.0266 -0.1440
  703POPI   C3B 9503   4.816   8.541   7.226  0.1257 -0.0718 -0.1393
  703POPI   C4B 9504   4.988   8.597   7.681 -0.1345  0.3004  0.2030
  704POPI    C1 9505   9.084  10.537   6.050 -0.2487  0.0762  0.1692
  704POPI    C2 9506   9.466  10.637   5.982 -0.3043  0.1494 -0.0436
  704POPI    C3 9507   9.366  10.253   6.033 -0.2131  0.1233 -0.0590
  704POPI   PO4 9508   9.034  10.799   6.292 -0.0090  0.1864 -0.2413
  704POPI   GL1 9509   8.961  10.674   6.759 -0.0695 -0.0508  0.0576
  704POPI   GL2 9510   9.278  10.954   6.717 -0.0440 -0.2346 -0.0283
  704POPI   C1A 9511   9.013  10.635   7.211  0.0141  0.0110  0.0839
  704POPI   D2A 9512   8.764  10.535   7.466 -0.3463  0.0340 -0.0721
  704POPI   C3A 9513   8.944  10.359   7.898  0.2306 -0.0493 -0.1925
  704POPI   C4A 9514   9.121  10.298   8.297 -0.3464 -0.2359 -0.0959
  704POPI   C1B 9515   9.211  11.149   7.117 -0.2825  0.2615  0.0958
  704POPI   C2B 9516   9.127  11.277   7.557 -0.1223 -0.0055  0.0460
  704POPI   C3B 9517   8.854  11.448   7.888 -0.1685 -0.1761  0.1087
  704POPI   C4B 9518   8.647  11.671   8.279 -0.3874 -0.0841 -0.0726
  705POPI    C1 9519   8.179  10.637   5.867  0.0715  0.1400 -0.0737
  705POPI    C2 9520   8.236  10.256   5.758  0.3004  0.0868  0.2206
  705POPI    C3 9521   8.359  10.553   5.520  0.1820 -0.0216  0.0217
  705POPI   PO4 9522   8.258  10.573   6.149  0.3132  0.2603 -0.0300
  705POPI   GL1 9523   8.169  10.615   6.519  0.1248  0.1055  0.4756
  705POPI   GL2 9524   7.876  10.646   6.738 -0.0084  0.0191  0.3487
  705POPI   C1A 9525   8.407  10.431   6.927 -0.1186 -0.0126  0.1256
  705POPI   D2A 9526   8.226  10.456   7.303  0.0198  0.1923 -0.1260
  705POPI   C3A 9527   8.356  10.621   7.753  0.2541 -0.0083  0.1046
  705POPI   C4A 9528   8.098  10.812   8.047  0.0548 -0.3116 -0.1319
  705POPI   C1B 9529   7.782  10.495   7.054 -0.4787  0.0772 -0.2702
  705POPI   C2B 9530   7.783  10.636   7.424  0.0995  0.0341  0.0755
  705POPI   C3B 9531   7.767  10.482   7.828  0.0362  0.1279  0.2025
  705POPI   C4B 9532   7.891  10.315   8.243  0.2908  0.1669 -0.1541
  706POPI    C1 9533   4.323  17.161   5.158  0.0180 -0.1705  0.1321
  706POPI    C2 9534   4.651  16.957   5.054  0.1843  0.0195  0.2756
  706POPI    C3 9535   4.339  16.975   4.804  0.3465 -0.0255  0.0672
  706POPI   PO4 9536   4.263  17.000   5.406  0.1537  0.2233 -0.2391
  706POPI   GL1 9537   3.872  16.935   5.624  0.0686 -0.1313 -0.3419
  706POPI   GL2 9538   3.841  16.643   5.839  0.1225  0.2733  0.1624
  706POPI   C1A 9539   3.914  17.294   5.936 -0.2324 -0.0343  0.0847
  706POPI   D2A 9540   3.610  17.412   6.212  0.1704 -0.0863 -0.1097
  706POPI   C3A 9541   3.826  17.315   6.606  0.0436  0.4051  0.1216
  706POPI   C4A 9542   3.831  17.501   7.005  0.2885  0.3339 -0.1200
  706POPI   C1B 9543   4.101  16.857   6.058  0.2375 -0.2046 -0.1387
  706POPI   C2B 9544   4.317  17.165   6.167  0.0122 -0.0217  0.1870
  706POPI   C3B 9545   4.336  17.360   6.580  0.3343  0.4740 -0.0470
  706POPI   C4B 9546   4.253  17.259   6.981 -0.1209 -0.1246  0.1203
  707POPI    C1 9547  15.438   3.163   5.527 -0.2196 -0.2293 -0.0361
  707POPI    C2 9548  15.614   3.165   5.167 -0.0719 -0.0202  0.0350
  707POPI    C3 9549  15.725   2.897   5.443  0.1518  0.1220  0.0857
  707POPI   PO4 9550  15.552   3.472   5.628  0.0637  0.0342 -0.0795
  707POPI   GL1 9551  15.859   3.347   5.976 -0.1272 -0.2204  0.0621
  707POPI   GL2 9552  15.758   3.040   5.952  0.1838  0.1071 -0.1950
  707POPI   C1A 9553  16.033   3.624   6.267  0.1686 -0.1523 -0.3877
  707POPI   D2A 9554  16.239   3.498   6.575 -0.0883  0.0849 -0.2406
  707POPI   C3A 9555  16.190   3.544   7.036 -0.0121 -0.0817  0.0469
  707POPI   C4A 9556  16.316   3.822   7.446  0.1314  0.0168 -0.0932
  707POPI   C1B 9557  16.011   3.110   6.469  0.0677  0.3252 -0.0103
  707POPI   C2B 9558  15.972   3.163   6.823 -0.1181  0.0732 -0.2559
  707POPI   C3B 9559  15.861   2.949   7.237 -0.0891 -0.2129  0.5468
  707POPI   C4B 9560  15.451   2.752   7.327 -0.1144 -0.1507 -0.0224
  708POPI    C1 9561  10.522  10.638   6.359 -0.0202  0.0772 -0.1088
  708POPI    C2 9562  10.661  10.299   6.200  0.1123  0.0061  0.1540
  708POPI    C3 9563  10.315  10.298   6.401 -0.0066  0.0765 -0.0477
  708POPI   PO4 9564  10.758  10.778   6.526 -0.2668 -0.0651  0.1310
  708POPI   GL1 9565  10.873  10.932   6.911  0.3256 -0.1660  0.0462
  708POPI   GL2 9566  11.039  11.170   6.934 -0.0044 -0.1574  0.2660
  708POPI   C1A 9567  10.544  11.201   7.181  0.3253 -0.3247  0.3708
  708POPI   D2A 9568  10.050  11.253   7.282 -0.4041 -0.3271 -0.0740
  708POPI   C3A 9569   9.940  11.215   7.742  0.2370 -0.0812 -0.1100
  708POPI   C4A 9570   9.793  11.020   8.127  0.2384  0.0705  0.0875
  708POPI   C1B 9571  10.981  11.442   7.401 -0.1271 -0.2165 -0.5158
  708POPI   C2B 9572  10.689  11.694   7.674 -0.1030 -0.3535  0.0671
  708POPI   C3B 9573  10.572  11.839   8.030 -0.0491 -0.0455  0.1520
  708POPI   C4B 9574  10.410  12.197   8.177  0.1732  0.3073  0.2823
  709POPI    C1 9575   5.377  13.362   5.343 -0.0189  0.0175 -0.3409
  709POPI    C2 9576   5.567  13.697   5.452  0.1174 -0.0902 -0.2439
  709POPI    C3 9577   5.302  13.706   5.152 -0.1135  0.1685 -0.0375
  709POPI   PO4 9578   5.269  13.252   5.628  0.5538 -0.1899  0.0005
  709POPI   GL1 9579   5.148  13.329   5.964  0.0175 -0.1416 -0.2993
  709POPI   GL2 9580   4.818  13.368   5.896 -0.3471  0.0968 -0.1016
  709POPI   C1A 9581   4.999  13.530   6.315  0.3610  0.4254 -0.3560
  709POPI   D2A 9582   4.943  13.502   6.746  0.0119  0.2215 -0.0478
  709POPI   C3A 9583   5.200  13.573   7.050  0.2470  0.1494 -0.1043
  709POPI   C4A 9584   5.233  13.573   7.361  0.2531  0.0574 -0.2747
  709POPI   C1B 9585   4.788  13.128   6.313  0.1377  0.2122  0.0076
  709POPI   C2B 9586   4.816  12.989   6.696  0.1145 -0.0155  0.1552
  709POPI   C3B 9587   4.819  12.999   7.100 -0.0222 -0.1161 -0.1450
  709POPI   C4B 9588   5.121  13.103   7.488  0.0056  0.1872 -0.1980
  710POPI    C1 9589  15.366  13.841   5.870  0.1848 -0.1699  0.2458
  710POPI    C2 9590  15.513  13.622   5.568 -0.0036  0.0244  0.0096
  710POPI    C3 9591  15.148  13.544   5.713 -0.0250  0.1074  0.0013
  710POPI   PO4 9592  15.608  13.753   6.063 -0.2618 -0.0338  0.1636
  710POPI   GL1 9593  15.714  13.901   6.569 -0.1187 -0.1840  0.0636
  710POPI   GL2 9594  16.021  13.999   6.642 -0.0348  0.2089 -0.2289
  710POPI   C1A 9595  15.311  13.845   6.681 -0.1400  0.0623  0.2026
  710POPI   D2A 9596  15.123  13.499   6.790  0.2745 -0.0077  0.2716
  710POPI   C3A 9597  15.239  13.134   7.066 -0.2027 -0.0393  0.0327
  710POPI   C4A 9598  15.344  12.679   7.118  0.3228  0.0839  0.0888
  710POPI   C1B 9599  16.119  14.056   7.039  0.1634 -0.0016  0.0974
  710POPI   C2B 9600  16.058  13.980   7.444  0.0166  0.1453  0.0493
  710POPI   C3B 9601  15.992  13.802   7.787 -0.3475 -0.0361  0.1844
  710POPI   C4B 9602  15.722  13.835   8.215  0.2171  0.0902 -0.0171
  711POPI    C1 9603  16.182   5.506   5.295  0.0554 -0.1300 -0.2893
  711POPI    C2 9604  16.026   5.139   5.268 -0.0382 -0.1089 -0.0581
  711POPI    C3 9605  15.814   5.456   5.146 -0.0682 -0.1059  0.0013
  711POPI   PO4 9606  16.212   5.527   5.501 -0.1507  0.2731  0.0192
  711POPI   GL1 9607  16.344   5.247   5.816 -0.2057  0.0338 -0.2096
  711POPI   GL2 9608  16.516   4.899   5.991  0.0475 -0.1000  0.3777
  711POPI   C1A 9609  16.434   5.380   6.207 -0.0397  0.1726  0.4523
  711POPI   D2A 9610  16.286   5.705   6.396  0.0437  0.1709 -0.0710
  711POPI   C3A 9611  16.416   6.069   6.198 -0.0145 -0.2071  0.0871
  711POPI   C4A 9612  16.352   6.274   5.785  0.1292 -0.2010 -0.3003
  711POPI   C1B 9613  16.512   4.580   6.318  0.2590  0.2548 -0.2267
  711POPI   C2B 9614  16.480   4.541   6.816  0.0973 -0.3128 -0.0809
  711POPI   C3B 9615  16.249   4.704   7.176  0.3871 -0.0125  0.1126
  711POPI   C4B 9616  16.074   4.662   7.621 -0.0775  0.1216  0.1610
  712POPI    C1 9617  17.667  14.872   5.660 -0.2807 -0.0211  0.0016
  712POPI    C2 9618  17.829  15.203   5.814 -0.0322 -0.1473  0.0177
  712POPI    C3 9619  17.533  15.231   5.546  0.1198  0.0922 -0.1298
  712POPI   PO4 9620  17.607  14.729   5.919  0.3193 -0.0109 -0.1766
  712POPI   GL1 9621  17.840  14.771   6.210 -0.1235  0.2446 -0.3069
  712POPI   GL2 9622  18.125  14.826   6.112  0.3135  0.2242  0.1353
  712POPI   C1A 9623  17.801  14.698   6.572  0.3219 -0.0448  0.2710
  712POPI   D2A 9624  17.415  14.837   6.801 -0.1969 -0.2466  0.0398
  712POPI   C3A 9625  17.272  14.856   7.213 -0.1086  0.1879 -0.0425
  712POPI   C4A 9626  17.506  15.066   7.546  0.0909  0.0536  0.2344
  712POPI   C1B 9627  18.275  14.723   6.533 -0.2349 -0.1450  0.1605
  712POPI   C2B 9628  18.669  14.604   6.818  0.1731  0.1792 -0.1054
  712POPI   C3B 9629  18.849  14.708   7.240 -0.2377  0.1622 -0.2959
  712POPI   C4B 9630  18.928  14.779   7.696 -0.3402  0.3876  0.2301
  713POPI    C1 9631  13.759  18.162   5.632 -0.0931 -0.1712 -0.1076
  713POPI    C2 9632  14.111  18.303   5.503  0.0040  0.0060  0.3320
  713POPI    C3 9633  13.906  18.042   5.280  0.3606 -0.0171  0.0216
  713POPI   PO4 9634  13.874  18.120   5.909  0.1470  0.0691 -0.4345
  713POPI   GL1 9635  13.643  18.081   6.308  0.0985 -0.0523 -0.2749
  713POPI   GL2 9636  13.301  18.256   6.315 -0.1883  0.2211 -0.1050
  713POPI   C1A 9637  13.485  18.021   6.714 -0.1696 -0.1245  0.0077
  713POPI   D2A 9638  13.261  17.929   7.037  0.1494 -0.0998 -0.0814
  713POPI   C3A 9639  13.382  18.121   7.494  0.0355 -0.0065 -0.1642
  713POPI   C4A 9640  13.420  18.167   7.902 -0.0943 -0.0658 -0.1008
  713POPI   C1B 9641  12.981  18.083   6.662 -0.2182  0.0769 -0.1239
  713POPI   C2B 9642  12.692  18.187   7.024  0.0029 -0.0349 -0.2114
  713POPI   C3B 9643  12.696  18.273   7.436  0.3731 -0.0149 -0.2737
  713POPI   C4B 9644  12.864  18.114   7.844  0.3657 -0.1458  0.1193
  714POPI    C1 9645  12.588  10.348   6.460  0.1269 -0.0432  0.1089
  714POPI    C2 9646  12.389  10.463   6.133  0.1476 -0.0662  0.0882
  714POPI    C3 9647  12.282  10.129   6.324 -0.1349  0.1674  0.3474
  714POPI   PO4 9648  12.932  10.243   6.436  0.1882  0.2693  0.2472
  714POPI   GL1 9649  13.259  10.059   6.717  0.1731 -0.0909  0.0862
  714POPI   GL2 9650  13.109   9.767   6.747 -0.2371  0.0220  0.2002
  714POPI   C1A 9651  13.006  10.054   7.185  0.0275  0.1984 -0.0783
  714POPI   D2A 9652  12.984  10.124   7.627 -0.1093  0.1509 -0.1418
  714POPI   C3A 9653  13.249   9.945   7.878  0.2373  0.0713 -0.0801
  714POPI   C4A 9654  13.701  10.092   7.970  0.2128 -0.4132 -0.2128
  714POPI   C1B 9655  13.336   9.686   7.091 -0.2451 -0.1305  0.0952
  714POPI   C2B 9656  13.476   9.754   7.425  0.0441 -0.2774 -0.1953
  714POPI   C3B 9657  13.561   9.522   7.759 -0.2037 -0.0554 -0.0212
  714POPI   C4B 9658  13.990   9.498   7.851  0.1615  0.1205  0.2516
  715POPI    C1 9659  14.072  10.483   5.870 -0.0158  0.1996 -0.2423
  715POPI    C2 9660  14.444  10.341   5.833 -0.0028  0.2048 -0.1349
  715POPI    C3 9661  14.216  10.390   5.509  0.0352  0.0537 -0.1853
  715POPI   PO4 9662  14.105  10.800   6.032 -0.0556  0.2281  0.1759
  715POPI   GL1 9663  14.461  10.747   6.145 -0.0541  0.3592 -0.1454
  715POPI   GL2 9664  14.696  10.770   6.064 -0.0554  0.3775 -0.1303
  715POPI   C1A 9665  14.465  10.284   6.349  0.2337  0.0705  0.0262
  715POPI   D2A 9666  14.237   9.926   6.456 -0.2288  0.0059 -0.1464
  715POPI   C3A 9667  14.267   9.765   6.798  0.5575 -0.4336  0.0333
  715POPI   C4A 9668  14.636   9.730   7.027  0.2669 -0.1504 -0.1231
  715POPI   C1B 9669  14.932  10.573   6.393 -0.0106 -0.0256  0.1887
  715POPI   C2B 9670  15.297  10.322   6.571 -0.0153 -0.0257 -0.1101
  715POPI   C3B 9671  15.398  10.237   6.961 -0.0884 -0.0982 -0.3699
  715POPI   C4B 9672  15.685  10.262   7.335  0.0634 -0.0410  0.1395
  716POPI    C1 9673  18.721  10.714   5.332  0.0654 -0.0249  0.2156
  716POPI    C2 9674  18.735  10.435   5.046  0.2242 -0.0192  0.2171
  716POPI    C3 9675  18.893  10.797   4.981  0.0577  0.0566  0.2311
  716POPI   PO4 9676  18.815  10.558   5.600  0.0484  0.3424  0.0558
  716POPI   GL1 9677  18.866  10.627   6.102 -0.0032  0.0734  0.2278
  716POPI   GL2 9678  18.659  10.856   6.078  0.1016 -0.1177  0.1239
  716POPI   C1A 9679  18.823  10.583   6.497 -0.0045 -0.1434 -0.2459
  716POPI   D2A 9680  18.701  10.583   6.923  0.0909  0.4242 -0.1924
  716POPI   C3A 9681  18.984  10.465   7.142 -0.0619  0.2543  0.0643
  716POPI   C4A 9682  19.335  10.406   7.493  0.0219  0.2104  0.2363
  716POPI   C1B 9683  18.377  10.746   6.479  0.3018 -0.1174 -0.0739
  716POPI   C2B 9684  18.116  10.718   6.810  0.1302  0.1365 -0.2190
  716POPI   C3B 9685  18.103  10.617   7.306 -0.0363  0.0141  0.1906
  716POPI   C4B 9686  18.194  10.688   7.689 -0.0614  0.5947  0.1516
  717POPI    C1 9687   0.630   7.854   5.076  0.1093 -0.2538  0.2026
  717POPI    C2 9688   1.006   7.989   5.094  0.1315 -0.2676 -0.1042
  717POPI    C3 9689   0.932   7.623   4.951  0.0058 -0.2880  0.0120
  717POPI   PO4 9690   0.528   7.927   5.346 -0.1793 -0.2936  0.2048
  717POPI   GL1 9691   0.665   8.024   5.749  0.1119  0.1939  0.3248
  717POPI   GL2 9692   1.054   8.054   5.832 -0.3718 -0.3581 -0.0528
  717POPI   C1A 9693   0.547   8.090   6.227  0.2002  0.2605  0.0717
  717POPI   D2A 9694   0.714   7.955   6.543  0.1794 -0.0138  0.1387
  717POPI   C3A 9695   0.734   7.882   6.955  0.1600  0.0005 -0.1806
  717POPI   C4A 9696   0.916   7.795   7.273  0.1046 -0.0252 -0.4647
  717POPI   C1B 9697   1.098   8.012   6.329  0.1242 -0.1846  0.1491
  717POPI   C2B 9698   1.231   7.940   6.687  0.1809 -0.3518 -0.1004
  717POPI   C3B 9699   1.209   8.107   7.073  0.0113  0.1963  0.3175
  717POPI   C4B 9700   1.365   7.844   7.490 -0.0819 -0.3137 -0.1074
  718POPI    C1 9701   0.581  15.910   5.796  0.1683  0.1138  0.2755
  718POPI    C2 9702   0.407  15.570   5.915 -0.0695  0.0447 -0.2439
  718POPI    C3 9703   0.206  15.915   5.936 -0.0349  0.0651 -0.2463
  718POPI   PO4 9704   0.774  16.040   5.964 -0.1143  0.1823 -0.2966
  718POPI   GL1 9705   1.045  15.771   6.314 -0.2782  0.3339 -0.2669
  718POPI   GL2 9706   0.949  16.051   6.498 -0.3088 -0.2096  0.0489
  718POPI   C1A 9707   1.460  15.924   6.507  0.2016  0.0201 -0.0347
  718POPI   D2A 9708   1.504  16.251   6.927  0.2235  0.0843  0.4700
  718POPI   C3A 9709   1.411  16.029   7.349  0.1339 -0.0884 -0.0500
  718POPI   C4A 9710   1.169  15.920   7.583  0.0183 -0.0843  0.0910
  718POPI   C1B 9711   1.142  15.883   6.869  0.2205 -0.2811 -0.2155
  718POPI   C2B 9712   1.607  15.696   6.934 -0.2830 -0.5142  0.1036
  718POPI   C3B 9713   1.712  15.597   7.351 -0.0716 -0.1338 -0.1431
  718POPI   C4B 9714   1.885  15.406   7.737  0.1551  0.0946  0.1064
  719POPI    C1 9715   3.253  10.032   5.340  0.0707 -0.0197  0.0789
  719POPI    C2 9716   3.436  10.380   5.413  0.1131 -0.0544  0.1385
  719POPI    C3 9717   3.652  10.056   5.323  0.0638 -0.0204 -0.1084
  719POPI   PO4 9718   3.083  10.006   5.566 -0.0544  0.2955 -0.0093
  719POPI   GL1 9719   2.950   9.861   5.936 -0.4669 -0.2800 -0.2014
  719POPI   GL2 9720   3.098   9.662   6.002 -0.2053 -0.1085 -0.0004
  719POPI   C1A 9721   2.729   9.838   6.327 -0.1493 -0.3914  0.3549
  719POPI   D2A 9722   2.654   9.463   6.534 -0.0014  0.1507  0.1467
  719POPI   C3A 9723   2.395   9.296   6.909 -0.2146 -0.0781  0.1251
  719POPI   C4A 9724   2.180   9.480   7.203  0.0206  0.2232  0.0787
  719POPI   C1B 9725   3.105   9.517   6.431 -0.1464 -0.2027  0.2157
  719POPI   C2B 9726   3.105   9.624   6.815 -0.0308  0.1688  0.1787
  719POPI   C3B 9727   2.781   9.724   7.008  0.2331  0.0183 -0.0924
  719POPI   C4B 9728   2.786  10.104   7.363  0.2023 -0.1404 -0.3091
  720POPI    C1 9729   9.211   6.248   5.159  0.0111 -0.1827  0.1274
  720POPI    C2 9730   9.120   5.876   5.042 -0.1092  0.0265 -0.4808
  720POPI    C3 9731   9.408   6.080   4.854  0.2571  0.0965  0.1283
  720POPI   PO4 9732   9.275   6.341   5.452  0.0142 -0.2324  0.1466
  720POPI   GL1 9733   9.437   6.268   5.839 -0.1234 -0.2107  0.1755
  720POPI   GL2 9734   9.048   6.170   5.835  0.1320  0.2746 -0.1373
  720POPI   C1A 9735   9.463   6.446   6.262  0.0922  0.1117 -0.0601
  720POPI   D2A 9736   9.273   6.576   6.666 -0.0503 -0.0643  0.3020
  720POPI   C3A 9737   9.310   6.428   7.053  0.0132  0.0673  0.0935
  720POPI   C4A 9738   9.327   6.475   7.507  0.0008  0.0761 -0.2302
  720POPI   C1B 9739   9.019   6.284   6.369 -0.2548  0.1709 -0.1453
  720POPI   C2B 9740   8.901   6.134   6.761  0.3610 -0.0979 -0.1116
  720POPI   C3B 9741   8.987   6.060   7.117  0.0212  0.0311 -0.2915
  720POPI   C4B 9742   9.065   6.059   7.527 -0.1313  0.4225 -0.0342
  721POPI    C1 9743   7.351   9.367   5.852 -0.0183 -0.2392 -0.0097
  721POPI    C2 9744   7.617   9.370   5.554  0.0001  0.0193  0.0069
  721POPI    C3 9745   7.330   9.648   5.569 -0.0148 -0.0056  0.2182
  721POPI   PO4 9746   7.502   9.398   6.126 -0.0540  0.2596  0.0090
  721POPI   GL1 9747   7.591   9.217   6.472  0.0553  0.3929 -0.1699
  721POPI   GL2 9748   7.678   8.862   6.489  0.2069  0.0155 -0.0048
  721POPI   C1A 9749   7.665   9.342   6.868  0.1758  0.0073 -0.2798
  721POPI   D2A 9750   7.553   9.409   7.292 -0.2777 -0.1142  0.0864
  721POPI   C3A 9751   7.452   9.521   7.736 -0.1761  0.1092  0.0239
  721POPI   C4A 9752   7.389   9.534   8.121 -0.2188 -0.1366 -0.1186
  721POPI   C1B 9753   7.426   8.884   6.828  0.0705  0.0665 -0.1265
  721POPI   C2B 9754   7.340   8.891   7.260  0.1424  0.2422  0.3418
  721POPI   C3B 9755   7.359   9.090   7.574  0.2770  0.0441  0.1563
  721POPI   C4B 9756   7.416   8.974   8.003 -0.2575  0.1957  0.0319
  722POPI    C1 9757   2.734  10.879   5.095  0.0334 -0.2302 -0.1741
  722POPI    C2 9758   2.583  11.238   5.004  0.2830  0.0574  0.4837
  722POPI    C3 9759   2.911  11.105   4.817  0.0382  0.0454  0.0494
  722POPI   PO4 9760   2.589  10.814   5.300 -0.0952 -0.1361 -0.1093
  722POPI   GL1 9761   2.597  10.767   5.685 -0.0236 -0.1047  0.0044
  722POPI   GL2 9762   2.569  10.959   6.071  0.2047  0.1227  0.1882
  722POPI   C1A 9763   2.187  10.741   5.911  0.0599  0.0432 -0.1928
  722POPI   D2A 9764   1.794  10.977   5.921 -0.0910 -0.3346  0.6254
  722POPI   C3A 9765   1.406  10.883   6.161  0.2055 -0.0624  0.0291
  722POPI   C4A 9766   1.379  10.685   6.580  0.0658 -0.0084  0.0587
  722POPI   C1B 9767   2.664  10.734   6.339  0.0506  0.4424  0.0869
  722POPI   C2B 9768   2.544  10.834   6.721  0.1433 -0.3811  0.0791
  722POPI   C3B 9769   2.281  11.071   6.851  0.0420 -0.1312 -0.0488
  722POPI   C4B 9770   2.053  10.970   7.193  0.1090  0.0324 -0.0831
  723POPI    C1 9771   3.331  17.047   5.388  0.3589 -0.0698 -0.2530
  723POPI    C2 9772   3.486  17.346   5.603 -0.0217  0.0655 -0.1589
  723POPI    C3 9773   3.529  17.342   5.206  0.2475  0.0815 -0.1316
  723POPI   PO4 9774   3.395  16.850   5.569  0.4956 -0.1155 -0.1879
  723POPI   GL1 9775   3.450  17.000   5.940 -0.2872 -0.1083  0.1032
  723POPI   GL2 9776   3.139  16.966   6.015  0.2855 -0.3064 -0.1260
  723POPI   C1A 9777   3.481  16.965   6.414 -0.2615  0.0777  0.1352
  723POPI   D2A 9778   3.524  17.052   6.890  0.0302 -0.1197  0.1566
  723POPI   C3A 9779   3.487  16.814   7.234  0.0700 -0.1348  0.3540
  723POPI   C4A 9780   3.362  16.369   7.350 -0.1251  0.2113  0.0630
  723POPI   C1B 9781   2.988  16.757   6.305 -0.2745 -0.0723 -0.0408
  723POPI   C2B 9782   2.600  16.987   6.598  0.2330  0.0620  0.1096
  723POPI   C3B 9783   2.295  17.042   6.850 -0.0550  0.4276 -0.1047
  723POPI   C4B 9784   1.965  17.244   7.090 -0.0221  0.1699  0.1187
  724POPI    C1 9785   1.383  18.091   5.454  0.0840 -0.0294 -0.0094
  724POPI    C2 9786   1.438  18.473   5.349  0.1203 -0.0093  0.0813
  724POPI    C3 9787   1.290  18.212   5.085  0.1420  0.0565  0.0037
  724POPI   PO4 9788   1.295  18.184   5.748  0.0409 -0.0053 -0.1464
  724POPI   GL1 9789   1.336  18.292   6.170  0.2726  0.2583  0.3160
  724POPI   GL2 9790   1.134  18.594   6.272  0.2380 -0.4364 -0.0438
  724POPI   C1A 9791   1.542  18.385   6.641 -0.3771  0.2696 -0.0084
  724POPI   D2A 9792   1.604  18.090   6.969  0.0603 -0.0441  0.0612
  724POPI   C3A 9793   1.607  18.219   7.461 -0.1202  0.0860 -0.0250
  724POPI   C4A 9794   1.706  18.359   7.877  0.2576  0.4904 -0.0943
  724POPI   C1B 9795   1.243  18.848   6.644 -0.6495 -0.0044 -0.0067
  724POPI   C2B 9796   1.143  19.276   6.669 -0.0301 -0.0800  0.2549
  724POPI   C3B 9797   1.040  19.652   6.822  0.2487 -0.1774 -0.1297
  724POPI   C4B 9798   1.125  20.031   7.040 -0.1083  0.3851  0.2164
  725POPI    C1 9799  18.018  13.255   5.608  0.1200  0.0769  0.0656
  725POPI    C2 9800  18.206  13.394   5.932  0.0897  0.1437  0.0544
  725POPI    C3 9801  18.115  13.642   5.631  0.1894  0.0663 -0.0404
  725POPI   PO4 9802  17.883  13.013   5.637 -0.0148 -0.1252  0.3184
  725POPI   GL1 9803  17.747  12.683   5.898 -0.0312  0.1349 -0.3440
  725POPI   GL2 9804  17.810  12.390   5.921  0.0800  0.0347  0.1104
  725POPI   C1A 9805  17.690  12.734   6.328 -0.0642 -0.2095  0.2571
  725POPI   D2A 9806  17.607  12.511   6.734 -0.1468  0.0541  0.0269
  725POPI   C3A 9807  17.325  12.611   7.092  0.0828  0.1009  0.0159
  725POPI   C4A 9808  17.082  12.420   7.361 -0.1902  0.2996  0.2747
  725POPI   C1B 9809  17.790  12.238   6.286 -0.1472 -0.2262 -0.1365
  725POPI   C2B 9810  17.987  12.123   6.756  0.2110 -0.1649  0.4560
  725POPI   C3B 9811  18.058  11.913   7.140 -0.0625 -0.1857  0.1168
  725POPI   C4B 9812  17.873  11.787   7.453  0.3115  0.0471 -0.1105
  726POPI    C1 9813   0.627   1.652   5.490 -0.0968 -0.0019 -0.0748
  726POPI    C2 9814   0.652   1.505   5.119 -0.0393  0.0694 -0.0996
  726POPI    C3 9815   0.973   1.672   5.290  0.0654 -0.3785  0.1578
  726POPI   PO4 9816   0.458   1.566   5.609  0.0390 -0.1731 -0.1337
  726POPI   GL1 9817   0.467   1.784   5.957  0.2453 -0.1820  0.1265
  726POPI   GL2 9818   0.506   2.078   5.832  0.2097 -0.1617 -0.1319
  726POPI   C1A 9819   0.437   1.686   6.329 -0.0095  0.0043  0.4180
  726POPI   D2A 9820   0.650   1.594   6.625 -0.0965  0.2278  0.0179
  726POPI   C3A 9821   0.859   1.696   7.028  0.1950 -0.1420 -0.1088
  726POPI   C4A 9822   0.898   2.198   7.148  0.0520  0.1464  0.2665
  726POPI   C1B 9823   0.888   1.922   6.098 -0.2110 -0.0842  0.4109
  726POPI   C2B 9824   1.121   2.205   6.232  0.0421 -0.0551 -0.1283
  726POPI   C3B 9825   1.458   2.427   6.378  0.1242 -0.0563  0.0194
  726POPI   C4B 9826   1.542   2.806   6.671 -0.0043  0.3459 -0.1564
  727POPI    C1 9827   5.923  16.692   4.636 -0.0990 -0.0091  0.0104
  727POPI    C2 9828   5.898  16.386   4.893  0.0016  0.0521  0.0939
  727POPI    C3 9829   5.751  16.349   4.523  0.0783 -0.1225  0.0799
  727POPI   PO4 9830   5.848  16.910   4.813  0.5389  0.5268  0.1276
  727POPI   GL1 9831   5.662  16.696   5.197 -0.1576 -0.1787 -0.1204
  727POPI   GL2 9832   5.878  16.419   5.416 -0.0510  0.1343 -0.2732
  727POPI   C1A 9833   5.670  16.818   5.677  0.1753 -0.0771 -0.2157
  727POPI   D2A 9834   5.775  16.506   5.989  0.0379 -0.0057 -0.0953
  727POPI   C3A 9835   6.181  16.633   6.169  0.0611 -0.2716 -0.1406
  727POPI   C4A 9836   6.588  16.638   5.944 -0.1080  0.0789 -0.1426
  727POPI   C1B 9837   5.555  16.154   5.702 -0.2018 -0.0524 -0.1359
  727POPI   C2B 9838   5.578  16.080   6.147 -0.0223 -0.1351 -0.1170
  727POPI   C3B 9839   5.834  16.282   6.420  0.0824 -0.0236  0.2336
  727POPI   C4B 9840   6.346  16.207   6.397 -0.0555  0.2580 -0.2153
  728POPI    C1 9841   3.709  17.920   4.816  0.0592  0.0690  0.0303
  728POPI    C2 9842   3.327  17.875   4.927  0.0960  0.2106  0.2193
  728POPI    C3 9843   3.432  18.178   4.688  0.0473  0.0133 -0.0565
  728POPI   PO4 9844   3.827  17.814   5.106  0.3316  0.0076  0.2232
  728POPI   GL1 9845   3.648  17.842   5.560 -0.2406  0.2501  0.2067
  728POPI   GL2 9846   3.327  17.826   5.747  0.1209  0.3316 -0.0981
  728POPI   C1A 9847   3.818  17.759   5.941  0.0765 -0.0549  0.2851
  728POPI   D2A 9848   4.126  17.830   6.215  0.2124  0.0903 -0.2303
  728POPI   C3A 9849   4.012  17.762   6.637  0.0151  0.0541  0.2687
  728POPI   C4A 9850   4.002  18.036   6.946 -0.1813  0.0305 -0.1722
  728POPI   C1B 9851   3.427  17.956   6.190 -0.1414 -0.1313 -0.0619
  728POPI   C2B 9852   3.242  18.168   6.444  0.1203 -0.2368 -0.0046
  728POPI   C3B 9853   2.931  18.492   6.578  0.0728 -0.1173 -0.1049
  728POPI   C4B 9854   2.587  18.634   6.746  0.2454  0.0094 -0.1327
  729POPI    C1 9855  12.953  15.351   5.603 -0.0940 -0.0561 -0.2152
  729POPI    C2 9856  13.139  15.700   5.662  0.0839 -0.1817 -0.0177
  729POPI    C3 9857  13.136  15.534   5.298 -0.1219  0.0913 -0.1443
  729POPI   PO4 9858  12.744  15.330   5.756  0.2575  0.1912 -0.1153
  729POPI   GL1 9859  12.499  15.200   6.078  0.0737 -0.0087  0.1796
  729POPI   GL2 9860  12.770  15.178   6.262 -0.4833 -0.0212 -0.2622
  729POPI   C1A 9861  12.139  15.318   6.219 -0.1048  0.2200 -0.0822
  729POPI   D2A 9862  11.703  15.180   6.173 -0.1804 -0.0360  0.2836
  729POPI   C3A 9863  11.658  14.730   6.344 -0.2726  0.0848  0.0232
  729POPI   C4A 9864  11.902  14.321   6.382  0.0659 -0.2612  0.0910
  729POPI   C1B 9865  12.606  15.186   6.639 -0.0682  0.2936  0.3139
  729POPI   C2B 9866  12.560  15.267   7.116  0.1277  0.0893 -0.0367
  729POPI   C3B 9867  12.361  15.584   7.482  0.5081 -0.1221  0.3471
  729POPI   C4B 9868  12.435  15.845   7.925  0.3056 -0.3001  0.0902
  730POPI    C1 9869  13.742  18.554   6.065  0.0352 -0.0400 -0.1355
  730POPI    C2 9870  13.735  18.597   5.668 -0.1351 -0.2538 -0.1580
  730POPI    C3 9871  13.394  18.539   5.868 -0.0338 -0.3043  0.0015
  730POPI   PO4 9872  13.918  18.720   6.188 -0.3550  0.1011  0.2120
  730POPI   GL1 9873  14.059  18.879   6.607 -0.1595  0.3996 -0.1362
  730POPI   GL2 9874  14.136  18.800   6.885  0.1011 -0.1606 -0.0187
  730POPI   C1A 9875  13.689  19.047   6.810  0.1155  0.0324  0.0025
  730POPI   D2A 9876  13.426  18.938   7.231  0.4633 -0.0958  0.3811
  730POPI   C3A 9877  13.566  18.798   7.519 -0.0509  0.3500 -0.0316
  730POPI   C4A 9878  13.737  18.946   7.951 -0.2147 -0.2464 -0.1742
  730POPI   C1B 9879  13.964  18.792   7.219 -0.2552 -0.1121  0.0339
  730POPI   C2B 9880  14.088  18.799   7.619  0.0638  0.0870 -0.0120
  730POPI   C3B 9881  14.236  19.104   7.905 -0.0495 -0.0400  0.1964
  730POPI   C4B 9882  14.335  19.499   8.134  0.2104  0.1898 -0.0361
  731POPI    C1 9883   3.073  13.086   5.063 -0.4006  0.0416  0.0442
  731POPI    C2 9884   3.375  13.237   4.850 -0.1496 -0.1818  0.2354
  731POPI    C3 9885   3.231  12.875   4.763 -0.4198 -0.0430  0.0931
  731POPI   PO4 9886   3.166  13.179   5.373 -0.2790  0.0971  0.0640
  731POPI   GL1 9887   3.091  13.135   5.715 -0.0974  0.1827  0.0002
  731POPI   GL2 9888   2.837  13.021   5.814  0.2109  0.2168 -0.3377
  731POPI   C1A 9889   3.317  13.140   6.065 -0.0447 -0.0190 -0.1511
  731POPI   D2A 9890   3.458  13.140   6.460  0.1569  0.0136  0.0898
  731POPI   C3A 9891   3.681  13.095   6.795  0.1934 -0.0254  0.1099
  731POPI   C4A 9892   3.443  13.179   7.118 -0.1400  0.0204 -0.2655
  731POPI   C1B 9893   2.739  13.018   6.174  0.0721 -0.2609  0.2113
  731POPI   C2B 9894   2.951  13.167   6.467 -0.2882 -0.1860 -0.0310
  731POPI   C3B 9895   2.959  13.209   6.828 -0.0459 -0.2050 -0.1239
  731POPI   C4B 9896   2.878  13.169   7.186 -0.0175  0.2256  0.4898
  732POPI    C1 9897   7.792  12.941   5.851  0.1004 -0.1442 -0.1986
  732POPI    C2 9898   7.797  13.047   5.466 -0.0988  0.0691 -0.1448
  732POPI    C3 9899   8.068  13.197   5.718  0.0109 -0.0446 -0.1942
  732POPI   PO4 9900   7.514  12.978   5.945 -0.0589 -0.1425  0.1018
  732POPI   GL1 9901   7.353  13.228   6.332 -0.0030  0.1547  0.2918
  732POPI   GL2 9902   7.716  13.133   6.398  0.3331 -0.1695 -0.3241
  732POPI   C1A 9903   6.937  13.372   6.529  0.0336  0.0017  0.0639
  732POPI   D2A 9904   6.850  13.564   6.897  0.1263 -0.1854  0.0469
  732POPI   C3A 9905   7.170  13.725   7.207 -0.0395 -0.3624  0.0754
  732POPI   C4A 9906   7.321  13.959   7.495  0.0090  0.1040 -0.0999
  732POPI   C1B 9907   7.995  12.967   6.611 -0.3839  0.2115  0.0309
  732POPI   C2B 9908   8.291  12.596   6.508 -0.0570 -0.0032 -0.1660
  732POPI   C3B 9909   8.530  12.325   6.497 -0.0110 -0.1612  0.1770
  732POPI   C4B 9910   8.741  12.190   6.245 -0.0486 -0.2818  0.0970
  733POPI    C1 9911   0.126   8.691   5.049  0.0834 -0.2242 -0.1846
  733POPI    C2 9912   0.392   8.797   5.329 -0.1179 -0.2185  0.0073
  733POPI    C3 9913   0.442   8.916   4.950  0.1783 -0.2600  0.0312
  733POPI   PO4 9914  -0.200   8.831   5.230 -0.0039  0.0640 -0.3507
  733POPI   GL1 9915  -0.344   8.781   5.639 -0.4001 -0.0938 -0.1552
  733POPI   GL2 9916  -0.525   8.976   5.786  0.0299 -0.1150  0.1697
  733POPI   C1A 9917  -0.462   8.394   5.833 -0.1750  0.1346  0.1464
  733POPI   D2A 9918  -0.481   8.202   6.239  0.0162  0.0010 -0.3982
  733POPI   C3A 9919  -0.992   8.035   6.375 -0.1262 -0.4821 -0.1594
  733POPI   C4A 9920  -1.431   7.844   6.413  0.1700  0.2396  0.3393
  733POPI   C1B 9921  -0.637   8.709   6.107 -0.1118  0.0287 -0.1240
  733POPI   C2B 9922  -0.792   8.522   6.492  0.0902 -0.0168 -0.0758
  733POPI   C3B 9923  -0.679   8.487   6.894 -0.0274  0.0926 -0.2131
  733POPI   C4B 9924  -0.549   8.183   7.145  0.1201 -0.1358 -0.0671
  734POPI    C1 9925  10.488   2.089   5.839 -0.0918  0.0005 -0.1834
  734POPI    C2 9926  10.430   1.899   5.492 -0.1597 -0.0772 -0.1300
  734POPI    C3 9927  10.622   1.715   5.791 -0.1996 -0.0511 -0.0882
  734POPI   PO4 9928  10.217   2.134   5.974 -0.2429 -0.0651 -0.0668
  734POPI   GL1 9929  10.097   2.211   6.406 -0.0873 -0.1414  0.0451
  734POPI   GL2 9930  10.083   2.612   6.228 -0.1705 -0.2300 -0.0987
  734POPI   C1A 9931   9.852   1.985   6.701  0.0223 -0.1771 -0.0043
  734POPI   D2A 9932   9.641   1.877   7.048 -0.0457  0.0940  0.1186
  734POPI   C3A 9933   9.463   1.851   7.431 -0.0083  0.3530  0.1550
  734POPI   C4A 9934   9.143   1.786   7.601  0.1480  0.0715  0.0463
  734POPI   C1B 9935  10.290   2.630   6.627  0.0464 -0.0111  0.4147
  734POPI   C2B 9936  10.311   3.000   6.945 -0.0135  0.0453 -0.3089
  734POPI   C3B 9937  10.671   3.222   7.129  0.1671 -0.2909  0.0540
  734POPI   C4B 9938  10.750   3.468   6.877 -0.2985  0.2669 -0.0900
  735POPI    C1 9939   8.297  14.128   5.524  0.0984 -0.3274  0.0196
  735POPI    C2 9940   7.902  14.068   5.506  0.0210  0.1481 -0.0123
  735POPI    C3 9941   8.089  14.260   5.209  0.2837 -0.0964 -0.0091
  735POPI   PO4 9942   8.291  14.090   5.874  0.1269  0.0039 -0.0144
  735POPI   GL1 9943   7.807  14.042   6.126 -0.1825 -0.1229  0.3694
  735POPI   GL2 9944   8.074  13.944   6.309 -0.3046 -0.2013 -0.0914
  735POPI   C1A 9945   7.614  13.777   6.461  0.2058  0.0166 -0.0803
  735POPI   D2A 9946   7.287  13.740   6.664  0.0183 -0.3015 -0.1571
  735POPI   C3A 9947   7.353  13.426   6.881  0.0171  0.3298  0.1771
  735POPI   C4A 9948   7.461  13.285   7.355 -0.0189 -0.0653 -0.0208
  735POPI   C1B 9949   7.982  14.056   6.759 -0.0902 -0.5440  0.3066
  735POPI   C2B 9950   7.917  14.361   7.158 -0.2527  0.1141  0.2049
  735POPI   C3B 9951   7.525  14.479   7.500  0.1255  0.1158 -0.1226
  735POPI   C4B 9952   7.233  14.725   7.640 -0.0188 -0.2550  0.0728
  736POPI    C1 9953  18.162   4.464   5.430  0.1538 -0.1115  0.2309
  736POPI    C2 9954  18.346   4.124   5.327 -0.0788 -0.2228  0.1767
  736POPI    C3 9955  18.024   4.247   5.124  0.1672  0.1770  0.0159
  736POPI   PO4 9956  18.362   4.626   5.432 -0.5370  0.0038  0.0010
  736POPI   GL1 9957  18.787   4.769   5.676  0.5684 -0.2024  0.2579
  736POPI   GL2 9958  18.548   4.828   5.991  0.2717 -0.4397 -0.0918
  736POPI   C1A 9959  18.987   4.700   6.056 -0.0314  0.0182 -0.2753
  736POPI   D2A 9960  19.249   4.433   6.284  0.0203 -0.1047 -0.1344
  736POPI   C3A 9961  19.397   4.643   6.711 -0.3713  0.1870  0.3919
  736POPI   C4A 9962  19.580   4.883   7.069 -0.0743 -0.0005 -0.2848
  736POPI   C1B 9963  18.575   4.818   6.390  0.0067 -0.1337 -0.3232
  736POPI   C2B 9964  18.887   4.656   6.615 -0.2881 -0.1800 -0.1037
  736POPI   C3B 9965  18.886   4.601   7.149 -0.2166 -0.0918 -0.2806
  736POPI   C4B 9966  18.818   4.380   7.494 -0.2102  0.2230  0.1710
  737POPI    C1 9967   1.410   8.228   5.186 -0.2391 -0.0432  0.1234
  737POPI    C2 9968   1.504   8.613   5.133 -0.2080 -0.0619  0.0409
  737POPI    C3 9969   1.680   8.332   4.910 -0.2869 -0.1176  0.0482
  737POPI   PO4 9970   1.372   8.181   5.443 -0.0216  0.1335  0.2137
  737POPI   GL1 9971   1.607   8.186   5.762 -0.0289  0.1328  0.2007
  737POPI   GL2 9972   1.628   7.961   5.846  0.0014  0.0884 -0.0744
  737POPI   C1A 9973   1.389   8.475   6.024 -0.1343 -0.0186 -0.0221
  737POPI   D2A 9974   1.356   8.876   6.066  0.0239  0.1546  0.0657
  737POPI   C3A 9975   1.481   8.913   6.603 -0.0006 -0.1333  0.2314
  737POPI   C4A 9976   1.538   8.777   7.026 -0.0322  0.1507 -0.0397
  737POPI   C1B 9977   1.944   7.721   6.142  0.0349  0.0511  0.1011
  737POPI   C2B 9978   2.400   7.725   6.326  0.0837 -0.0697 -0.0608
  737POPI   C3B 9979   2.630   7.578   6.700  0.0214  0.1959 -0.1363
  737POPI   C4B 9980   2.954   7.354   6.890  0.2431 -0.0870  0.2502
  738POPI    C1 9981   4.773  14.146   5.559  0.1100  0.0053  0.0269
  738POPI    C2 9982   4.426  14.100   5.364  0.0814  0.0591  0.0649
  738POPI    C3 9983   4.770  13.999   5.187  0.0353 -0.1224  0.0775
  738POPI   PO4 9984   4.778  14.085   5.763  0.1911  0.1029 -0.1708
  738POPI   GL1 9985   5.025  13.891   6.063  0.3392  0.1535 -0.3345
  738POPI   GL2 9986   5.300  13.994   6.253  0.1543 -0.0557  0.2550
  738POPI   C1A 9987   4.772  14.017   6.451  0.1081 -0.5003 -0.2979
  738POPI   D2A 9988   4.560  13.820   6.786  0.0290 -0.1768 -0.3029
  738POPI   C3A 9989   4.785  13.863   7.184  0.1081 -0.1395 -0.0266
  738POPI   C4A 9990   4.528  14.063   7.626  0.0583  0.4078 -0.0576
  738POPI   C1B 9991   5.144  14.028   6.702  0.1908  0.0660  0.3944
  738POPI   C2B 9992   5.069  14.338   7.008  0.1672  0.3030  0.2646
  738POPI   C3B 9993   4.842  14.341   7.358  0.1532  0.0089  0.1588
  738POPI   C4B 9994   4.826  14.368   7.770  0.0364 -0.4066 -0.2628
  739POPI    C1 9995   7.605  12.452   5.805  0.0164 -0.3930 -0.2060
  739POPI    C2 9996   7.736  12.203   5.521 -0.1008 -0.2200 -0.4143
  739POPI    C3 9997   7.575  12.555   5.420  0.2844  0.0506 -0.1152
  739POPI   PO4 9998   7.809  12.401   5.981 -0.0344 -0.0035  0.3411
  739POPI   GL1 9999   7.673  12.495   6.345 -0.0937  0.0344  0.0618
  739POPI   GL210000   7.404  12.753   6.382  0.0031  0.2431 -0.2031
  739POPI   C1A10001   7.436  12.468   6.800 -0.1385 -0.1003 -0.0953
  739POPI   D2A10002   7.096  12.427   7.113 -0.0139 -0.0068 -0.1710
  739POPI   C3A10003   6.882  12.096   7.326  0.0378  0.1628 -0.2893
  739POPI   C4A10004   7.029  11.702   7.389 -0.0557  0.1020 -0.1817
  739POPI   C1B10005   7.504  12.961   6.846  0.0428  0.3577  0.2429
  739POPI   C2B10006   7.463  12.840   7.211 -0.3209  0.0559 -0.2183
  739POPI   C3B10007   7.567  13.022   7.736 -0.0004 -0.4305 -0.1630
  739POPI   C4B10008   7.862  12.959   8.002 -0.2750  0.0404 -0.2373
  740POPI    C110009   6.903   3.607   4.802  0.0819  0.0165  0.1094
  740POPI    C210010   7.282   3.535   4.906 -0.0028 -0.3166  0.2012
  740POPI    C310011   7.111   3.323   4.613  0.0201  0.1479 -0.1603
  740POPI   PO410012   6.743   3.599   5.106  0.1568  0.0846  0.2452
  740POPI   GL110013   6.717   3.742   5.584  0.1304  0.0410  0.0985
  740POPI   GL210014   6.856   3.491   5.600  0.2784  0.0309  0.1193
  740POPI   C1A10015   6.795   3.892   6.023  0.4512 -0.1556 -0.1970
  740POPI   D2A10016   6.768   3.791   6.438  0.1104 -0.0570  0.0986
  740POPI   C3A10017   6.609   3.794   6.860  0.2407  0.0147 -0.0130
  740POPI   C4A10018   6.640   3.887   7.257 -0.1724  0.0488 -0.4573
  740POPI   C1B10019   7.100   3.191   5.751  0.3290  0.1167 -0.0002
  740POPI   C2B10020   7.597   3.162   5.713 -0.0961  0.0911  0.0850
  740POPI   C3B10021   7.831   3.509   5.759 -0.0544  0.2169  0.3110
  740POPI   C4B10022   7.823   3.988   5.868 -0.0398  0.2101  0.2919
  741POPI    C110023   3.610   8.220   5.610  0.2692  0.2724 -0.0116
  741POPI    C210024   3.731   8.117   5.243 -0.1205 -0.4670  0.0476
  741POPI    C310025   3.955   8.023   5.561  0.0024 -0.2245  0.0348
  741POPI   PO410026   3.660   8.468   5.656 -0.0115 -0.0023  0.0957
  741POPI   GL110027   3.998   8.510   5.891 -0.2974 -0.3714 -0.2732
  741POPI   GL210028   4.126   8.249   6.045  0.0226  0.1303  0.1674
  741POPI   C1A10029   4.151   8.853   6.177  0.1342 -0.1246  0.2126
  741POPI   D2A10030   4.173   8.953   6.587 -0.2084 -0.0857 -0.1368
  741POPI   C3A10031   3.942   8.764   6.995  0.1545 -0.1758 -0.0794
  741POPI   C4A10032   4.091   8.490   7.305  0.3323  0.1127 -0.1302
  741POPI   C1B10033   4.226   8.459   6.425  0.1426  0.0668 -0.0154
  741POPI   C2B10034   4.412   8.327   6.830  0.0256  0.1961  0.3435
  741POPI   C3B10035   4.475   8.115   7.133  0.1640 -0.0657 -0.2405
  741POPI   C4B10036   4.605   8.243   7.566  0.0490 -0.1163 -0.1768
  742POPS   CNO10037  15.842   8.081   4.731 -0.3019  0.1489  0.0513
  742POPS   PO410038  15.804   8.077   5.186 -0.0114  0.1870  0.1798
  742POPS   GL110039  15.890   7.973   5.579  0.1835 -0.2007 -0.3555
  742POPS   GL210040  15.764   7.729   5.736  0.2142 -0.0390 -0.1314
  742POPS   C1A10041  16.164   7.957   5.972  0.0315  0.0407 -0.0908
  742POPS   D2A10042  16.264   7.903   6.348  0.0472 -0.1067  0.4380
  742POPS   C3A10043  16.059   7.635   6.632  0.0457  0.3792  0.2125
  742POPS   C4A10044  15.706   7.736   6.918  0.1410 -0.0907 -0.0255
  742POPS   C1B10045  15.870   7.637   6.153 -0.0763  0.0781  0.0542
  742POPS   C2B10046  15.524   7.482   6.532 -0.2461  0.1217 -0.0849
  742POPS   C3B10047  15.141   7.513   6.776 -0.3708  0.2746  0.0932
  742POPS   C4B10048  15.141   7.248   7.103 -0.0970 -0.2174 -0.0889
  743POPS   CNO10049   3.905   2.857   5.368 -0.1228 -0.2333 -0.4115
  743POPS   PO410050   3.670   3.046   5.717  0.2674 -0.0614  0.0608
  743POPS   GL110051   3.781   3.226   6.178  0.1616  0.3211  0.0124
  743POPS   GL210052   3.864   3.564   6.183 -0.1860 -0.1541  0.0980
  743POPS   C1A10053   3.789   3.120   6.718 -0.2389  0.0650  0.0206
  743POPS   D2A10054   4.098   3.258   7.082  0.0906 -0.1736 -0.3176
  743POPS   C3A10055   4.076   3.507   7.427 -0.0057  0.4336 -0.2053
  743POPS   C4A10056   4.383   3.675   7.712  0.1060 -0.3122 -0.1163
  743POPS   C1B10057   4.053   3.595   6.534 -0.0178 -0.0242  0.1525
  743POPS   C2B10058   4.027   3.722   6.893 -0.0308 -0.3147  0.1516
  743POPS   C3B10059   3.741   3.909   7.177 -0.1166  0.2544 -0.0059
  743POPS   C4B10060   3.500   4.065   7.516 -0.1727 -0.1404  0.1055
  744POPS   CNO10061  11.464  13.894   5.799  0.3135  0.3639 -0.2715
  744POPS   PO410062  11.268  14.295   5.884  0.2168  0.1018  0.0393
  744POPS   GL110063  11.284  14.170   6.288  0.2810  0.0436  0.0048
  744POPS   GL210064  11.185  13.884   6.522  0.1174  0.0651  0.0317
  744POPS   C1A10065  11.318  14.442   6.602 -0.1576  0.2454  0.0459
  744POPS   D2A10066  11.241  14.705   6.849 -0.2225 -0.1261  0.2259
  744POPS   C3A10067  11.410  14.619   7.131 -0.0647 -0.0976  0.0508
  744POPS   C4A10068  11.830  14.579   7.271  0.0107 -0.2197 -0.0208
  744POPS   C1B10069  10.937  13.941   6.783  0.2042 -0.1630  0.3299
  744POPS   C2B10070  11.200  14.155   7.111  0.2894  0.0972 -0.0048
  744POPS   C3B10071  11.476  14.185   7.390 -0.0987  0.2069  0.0418
  744POPS   C4B10072  11.581  13.813   7.629 -0.3941  0.0400  0.3821
  745POPS   CNO10073   0.649   9.239   5.345 -0.0330  0.1600  0.0495
  745POPS   PO410074   0.767   8.938   5.637 -0.3943 -0.3531  0.2168
  745POPS   GL110075   0.767   9.080   6.105 -0.0055 -0.2420 -0.1266
  745POPS   GL210076   0.664   9.364   6.284 -0.2379 -0.2836  0.2422
  745POPS   C1A10077   1.001   9.030   6.417 -0.2453  0.2134 -0.2611
  745POPS   D2A10078   1.045   9.019   6.915  0.0271 -0.0393 -0.1162
  745POPS   C3A10079   1.300   9.207   7.401  0.1332 -0.0513 -0.2047
  745POPS   C4A10080   1.525   8.874   7.735  0.2336  0.0020  0.3398
  745POPS   C1B10081   0.552   9.455   6.610  0.1122  0.1646  0.1222
  745POPS   C2B10082   0.342   9.596   6.967  0.0197  0.1269  0.1621
  745POPS   C3B10083   0.313   9.966   7.305  0.0633  0.2795 -0.0086
  745POPS   C4B10084   0.468   9.860   7.717 -0.3943  0.2238 -0.1528
  746POPS   CNO10085   1.477   2.598   5.109 -0.2818 -0.0599 -0.2313
  746POPS   PO410086   1.611   2.942   5.274  0.0295  0.1420 -0.1116
  746POPS   GL110087   1.931   3.028   5.642 -0.1451 -0.3685  0.1029
  746POPS   GL210088   1.762   3.277   5.957 -0.0633 -0.0187  0.2064
  746POPS   C1A10089   2.257   2.974   6.046  0.3556 -0.0423 -0.2951
  746POPS   D2A10090   2.306   2.996   6.462  0.0690 -0.0597  0.1338
  746POPS   C3A10091   2.406   2.902   6.888 -0.1488 -0.4272  0.1263
  746POPS   C4A10092   2.619   3.029   7.222  0.0888  0.1954 -0.0896
  746POPS   C1B10093   1.386   3.119   6.281 -0.0954  0.0749  0.0907
  746POPS   C2B10094   1.025   3.205   6.589  0.1070 -0.0032  0.0235
  746POPS   C3B10095   0.940   3.482   6.823  0.0119 -0.0551 -0.1882
  746POPS   C4B10096   0.917   3.912   6.865  0.1207 -0.1203 -0.2088
  747POPS   CNO10097  11.112   3.331   5.926  0.1276 -0.1611 -0.0853
  747POPS   PO410098  11.092   3.844   5.867 -0.1269 -0.0112  0.1280
  747POPS   GL110099  11.342   4.087   6.278  0.3925  0.1053 -0.0885
  747POPS   GL210100  11.238   4.422   6.229  0.1182 -0.0659 -0.1255
  747POPS   C1A10101  11.259   3.979   6.679  0.5056  0.0269  0.1826
  747POPS   D2A10102  11.146   3.935   7.160  0.2941  0.3146 -0.0483
  747POPS   C3A10103  11.504   3.840   7.408  0.1207  0.0058  0.1274
  747POPS   C4A10104  11.404   3.483   7.806 -0.1838 -0.1079  0.0798
  747POPS   C1B10105  11.659   4.546   6.309 -0.2742 -0.2358  0.0404
  747POPS   C2B10106  12.025   4.451   6.599  0.1717  0.0078 -0.1537
  747POPS   C3B10107  12.093   4.381   6.922 -0.0122 -0.1605 -0.0519
  747POPS   C4B10108  12.257   4.353   7.324 -0.1964  0.2280 -0.1126
  748POPS   CNO10109  11.269   0.730   5.354  0.3406  0.1850 -0.1910
  748POPS   PO410110  11.208   0.778   5.826  0.0107  0.0441  0.1047
  748POPS   GL110111  11.171   0.627   6.247  0.3378  0.1973 -0.1950
  748POPS   GL210112  11.128   0.341   6.153  0.1909 -0.0436 -0.2604
  748POPS   C1A10113  11.190   0.738   6.630 -0.1903 -0.0457 -0.0291
  748POPS   D2A10114  11.047   0.980   6.951 -0.2665 -0.1148  0.3430
  748POPS   C3A10115  11.191   0.869   7.268 -0.1707  0.1377 -0.2406
  748POPS   C4A10116  11.214   0.760   7.568  0.1461 -0.0392 -0.0924
  748POPS   C1B10117  11.233   0.267   6.545  0.2574  0.1618  0.1808
  748POPS   C2B10118  11.284   0.405   7.054 -0.0760  0.1354 -0.4195
  748POPS   C3B10119  11.248   0.107   7.473 -0.0857  0.2959 -0.0133
  748POPS   C4B10120  11.093  -0.292   7.709  0.0906  0.3051 -0.0750
  749POPS   CNO10121  12.992  12.350   5.778 -0.0435 -0.1550 -0.3568
  749POPS   PO410122  12.984  11.936   5.852 -0.0015 -0.2149 -0.0307
  749POPS   GL110123  13.126  12.282   6.260  0.0845  0.2655  0.1412
  749POPS   GL210124  13.509  12.365   6.299 -0.0454 -0.2988  0.1687
  749POPS   C1A10125  12.969  12.311   6.607 -0.0662  0.3495  0.5256
  749POPS   D2A10126  12.949  12.504   7.028  0.2407 -0.0103  0.0124
  749POPS   C3A10127  12.803  12.376   7.346 -0.0943 -0.0720  0.1302
  749POPS   C4A10128  12.782  12.559   7.757 -0.2110 -0.1309 -0.1391
  749POPS   C1B10129  13.373  12.643   6.705 -0.0888  0.1297  0.1837
  749POPS   C2B10130  13.420  12.728   7.088 -0.1028 -0.3470 -0.0918
  749POPS   C3B10131  13.623  12.676   7.509 -0.3236  0.0590  0.2825
  749POPS   C4B10132  13.755  12.618   8.000 -0.0955  0.0505  0.2407
  750POPS   CNO10133  11.115   6.454   5.330 -0.1148 -0.1048  0.2266
  750POPS   PO410134  11.103   6.330   5.727 -0.0470 -0.0086  0.2216
  750POPS   GL110135  11.203   6.420   6.153  0.0775  0.1461  0.4111
  750POPS   GL210136  10.931   6.236   6.261  0.2114  0.0392 -0.1187
  750POPS   C1A10137  11.325   6.634   6.422  0.0012 -0.1493  0.0425
  750POPS   D2A10138  11.682   6.673   6.577 -0.1394  0.0967  0.1172
  750POPS   C3A10139  11.641   6.769   7.019  0.1946  0.2382  0.0307
  750POPS   C4A10140  11.855   6.797   7.410  0.2044  0.2724 -0.2012
  750POPS   C1B10141  10.916   6.405   6.669 -0.0138 -0.0041  0.0551
  750POPS   C2B10142  11.027   6.523   7.066  0.0799  0.0360 -0.2261
  750POPS   C3B10143  11.367   6.623   7.433 -0.3351 -0.1576  0.1374
  750POPS   C4B10144  11.610   6.754   7.829  0.0679 -0.0366  0.2815
  751POPS   CNO10145   6.664  17.625   5.920 -0.0791  0.0716  0.1877
  751POPS   PO410146   6.905  17.976   5.643  0.0250 -0.1683  0.0367
  751POPS   GL110147   7.102  18.001   6.112 -0.0496 -0.1047 -0.0381
  751POPS   GL210148   7.100  17.766   6.259  0.0093  0.1690 -0.1245
  751POPS   C1A10149   7.050  18.153   6.520 -0.0941  0.1492 -0.0113
  751POPS   D2A10150   6.916  18.431   6.749  0.0962 -0.1325 -0.0562
  751POPS   C3A10151   6.888  18.819   6.561  0.2701 -0.2276 -0.1377
  751POPS   C4A10152   7.022  19.224   6.526  0.2587 -0.1045  0.0047
  751POPS   C1B10153   6.780  17.635   6.497 -0.1721  0.2269  0.0617
  751POPS   C2B10154   6.682  17.524   6.857 -0.2029 -0.0060 -0.1137
  751POPS   C3B10155   6.789  17.438   7.231 -0.0525  0.0228  0.0232
  751POPS   C4B10156   7.206  17.712   7.387  0.0289  0.1972  0.0548
  752POPS   CNO10157  13.183  11.476   6.162 -0.0088  0.0078  0.2672
  752POPS   PO410158  12.967  11.252   6.392  0.0647 -0.1436  0.0433
  752POPS   GL110159  13.066  11.135   6.882 -0.1081  0.1351  0.0700
  752POPS   GL210160  13.372  10.959   7.018 -0.0430  0.0283 -0.0421
  752POPS   C1A10161  12.809  11.354   7.247  0.1430  0.1403  0.2023
  752POPS   D2A10162  12.809  11.495   7.655  0.1575  0.2371 -0.1741
  752POPS   C3A10163  12.462  11.314   7.794  0.1707  0.1136 -0.1677
  752POPS   C4A10164  12.249  11.140   8.220 -0.2803  0.2295 -0.0513
  752POPS   C1B10165  13.231  11.099   7.400  0.1070  0.2514  0.0267
  752POPS   C2B10166  13.186  11.139   7.796 -0.3968 -0.0022  0.2562
  752POPS   C3B10167  13.342  11.269   8.232 -0.0149 -0.0535  0.2445
  752POPS   C4B10168  13.569  11.409   8.535 -0.0977  0.0807  0.3373
  753POPS   CNO10169  14.771   1.459   6.007  0.0901  0.3126  0.0182
  753POPS   PO410170  15.098   1.847   5.905  0.1828  0.1758  0.1070
  753POPS   GL110171  15.001   2.037   6.310 -0.1194  0.0272  0.1506
  753POPS   GL210172  14.907   1.732   6.440  0.0045  0.1289 -0.1616
  753POPS   C1A10173  14.950   2.392   6.512 -0.2204 -0.4369 -0.1031
  753POPS   D2A10174  15.242   2.779   6.619 -0.0717  0.0037 -0.2141
  753POPS   C3A10175  15.082   2.963   7.056 -0.0156  0.1525  0.0386
  753POPS   C4A10176  14.878   3.300   7.014 -0.2485 -0.1102  0.0220
  753POPS   C1B10177  15.046   1.771   6.909  0.0942  0.0543 -0.1011
  753POPS   C2B10178  15.113   1.801   7.401 -0.3986  0.2318 -0.0725
  753POPS   C3B10179  15.501   1.680   7.601  0.1088  0.1629  0.0788
  753POPS   C4B10180  15.562   1.471   8.018 -0.1131  0.0671  0.1001
  754POPS   CNO10181   2.229   0.423   5.580 -0.4703 -0.0826  0.1384
  754POPS   PO410182   2.597   0.696   5.572 -0.1849  0.0679  0.3067
  754POPS   GL110183   2.816   0.619   5.897  0.1910  0.0830  0.1512
  754POPS   GL210184   3.010   0.211   5.845 -0.0101 -0.1369 -0.0130
  754POPS   C1A10185   3.165   0.727   6.190  0.0451  0.1277  0.2081
  754POPS   D2A10186   3.128   0.963   6.533  0.1582  0.1930  0.0602
  754POPS   C3A10187   2.800   0.952   6.752  0.0154  0.1291  0.1837
  754POPS   C4A10188   2.560   1.203   7.102 -0.3685  0.1174 -0.2002
  754POPS   C1B10189   2.963   0.190   6.344 -0.0259 -0.0250  0.4366
  754POPS   C2B10190   3.281   0.152   6.720 -0.1199  0.3616  0.2878
  754POPS   C3B10191   3.301   0.331   7.091 -0.0088 -0.0485  0.0966
  754POPS   C4B10192   3.450   0.670   7.241  0.0056  0.2002 -0.2689
  755POPS   CNO10193   9.786  10.107   6.668 -0.1320 -0.2780  0.0874
  755POPS   PO410194   9.774  10.228   6.315  0.0217 -0.0089 -0.1100
  755POPS   GL110195   9.960  10.568   6.619  0.0255  0.0089  0.1039
  755POPS   GL210196   9.759  10.712   6.728  0.2511  0.1384  0.0129
  755POPS   C1A10197  10.064  10.408   6.920 -0.1554  0.0615 -0.1119
  755POPS   D2A10198  10.085   9.962   7.059  0.3362  0.1022  0.0263
  755POPS   C3A10199   9.740   9.743   7.084  0.2461  0.3317  0.0763
  755POPS   C4A10200   9.608   9.594   7.445  0.0135 -0.0026  0.2843
  755POPS   C1B10201   9.512  10.722   7.224  0.0651  0.0791 -0.2875
  755POPS   C2B10202   9.413  10.399   7.711  0.1261  0.0621  0.3873
  755POPS   C3B10203   9.451  10.117   8.016  0.3324 -0.0960 -0.1251
  755POPS   C4B10204   9.202   9.783   8.268 -0.2253 -0.0785 -0.1032
  756POPS   CNO10205   8.734  18.051   5.811 -0.1798 -0.0391  0.0007
  756POPS   PO410206   9.135  18.290   5.864 -0.1370  0.1177  0.1680
  756POPS   GL110207   9.204  18.263   6.277 -0.0748  0.2254 -0.1269
  756POPS   GL210208   9.316  17.900   6.320  0.0715 -0.3444  0.2828
  756POPS   C1A10209   9.245  18.132   6.757  0.2164 -0.0095  0.1141
  756POPS   D2A10210   9.160  18.368   7.074 -0.1215 -0.0394  0.2506
  756POPS   C3A10211   9.316  18.127   7.454 -0.0152 -0.3125  0.2535
  756POPS   C4A10212   9.676  18.054   7.581  0.0997 -0.1577  0.1955
  756POPS   C1B10213   9.630  18.016   6.439  0.0333 -0.0397  0.0215
  756POPS   C2B10214   9.892  17.971   6.747 -0.0512 -0.0663 -0.0746
  756POPS   C3B10215  10.283  17.981   7.080 -0.3229  0.1420 -0.3607
  756POPS   C4B10216  10.468  17.734   7.403 -0.1419  0.1598  0.3369
  757POPS   CNO10217  18.520  16.428   6.762 -0.2306  0.1542  0.0851
  757POPS   PO410218  18.775  16.554   6.429  0.1678  0.1005 -0.3893
  757POPS   GL110219  19.136  16.408   6.677 -0.0969 -0.0856 -0.4073
  757POPS   GL210220  19.164  16.755   6.906  0.1542  0.2321  0.2442
  757POPS   C1A10221  19.590  16.433   6.787  0.1598 -0.2934  0.1642
  757POPS   D2A10222  19.726  16.300   7.085 -0.1180  0.0571  0.0288
  757POPS   C3A10223  19.675  16.580   7.371  0.0610 -0.2357 -0.1672
  757POPS   C4A10224  19.399  16.578   7.649 -0.1498 -0.1540 -0.0839
  757POPS   C1B10225  19.080  16.512   7.240  0.2086 -0.3889 -0.1952
  757POPS   C2B10226  18.913  16.310   7.631 -0.2263 -0.0971 -0.0150
  757POPS   C3B10227  18.960  16.040   7.899 -0.0379  0.0368  0.3993
  757POPS   C4B10228  18.932  15.622   8.137  0.0923 -0.0125  0.1326
  758POPS   CNO10229   6.876  18.575   4.974  0.2180 -0.0841  0.0814
  758POPS   PO410230   6.507  18.624   5.231 -0.1680  0.2491 -0.0140
  758POPS   GL110231   6.414  18.875   5.521  0.2750 -0.2108  0.2010
  758POPS   GL210232   6.428  18.838   5.894  0.0163 -0.2483 -0.3605
  758POPS   C1A10233   6.001  19.096   5.716 -0.4112 -0.1516  0.1345
  758POPS   D2A10234   5.853  19.008   6.016  0.0572 -0.0179 -0.4354
  758POPS   C3A10235   5.970  19.026   6.450  0.4238 -0.0543  0.1547
  758POPS   C4A10236   5.941  19.324   6.833  0.0216 -0.0276 -0.1408
  758POPS   C1B10237   6.440  18.747   6.242 -0.1548 -0.4304  0.0432
  758POPS   C2B10238   6.382  18.790   6.673  0.1726  0.0191  0.0866
  758POPS   C3B10239   6.675  18.814   6.993  0.0376  0.0886 -0.0180
  758POPS   C4B10240   6.980  18.732   7.180 -0.2164 -0.1532 -0.3949
  759POPS   CNO10241   7.511  11.098   5.415 -0.2214 -0.3783 -0.2305
  759POPS   PO410242   7.526  11.243   5.870 -0.2328 -0.2228 -0.0615
  759POPS   GL110243   7.464  11.160   6.313 -0.1688 -0.0272 -0.2573
  759POPS   GL210244   7.494  11.501   6.404  0.0174  0.2982  0.1114
  759POPS   C1A10245   7.254  10.904   6.655 -0.4778  0.1517 -0.2432
  759POPS   D2A10246   6.999  10.860   7.016 -0.1261  0.2466 -0.0012
  759POPS   C3A10247   6.976  11.216   7.354 -0.3013  0.1597 -0.2968
  759POPS   C4A10248   7.023  11.334   7.692 -0.1589 -0.0996 -0.1154
  759POPS   C1B10249   7.285  11.403   6.738 -0.2164 -0.1314 -0.2667
  759POPS   C2B10250   7.313  11.442   7.077 -0.0891  0.3350 -0.0290
  759POPS   C3B10251   7.456  11.452   7.464  0.0215 -0.1910  0.4055
  759POPS   C4B10252   7.415  11.627   7.940 -0.0643  0.0597  0.1640
  760POPS   CNO10253   1.667  14.393   5.298  0.0165  0.3374  0.1043
  760POPS   PO410254   1.496  14.518   5.577  0.1614  0.0712 -0.2450
  760POPS   GL110255   1.676  14.748   5.741  0.0227 -0.2097 -0.0262
  760POPS   GL210256   1.608  14.903   6.012  0.0514 -0.5787 -0.2207
  760POPS   C1A10257   2.015  14.448   6.086  0.3417 -0.0397 -0.0217
  760POPS   D2A10258   2.190  14.582   6.539  0.0358 -0.2501  0.1868
  760POPS   C3A10259   2.473  14.709   6.886  0.1481 -0.0186 -0.0841
  760POPS   C4A10260   2.430  14.961   7.169 -0.2088 -0.1508 -0.0312
  760POPS   C1B10261   1.866  15.009   6.347 -0.1935 -0.0890  0.1955
  760POPS   C2B10262   1.866  15.079   6.722  0.0962  0.4552  0.3403
  760POPS   C3B10263   1.940  15.377   7.025  0.0621  0.1288 -0.3455
  760POPS   C4B10264   2.204  15.773   7.018  0.0983  0.0074  0.5397
  761POPS   CNO10265  10.606  11.086   6.151  0.1979  0.4481  0.1098
  761POPS   PO410266  10.141  10.970   6.337  0.1256  0.3846  0.0531
  761POPS   GL110267  10.016  11.180   6.709 -0.0696 -0.1020  0.0828
  761POPS   GL210268  10.205  11.389   6.726  0.0851 -0.1376  0.2267
  761POPS   C1A10269   9.637  11.249   6.990  0.0977 -0.3102 -0.2614
  761POPS   D2A10270   9.576  11.305   7.363  0.1064  0.0576 -0.1001
  761POPS   C3A10271   9.452  10.955   7.728 -0.0877 -0.2531  0.3139
  761POPS   C4A10272   9.485  10.637   8.148 -0.0861  0.0199  0.1871
  761POPS   C1B10273  10.428  11.612   6.884  0.4464 -0.2095 -0.2609
  761POPS   C2B10274  10.707  11.916   7.034 -0.0332  0.0592  0.1390
  761POPS   C3B10275  10.697  12.085   7.355 -0.0662 -0.0826  0.1715
  761POPS   C4B10276  10.568  12.251   7.702  0.4162 -0.1618 -0.2075
  762POPS   CNO10277   5.805  17.831   5.293  0.0426  0.1939  0.0008
  762POPS   PO410278   5.828  18.022   5.493  0.2008 -0.1673 -0.1228
  762POPS   GL110279   5.494  17.742   5.673  0.1308 -0.0075  0.1375
  762POPS   GL210280   5.604  17.496   5.799  0.1265 -0.1779 -0.1485
  762POPS   C1A10281   5.208  17.598   6.126 -0.1019  0.0458 -0.1714
  762POPS   D2A10282   5.214  17.425   6.492 -0.1027 -0.5166 -0.3030
  762POPS   C3A10283   4.928  17.477   6.877 -0.2291 -0.0696 -0.1042
  762POPS   C4A10284   4.754  17.108   7.101  0.1903 -0.1311 -0.2171
  762POPS   C1B10285   5.741  17.508   6.205  0.3170  0.1174 -0.0749
  762POPS   C2B10286   5.781  17.469   6.583 -0.0352  0.0411 -0.0567
  762POPS   C3B10287   5.645  17.488   6.972 -0.0950  0.3583 -0.1334
  762POPS   C4B10288   5.228  17.423   7.303  0.1472  0.2619 -0.1003
  763POPS   CNO10289   2.985  12.751   5.434 -0.0939  0.1700 -0.0495
  763POPS   PO410290   2.528  12.524   5.398 -0.0640 -0.1548  0.2778
  763POPS   GL110291   2.551  12.629   5.804  0.0371 -0.2243 -0.0742
  763POPS   GL210292   2.282  12.848   5.853 -0.3656 -0.2626  0.2965
  763POPS   C1A10293   2.522  12.544   6.262  0.1528  0.1860 -0.0693
  763POPS   D2A10294   2.561  12.480   6.649 -0.2796 -0.2929 -0.1224
  763POPS   C3A10295   2.676  12.454   7.040 -0.1740 -0.4379 -0.1768
  763POPS   C4A10296   2.956  12.371   7.400  0.1945 -0.2679  0.5371
  763POPS   C1B10297   2.250  12.945   6.335  0.0632  0.0794 -0.2305
  763POPS   C2B10298   2.494  12.984   6.714  0.0889  0.2228 -0.4319
  763POPS   C3B10299   2.412  13.049   7.100 -0.2095  0.2172 -0.1229
  763POPS   C4B10300   2.485  12.795   7.442  0.6029  0.0414  0.4048
  764POPS   CNO10301  15.798   0.962   6.087 -0.2176  0.0760  0.4014
  764POPS   PO410302  15.593   1.064   6.483  0.3421 -0.2737  0.1786
  764POPS   GL110303  15.674   1.427   6.747  0.0426 -0.2769  0.3038
  764POPS   GL210304  15.962   1.541   6.853 -0.0766  0.0138  0.3324
  764POPS   C1A10305  15.521   1.725   7.072  0.0416  0.1228  0.1245
  764POPS   D2A10306  15.584   2.060   7.281  0.4015  0.1531  0.0588
  764POPS   C3A10307  15.410   2.298   7.567 -0.1522 -0.0342  0.0146
  764POPS   C4A10308  15.374   2.280   8.029  0.0811 -0.0103 -0.0098
  764POPS   C1B10309  15.951   1.579   7.290 -0.0995 -0.0550 -0.0475
  764POPS   C2B10310  15.979   1.454   7.699 -0.0247 -0.0460  0.0309
  764POPS   C3B10311  16.184   1.377   8.104 -0.0532 -0.0615  0.3204
  764POPS   C4B10312  16.239   1.238   8.530  0.0986 -0.2436  0.0994
  765POPS   CNO10313  17.436  17.866   6.000 -0.0217  0.1484 -0.3690
  765POPS   PO410314  17.009  17.895   6.075 -0.2731 -0.1480 -0.3761
  765POPS   GL110315  16.978  18.062   6.501 -0.0413 -0.0067 -0.2903
  765POPS   GL210316  16.821  17.858   6.659 -0.1023  0.5459  0.1698
  765POPS   C1A10317  16.942  18.489   6.808 -0.1755  0.0835  0.2184
  765POPS   D2A10318  17.045  18.561   7.207  0.3466 -0.1219  0.3193
  765POPS   C3A10319  17.087  18.893   7.558 -0.0302  0.3684 -0.1525
  765POPS   C4A10320  17.014  18.924   7.944 -0.1251  0.2783  0.0506
  765POPS   C1B10321  16.863  18.036   7.040 -0.1198  0.1731  0.0371
  765POPS   C2B10322  16.849  18.174   7.493  0.4452 -0.0039 -0.0407
  765POPS   C3B10323  16.956  18.451   7.943 -0.3705  0.0614  0.0505
  765POPS   C4B10324  17.184  18.525   8.343  0.1076 -0.1222  0.2935
  766POPS   CNO10325  17.101   0.409   6.105 -0.1241  0.2451  0.1334
  766POPS   PO410326  17.124   0.809   6.301 -0.1131  0.2027  0.2842
  766POPS   GL110327  17.274   0.507   6.575 -0.0666  0.0724  0.1185
  766POPS   GL210328  17.554   0.585   6.717 -0.2172  0.0207 -0.2699
  766POPS   C1A10329  17.252   0.158   6.934 -0.3155 -0.0806 -0.0609
  766POPS   D2A10330  17.531  -0.009   7.048  0.2361  0.1537  0.1068
  766POPS   C3A10331  17.525  -0.093   7.344 -0.1703  0.0308  0.0283
  766POPS   C4A10332  17.380  -0.292   7.582  0.0969 -0.1283 -0.0685
  766POPS   C1B10333  17.557   0.485   7.144  0.1511 -0.5092  0.3678
  766POPS   C2B10334  17.620   0.467   7.504 -0.1506  0.1446  0.1352
  766POPS   C3B10335  17.531   0.606   7.853 -0.0313  0.3068  0.2015
  766POPS   C4B10336  17.659   0.724   8.250 -0.0089 -0.0484 -0.1282
  767POPS   CNO10337  12.922  13.329   5.535 -0.2839  0.0001  0.0588
  767POPS   PO410338  12.666  13.510   5.793 -0.1355  0.1386  0.1392
  767POPS   GL110339  12.811  13.479   6.220  0.0247 -0.0826  0.0785
  767POPS   GL210340  12.872  13.164   6.264 -0.1246 -0.1727  0.0932
  767POPS   C1A10341  12.963  13.582   6.720 -0.3751  0.0894 -0.0025
  767POPS   D2A10342  13.169  13.760   7.115 -0.3921 -0.1917 -0.2608
  767POPS   C3A10343  12.997  13.825   7.495 -0.1272  0.1867  0.2412
  767POPS   C4A10344  13.053  13.915   8.001  0.0253 -0.0504 -0.3690
  767POPS   C1B10345  12.895  13.026   6.635 -0.2561  0.1286  0.0912
  767POPS   C2B10346  13.052  13.022   7.011 -0.1294  0.2857 -0.2065
  767POPS   C3B10347  13.192  12.883   7.512 -0.1589  0.1852 -0.4539
  767POPS   C4B10348  13.304  12.861   7.925 -0.1293  0.0932  0.0194
  768POPS   CNO10349  10.072   5.144   5.699 -0.1066  0.1357  0.2078
  768POPS   PO410350   9.931   4.740   5.656 -0.0403  0.2580 -0.1750
  768POPS   GL110351   9.753   4.790   6.055  0.1242 -0.1366 -0.0179
  768POPS   GL210352   9.993   4.972   6.137  0.1321  0.2155  0.0494
  768POPS   C1A10353   9.681   4.738   6.519  0.2095 -0.1823  0.0445
  768POPS   D2A10354   9.735   4.745   6.959 -0.0143 -0.0677 -0.0269
  768POPS   C3A10355   9.714   4.327   7.071 -0.0654 -0.1664 -0.1923
  768POPS   C4A10356   9.662   4.135   7.366 -0.0475 -0.1952 -0.0953
  768POPS   C1B10357   9.865   5.185   6.508  0.1188  0.0005 -0.2183
  768POPS   C2B10358   9.898   5.308   6.974  0.1657  0.0995 -0.0271
  768POPS   C3B10359   9.895   5.194   7.312  0.0640  0.0615 -0.1260
  768POPS   C4B10360  10.244   5.103   7.540  0.0736  0.0058  0.0309
  769POPS   CNO10361  17.547   2.832   5.895 -0.0613 -0.0366 -0.1005
  769POPS   PO410362  17.647   2.450   6.051 -0.3388  0.0883  0.0623
  769POPS   GL110363  17.612   2.625   6.336  0.0603  0.4156  0.1746
  769POPS   GL210364  17.915   2.877   6.261  0.0491 -0.0820 -0.3178
  769POPS   C1A10365  17.387   2.805   6.668  0.2188  0.1334 -0.1642
  769POPS   D2A10366  17.332   2.772   7.049 -0.0128 -0.3791  0.1115
  769POPS   C3A10367  17.201   3.212   7.346 -0.0278  0.3704  0.0510
  769POPS   C4A10368  17.267   3.686   7.385  0.3464 -0.1332  0.0437
  769POPS   C1B10369  17.848   2.979   6.663 -0.2543 -0.0882 -0.0318
  769POPS   C2B10370  17.915   3.160   7.017  0.0358 -0.0143  0.2058
  769POPS   C3B10371  17.690   3.229   7.288 -0.2377 -0.1159 -0.0860
  769POPS   C4B10372  17.594   2.977   7.712 -0.0193 -0.0641 -0.2202
  770POPS   CNO10373   0.152   5.196   5.837 -0.1308 -0.1347 -0.0226
  770POPS   PO410374   0.204   5.476   5.576 -0.0308  0.1090  0.1906
  770POPS   GL110375   0.443   5.569   5.931 -0.1799 -0.2244  0.1453
  770POPS   GL210376   0.702   5.676   5.839  0.0219 -0.1499 -0.1941
  770POPS   C1A10377   0.752   5.484   6.333  0.4311 -0.2679 -0.0091
  770POPS   D2A10378   0.882   5.798   6.597  0.0926 -0.1246 -0.0802
  770POPS   C3A10379   1.206   5.757   6.760  0.3535  0.0213 -0.1802
  770POPS   C4A10380   1.430   5.521   7.150  0.0854 -0.1313  0.4765
  770POPS   C1B10381   1.062   5.716   6.051  0.0584 -0.0073  0.1022
  770POPS   C2B10382   1.451   5.582   6.308  0.1758  0.1166  0.3159
  770POPS   C3B10383   1.615   5.451   6.683 -0.1012  0.0181  0.2280
  770POPS   C4B10384   1.998   5.583   6.926  0.3555  0.3148 -0.3632
  771POPS   CNO10385  10.556   8.635   6.370 -0.0398  0.2180 -0.0234
  771POPS   PO410386  10.991   8.304   6.347  0.2945 -0.2271  0.1372
  771POPS   GL110387  10.913   8.239   6.705 -0.1809 -0.1267 -0.2346
  771POPS   GL210388  10.638   8.273   6.738 -0.0041 -0.2490  0.0130
  771POPS   C1A10389  11.213   8.317   7.107  0.0209 -0.1733 -0.1158
  771POPS   D2A10390  11.603   8.505   7.189 -0.1205  0.0708  0.1802
  771POPS   C3A10391  11.745   8.534   7.550 -0.0697 -0.2007  0.0658
  771POPS   C4A10392  11.937   8.487   7.869  0.1059 -0.0466  0.1206
  771POPS   C1B10393  10.631   8.305   7.189  0.1375 -0.2138  0.1765
  771POPS   C2B10394  10.643   8.443   7.584 -0.0331 -0.2188  0.0672
  771POPS   C3B10395  10.649   8.502   7.943 -0.3558 -0.0898 -0.5494
  771POPS   C4B10396  10.877   8.386   8.283 -0.1387  0.2425  0.1165
  772POPS   CNO10397   1.116   3.279   5.250 -0.0462  0.4313 -0.1043
  772POPS   PO410398   0.902   3.278   5.665 -0.2072  0.1300  0.2134
  772POPS   GL110399   0.908   3.607   5.967 -0.0196 -0.2193 -0.0317
  772POPS   GL210400   0.923   3.497   6.184  0.0451 -0.1928 -0.0645
  772POPS   C1A10401   0.738   4.097   6.047  0.0694  0.2238  0.2191
  772POPS   D2A10402   0.953   4.504   6.164  0.0055 -0.1068  0.1391
  772POPS   C3A10403   1.372   4.638   6.191 -0.4560  0.1087  0.3686
  772POPS   C4A10404   1.649   5.013   6.108 -0.4148 -0.0436 -0.1518
  772POPS   C1B10405   1.311   3.637   6.354 -0.2612 -0.3292  0.1764
  772POPS   C2B10406   1.394   3.847   6.748  0.0170  0.0055 -0.0817
  772POPS   C3B10407   1.334   3.917   7.202 -0.0292 -0.1015 -0.0909
  772POPS   C4B10408   1.040   4.156   7.462  0.2845  0.2095 -0.5167
  773POPS   CNO10409   5.914   3.255   5.793 -0.0317 -0.1201  0.0594
  773POPS   PO410410   6.051   3.056   5.477  0.2890  0.0023 -0.1642
  773POPS   GL110411   6.117   2.830   5.926 -0.0465 -0.0823 -0.1266
  773POPS   GL210412   5.973   2.781   6.036 -0.0530  0.1013  0.1388
  773POPS   C1A10413   6.478   2.712   6.108 -0.1342  0.1019 -0.0318
  773POPS   D2A10414   6.555   2.735   6.491 -0.1827  0.2448  0.3173
  773POPS   C3A10415   6.671   3.139   6.888  0.1622 -0.1209  0.3162
  773POPS   C4A10416   6.895   3.466   7.126 -0.2772 -0.0688  0.2225
  773POPS   C1B10417   6.068   2.543   6.355  0.2363  0.1549 -0.1804
  773POPS   C2B10418   6.336   2.275   6.519 -0.1561  0.1347  0.4307
  773POPS   C3B10419   6.527   2.385   6.862 -0.1458  0.0214  0.2571
  773POPS   C4B10420   6.731   2.623   7.013  0.2593 -0.4177  0.2253
  774POPS   CNO10421  14.830   8.824   5.099  0.1268  0.1938 -0.4196
  774POPS   PO410422  14.746   9.030   5.420 -0.4145  0.1572  0.0417
  774POPS   GL110423  14.771   8.670   5.714  0.1076 -0.1538  0.0044
  774POPS   GL210424  14.950   8.392   5.685  0.0857  0.0244  0.1237
  774POPS   C1A10425  14.774   8.821   6.195  0.0768 -0.0504  0.2418
  774POPS   D2A10426  14.937   8.797   6.590  0.2238 -0.0603 -0.0162
  774POPS   C3A10427  14.712   8.893   7.005 -0.0678  0.1959 -0.2807
  774POPS   C4A10428  14.913   9.020   7.462 -0.3409 -0.1524  0.0157
  774POPS   C1B10429  14.879   8.008   5.982 -0.3197 -0.2547  0.1216
  774POPS   C2B10430  15.111   7.926   6.313  0.6255  0.0538 -0.2347
  774POPS   C3B10431  15.238   7.995   6.659  0.0146 -0.2406 -0.2030
  774POPS   C4B10432  15.274   8.262   7.038 -0.0394 -0.1065 -0.1641
  775POPS   CNO10433  10.204   7.671   5.888 -0.0412 -0.1320 -0.1196
  775POPS   PO410434  10.584   7.673   6.011 -0.3465  0.1231  0.1922
  775POPS   GL110435  10.309   7.685   6.403 -0.1816  0.1402 -0.1373
  775POPS   GL210436  10.019   7.812   6.471 -0.0180  0.0081  0.0944
  775POPS   C1A10437  10.219   7.753   6.913 -0.1608  0.2820  0.2548
  775POPS   D2A10438  10.162   7.557   7.332  0.0368  0.1284 -0.3358
  775POPS   C3A10439  10.337   7.426   7.720  0.0473 -0.1030 -0.3545
  775POPS   C4A10440  10.500   7.543   8.047 -0.0436 -0.1879 -0.4062
  775POPS   C1B10441   9.851   7.494   6.714  0.0749 -0.1882  0.0833
  775POPS   C2B10442   9.733   7.367   7.207  0.0057  0.0436 -0.1578
  775POPS   C3B10443   9.817   7.465   7.711  0.2507  0.3841  0.0367
  775POPS   C4B10444  10.072   7.310   8.143 -0.0445  0.1352  0.1485
  776POPS   CNO10445   2.542   3.775   5.150 -0.0539  0.2283 -0.0415
  776POPS   PO410446   2.752   3.599   5.531 -0.0038 -0.0624 -0.1468
  776POPS   GL110447   2.758   3.429   5.819 -0.2028  0.0205  0.1541
  776POPS   GL210448   3.032   3.452   5.997 -0.0538  0.4732  0.2321
  776POPS   C1A10449   2.775   3.184   6.289 -0.0731  0.1650  0.1805
  776POPS   D2A10450   2.702   3.281   6.733 -0.2078  0.0840 -0.1769
  776POPS   C3A10451   2.988   3.192   6.952 -0.4295  0.2858  0.2932
  776POPS   C4A10452   3.207   3.249   7.261  0.0523 -0.0264 -0.4554
  776POPS   C1B10453   3.305   3.393   6.218  0.2558  0.0828  0.2708
  776POPS   C2B10454   3.298   3.100   6.582 -0.1195 -0.1795  0.1019
  776POPS   C3B10455   3.394   2.851   6.925  0.2913  0.0023 -0.0654
  776POPS   C4B10456   3.422   2.434   6.948 -0.0067 -0.1610  0.6624
  777POPS   CNO10457   9.191   7.293   6.247 -0.2111 -0.0645 -0.1879
  777POPS   PO410458   8.839   7.245   5.876 -0.2419  0.2409  0.1155
  777POPS   GL110459   8.815   6.849   6.066 -0.0093 -0.1844 -0.0249
  777POPS   GL210460   9.047   6.709   6.167 -0.2090  0.2705  0.2905
  777POPS   C1A10461   8.631   6.694   6.461  0.0061  0.1772  0.3848
  777POPS   D2A10462   8.419   6.548   6.821 -0.2503  0.3058  0.1507
  777POPS   C3A10463   8.756   6.519   7.155 -0.1116 -0.1102 -0.0017
  777POPS   C4A10464   8.754   6.441   7.598  0.0658 -0.1792  0.0914
  777POPS   C1B10465   8.935   7.040   6.563  0.0075  0.0387 -0.2541
  777POPS   C2B10466   8.883   7.086   6.926  0.2734 -0.1472  0.1802
  777POPS   C3B10467   8.762   6.945   7.396  0.0338  0.0085 -0.1585
  777POPS   C4B10468   8.527   6.795   7.831  0.1930  0.0313  0.0528
  778POPS   CNO10469   2.068  17.021   5.815 -0.1430 -0.0029 -0.0627
  778POPS   PO410470   2.257  16.765   5.598  0.3008 -0.3085  0.0257
  778POPS   GL110471   2.464  16.432   5.838  0.1548 -0.1657 -0.1410
  778POPS   GL210472   2.700  16.368   5.909 -0.0079 -0.2748  0.1498
  778POPS   C1A10473   2.485  15.932   5.976 -0.3690 -0.1212  0.0636
  778POPS   D2A10474   2.484  15.657   6.380  0.0372  0.1449  0.3574
  778POPS   C3A10475   2.726  15.679   6.691  0.2224  0.0303  0.2305
  778POPS   C4A10476   3.070  15.617   6.789  0.0342  0.3358  0.1017
  778POPS   C1B10477   2.948  16.218   6.227 -0.1648  0.0468  0.0196
  778POPS   C2B10478   2.948  16.261   6.598 -0.1654  0.3449  0.1595
  778POPS   C3B10479   2.749  15.916   7.084  0.1450  0.0611 -0.1889
  778POPS   C4B10480   2.734  15.450   7.181 -0.0612 -0.0526  0.1612
  779POPS   CNO10481  12.096   7.318   5.440  0.0145  0.2941  0.0545
  779POPS   PO410482  12.278   7.174   5.880 -0.0801 -0.0637 -0.2070
  779POPS   GL110483  12.432   7.090   6.442 -0.1970  0.0602 -0.1325
  779POPS   GL210484  12.681   7.260   6.585 -0.0597  0.1829 -0.2608
  779POPS   C1A10485  12.659   6.732   6.784  0.0256  0.1278 -0.2139
  779POPS   D2A10486  12.803   6.866   7.145  0.2972 -0.0392 -0.2289
  779POPS   C3A10487  12.937   6.752   7.505 -0.0668 -0.1091 -0.1860
  779POPS   C4A10488  13.292   6.876   7.808 -0.1287 -0.0545  0.1444
  779POPS   C1B10489  12.601   7.443   6.957 -0.0114  0.1554  0.1344
  779POPS   C2B10490  12.449   7.626   7.316  0.0020 -0.0561  0.1798
  779POPS   C3B10491  12.447   7.617   7.817 -0.0442 -0.0512  0.0396
  779POPS   C4B10492  12.203   7.647   8.165 -0.2379  0.1847 -0.0455
  780POPS   CNO10493   4.739   1.500   5.560  0.0394 -0.0518 -0.0127
  780POPS   PO410494   4.280   1.542   5.540  0.2350 -0.1339  0.3702
  780POPS   GL110495   4.080   1.384   5.799 -0.0198  0.1956  0.0959
  780POPS   GL210496   4.123   1.050   5.907 -0.1010 -0.2983 -0.0718
  780POPS   C1A10497   3.992   1.624   6.175 -0.0716  0.0180  0.0672
  780POPS   D2A10498   4.057   1.900   6.594  0.2925 -0.0124 -0.2189
  780POPS   C3A10499   4.118   2.242   6.778 -0.0220 -0.2477 -0.2467
  780POPS   C4A10500   3.960   2.526   6.986  0.1677 -0.3647 -0.1470
  780POPS   C1B10501   4.143   1.184   6.323 -0.1777  0.0049 -0.1369
  780POPS   C2B10502   4.105   1.427   6.655 -0.0694  0.0543  0.0776
  780POPS   C3B10503   4.041   1.373   7.015 -0.0892 -0.2562 -0.2594
  780POPS   C4B10504   3.777   1.333   7.368 -0.0279 -0.3419  0.0947
  781POPS   CNO10505  17.607   0.662   6.057  0.0617  0.1474  0.0830
  781POPS   PO410506  18.059   0.582   5.981  0.0320  0.1068 -0.0357
  781POPS   GL110507  18.167   0.933   6.357 -0.0639  0.1095 -0.2312
  781POPS   GL210508  17.876   1.031   6.557  0.0331 -0.0451 -0.3721
  781POPS   C1A10509  18.521   0.769   6.671 -0.0047  0.0575 -0.3253
  781POPS   D2A10510  18.536   0.788   7.134  0.0562 -0.4953 -0.0693
  781POPS   C3A10511  18.440   1.145   7.329 -0.2033 -0.1210  0.4896
  781POPS   C4A10512  18.478   1.595   7.515 -0.2873 -0.0771  0.0771
  781POPS   C1B10513  17.915   1.310   6.918 -0.1759  0.1706 -0.1820
  781POPS   C2B10514  17.952   1.322   7.348 -0.0976  0.0379 -0.0323
  781POPS   C3B10515  17.987   1.396   7.703  0.0028  0.1081  0.0016
  781POPS   C4B10516  18.112   1.398   8.118 -0.0124  0.0387 -0.1162
  782POPS   CNO10517   9.974  12.419   6.020  0.1332  0.1512  0.4406
  782POPS   PO410518   9.595  12.561   6.086 -0.1359 -0.1540 -0.0590
  782POPS   GL110519   9.593  12.510   6.547  0.2738 -0.2622  0.2023
  782POPS   GL210520   9.978  12.391   6.515 -0.0205  0.0667 -0.0922
  782POPS   C1A10521   9.409  12.628   6.929  0.2337 -0.0632 -0.2413
  782POPS   D2A10522   9.336  12.617   7.350  0.0794 -0.0479 -0.1790
  782POPS   C3A10523   9.429  12.946   7.648 -0.3062  0.0622 -0.0213
  782POPS   C4A10524   9.789  13.073   7.818 -0.1160 -0.0104 -0.5460
  782POPS   C1B10525  10.224  12.133   6.815  0.1626  0.1072  0.0976
  782POPS   C2B10526  10.224  12.117   7.202  0.0623 -0.3277 -0.1426
  782POPS   C3B10527  10.094  12.169   7.515  0.1769  0.0511  0.2310
  782POPS   C4B10528  10.045  11.847   7.774  0.2621  0.2802 -0.1816
  783POPS   CNO10529  18.470  10.105   5.399  0.1294  0.0818  0.0688
  783POPS   PO410530  18.408  10.108   5.743  0.0682 -0.0472  0.1532
  783POPS   GL110531  17.970  10.079   6.001 -0.0618 -0.0531  0.0148
  783POPS   GL210532  17.751  10.366   6.062  0.4678  0.1990  0.2225
  783POPS   C1A10533  17.776   9.908   6.358 -0.2364 -0.1378  0.1873
  783POPS   D2A10534  17.658   9.873   6.768  0.1581  0.1266 -0.1110
  783POPS   C3A10535  17.428   9.535   6.899 -0.0143  0.0529  0.1004
  783POPS   C4A10536  17.509   9.157   6.886  0.1773 -0.1125 -0.1837
  783POPS   C1B10537  17.747  10.456   6.525  0.0888 -0.2459  0.0161
  783POPS   C2B10538  17.611  10.516   6.969 -0.0297 -0.1817 -0.0923
  783POPS   C3B10539  17.605  10.448   7.387  0.1907  0.2580 -0.1334
  783POPS   C4B10540  17.875  10.297   7.731 -0.0008 -0.1060 -0.0510
  784POPS   CNO10541   6.228   4.960   5.491 -0.0573  0.0638  0.0808
  784POPS   PO410542   5.916   5.043   5.589 -0.2942 -0.3564 -0.0545
  784POPS   GL110543   5.859   4.820   5.969 -0.1077 -0.1720 -0.2290
  784POPS   GL210544   5.992   4.562   6.053  0.1613  0.1074 -0.0355
  784POPS   C1A10545   5.779   4.975   6.343 -0.0252  0.0899 -0.1653
  784POPS   D2A10546   6.015   5.151   6.744 -0.0133  0.0530 -0.0158
  784POPS   C3A10547   5.884   5.036   7.226  0.4292  0.0985  0.1047
  784POPS   C4A10548   5.739   4.902   7.686 -0.0563  0.1823  0.0182
  784POPS   C1B10549   5.982   4.561   6.509  0.1958 -0.2066  0.1060
  784POPS   C2B10550   6.230   4.603   6.823 -0.0054  0.1141  0.2108
  784POPS   C3B10551   6.361   4.831   7.076  0.2240 -0.0061 -0.1730
  784POPS   C4B10552   6.320   5.242   7.152  0.0350  0.2692  0.1528
  785POPS   CNO10553   2.295  10.411   5.437 -0.2042  0.2012  0.0549
  785POPS   PO410554   1.911  10.078   5.570 -0.0340  0.2231  0.1558
  785POPS   GL110555   1.781  10.376   5.741 -0.2024  0.0477  0.0519
  785POPS   GL210556   1.518  10.495   5.784  0.2493  0.0878  0.0611
  785POPS   C1A10557   1.772  10.559   6.201 -0.0968 -0.0065  0.3268
  785POPS   D2A10558   2.183  10.409   6.447  0.1963  0.0298 -0.1450
  785POPS   C3A10559   2.559  10.286   6.137  0.2269  0.0881  0.1317
  785POPS   C4A10560   2.853  10.455   5.939  0.2022 -0.3174  0.1847
  785POPS   C1B10561   1.297  10.445   6.078 -0.2862 -0.0685  0.1822
  785POPS   C2B10562   1.013  10.329   6.364  0.1226  0.0208 -0.2168
  785POPS   C3B10563   0.873  10.385   6.768 -0.1448  0.0552  0.1323
  785POPS   C4B10564   1.176  10.568   6.991  0.2769 -0.0191  0.4763
  786POPS   CNO10565   6.834   9.552   5.634 -0.0966 -0.0754 -0.2112
  786POPS   PO410566   6.531   9.516   5.974 -0.0038  0.5102 -0.0731
  786POPS   GL110567   6.223   9.647   6.273 -0.0865 -0.1001  0.2587
  786POPS   GL210568   6.275   9.853   6.442 -0.0493  0.2125  0.1766
  786POPS   C1A10569   5.974   9.438   6.562  0.0697 -0.4762  0.2433
  786POPS   D2A10570   5.641   9.239   6.762  0.0006  0.3572  0.0212
  786POPS   C3A10571   5.414   8.833   6.919 -0.2696  0.1874 -0.1274
  786POPS   C4A10572   5.272   8.530   7.051 -0.2304  0.2058  0.2973
  786POPS   C1B10573   6.086   9.859   6.782 -0.1345  0.0190 -0.1729
  786POPS   C2B10574   5.931   9.554   7.075 -0.1308  0.0974 -0.3200
  786POPS   C3B10575   5.936   9.445   7.522  0.0177  0.1556 -0.1559
  786POPS   C4B10576   5.902   9.152   7.808  0.1329  0.1073 -0.0364
  787POPS   CNO10577  16.278  11.108   5.344  0.0346  0.2623 -0.1516
  787POPS   PO410578  16.559  11.114   5.636 -0.0422  0.2395  0.0951
  787POPS   GL110579  16.557  11.106   6.081 -0.0094  0.3730 -0.0994
  787POPS   GL210580  16.459  10.752   5.937  0.0952  0.3328 -0.0748
  787POPS   C1A10581  16.663  11.227   6.591  0.0266 -0.1859 -0.0010
  787POPS   D2A10582  16.739  11.304   7.047  0.0246 -0.3968 -0.0234
  787POPS   C3A10583  17.038  11.310   7.272  0.2894 -0.0331 -0.2108
  787POPS   C4A10584  17.165  11.414   7.634  0.0410 -0.0491 -0.1196
  787POPS   C1B10585  16.323  10.509   6.366 -0.2760  0.2569 -0.0682
  787POPS   C2B10586  16.197  10.111   6.420  0.0111 -0.0464 -0.1570
  787POPS   C3B10587  16.362   9.852   6.748  0.0992 -0.0440 -0.1857
  787POPS   C4B10588  16.343   9.585   7.048  0.2193 -0.3356  0.2224
  788POPS   CNO10589  18.302   1.964   5.499 -0.1416  0.1315  0.3595
  788POPS   PO410590  18.509   2.232   5.787  0.1191 -0.0536  0.3272
  788POPS   GL110591  18.379   2.178   6.333  0.2713  0.2746  0.2471
  788POPS   GL210592  17.995   2.172   6.294 -0.0747  0.2164 -0.2442
  788POPS   C1A10593  18.413   2.110   6.813 -0.3251 -0.0077  0.2242
  788POPS   D2A10594  18.266   2.387   7.143  0.0781  0.2186 -0.1679
  788POPS   C3A10595  18.324   2.429   7.547 -0.1684  0.0586 -0.3569
  788POPS   C4A10596  18.573   2.664   7.911 -0.2182  0.0564  0.1963
  788POPS   C1B10597  18.000   2.339   6.678  0.1155  0.0923 -0.0845
  788POPS   C2B10598  17.774   2.495   7.007 -0.0581  0.0210 -0.3264
  788POPS   C3B10599  17.891   2.781   7.294  0.0227  0.6164  0.1312
  788POPS   C4B10600  18.072   2.915   7.719 -0.2178  0.1887  0.1200
  789POPS   CNO10601   8.446  16.514   5.044 -0.2186 -0.1007 -0.2865
  789POPS   PO410602   8.607  16.196   5.325  0.0884 -0.0167 -0.0528
  789POPS   GL110603   8.590  16.114   5.722 -0.3159  0.4281  0.0261
  789POPS   GL210604   8.486  16.324   5.870 -0.2599  0.0770 -0.3070
  789POPS   C1A10605   8.540  15.901   6.150  0.0487  0.0466 -0.0400
  789POPS   D2A10606   8.378  15.944   6.535 -0.0975  0.1426  0.1562
  789POPS   C3A10607   8.460  16.260   6.719 -0.1036 -0.0045  0.2532
  789POPS   C4A10608   8.160  16.423   6.801 -0.0964  0.1735  0.0508
  789POPS   C1B10609   8.419  16.554   6.324  0.1682  0.3807 -0.2178
  789POPS   C2B10610   8.242  16.935   6.540 -0.1335  0.2693  0.0328
  789POPS   C3B10611   8.213  17.245   6.766 -0.4637 -0.2230  0.2304
  789POPS   C4B10612   8.068  17.327   7.073  0.1624 -0.1471  0.2718
  790POPS   CNO10613  17.042   1.306   6.230 -0.1082  0.1521 -0.0419
  790POPS   PO410614  16.687   1.277   6.206 -0.0532  0.1693  0.3057
  790POPS   GL110615  16.764   1.464   6.599  0.4031  0.2476  0.0818
  790POPS   GL210616  16.422   1.454   6.611  0.2252 -0.0104 -0.0344
  790POPS   C1A10617  16.970   1.487   6.994  0.2367 -0.0497 -0.1922
  790POPS   D2A10618  16.972   1.776   7.303  0.3357 -0.1653  0.0657
  790POPS   C3A10619  17.110   1.638   7.720 -0.0553  0.1247 -0.1909
  790POPS   C4A10620  17.408   1.570   8.061  0.2517  0.1024  0.0485
  790POPS   C1B10621  16.409   1.505   7.054 -0.1298 -0.1211  0.5168
  790POPS   C2B10622  16.511   1.651   7.459  0.0688  0.4061 -0.1161
  790POPS   C3B10623  16.669   1.917   7.748 -0.0504  0.0198  0.0759
  790POPS   C4B10624  16.751   1.863   8.111  0.0780  0.1565 -0.1729
  791POPS   CNO10625   7.003  13.080   6.003  0.0260  0.1666 -0.0693
  791POPS   PO410626   6.688  12.879   5.953 -0.2553 -0.0876  0.0036
  791POPS   GL110627   6.535  13.096   6.318 -0.2236 -0.1973 -0.1952
  791POPS   GL210628   6.340  12.791   6.347 -0.0981 -0.2040  0.2000
  791POPS   C1A10629   6.465  13.321   6.723 -0.0398 -0.0854 -0.0794
  791POPS   D2A10630   6.457  13.493   7.171 -0.0564  0.1186  0.1542
  791POPS   C3A10631   6.434  13.221   7.601 -0.0058 -0.1547 -0.1181
  791POPS   C4A10632   6.393  13.168   8.017  0.0054 -0.0601  0.3028
  791POPS   C1B10633   6.263  12.854   6.719  0.0610  0.0412 -0.0353
  791POPS   C2B10634   6.321  12.895   7.003  0.0124 -0.2682 -0.0040
  791POPS   C3B10635   6.428  12.787   7.374  0.4885  0.1839 -0.0754
  791POPS   C4B10636   6.324  12.771   7.738 -0.1343 -0.0188  0.1778
  792POPS   CNO10637  14.676  12.844   6.224 -0.1591  0.1314  0.1210
  792POPS   PO410638  14.522  13.045   5.885  0.0538  0.5828  0.1568
  792POPS   GL110639  14.667  13.469   6.261  0.0627 -0.2333 -0.1482
  792POPS   GL210640  14.346  13.558   6.164 -0.0635 -0.1115  0.0006
  792POPS   C1A10641  14.838  13.727   6.483 -0.3217 -0.3729 -0.0334
  792POPS   D2A10642  14.951  13.939   6.998 -0.1615 -0.0544  0.0463
  792POPS   C3A10643  15.248  13.798   7.218 -0.0549  0.3335  0.1899
  792POPS   C4A10644  15.652  13.674   7.050 -0.1066  0.2357  0.1973
  792POPS   C1B10645  14.189  13.685   6.465  0.0359 -0.0197  0.1269
  792POPS   C2B10646  14.257  13.747   6.864  0.0694  0.1417 -0.2892
  792POPS   C3B10647  14.559  13.636   7.163  0.0947 -0.3814 -0.1768
  792POPS   C4B10648  14.878  13.451   7.250 -0.0213  0.1897 -0.0469
  793POPS   CNO10649  10.481  16.609   5.208 -0.1573 -0.4749  0.1087
  793POPS   PO410650  10.238  16.581   5.555  0.1877 -0.1418 -0.3013
  793POPS   GL110651  10.374  16.776   5.983 -0.0193 -0.0197 -0.2035
  793POPS   GL210652  10.287  16.515   6.071  0.0093  0.2591  0.1847
  793POPS   C1A10653  10.724  16.853   6.324  0.0057  0.2319  0.0126
  793POPS   D2A10654  11.008  16.696   6.607  0.1839 -0.3820 -0.1191
  793POPS   C3A10655  10.964  16.700   7.113  0.2177 -0.1723 -0.2444
  793POPS   C4A10656  10.805  16.949   7.321 -0.0267 -0.1865  0.1770
  793POPS   C1B10657  10.159  16.667   6.452 -0.0287  0.4039 -0.0053
  793POPS   C2B10658   9.826  16.675   6.703 -0.3111 -0.1023  0.0863
  793POPS   C3B10659   9.415  16.737   6.852  0.2422 -0.1167  0.1646
  793POPS   C4B10660   9.054  16.920   7.006 -0.0876  0.0261 -0.0105
  794POPS   CNO10661   7.419  18.732   5.209 -0.2010 -0.0706  0.2356
  794POPS   PO410662   7.720  18.429   5.553 -0.4198  0.0711  0.1165
  794POPS   GL110663   7.695  18.450   5.974 -0.0117  0.1718  0.1509
  794POPS   GL210664   7.935  18.460   6.116 -0.3277  0.3660 -0.0466
  794POPS   C1A10665   7.460  18.320   6.326  0.1836 -0.0253 -0.0061
  794POPS   D2A10666   7.491  18.295   6.682  0.1969 -0.2483  0.0908
  794POPS   C3A10667   7.363  18.439   7.062  0.0860  0.0697 -0.2609
  794POPS   C4A10668   7.291  18.424   7.493 -0.0133 -0.0497 -0.0642
  794POPS   C1B10669   7.945  18.356   6.460 -0.1036 -0.0829 -0.1173
  794POPS   C2B10670   7.890  18.139   6.921 -0.1923 -0.2605  0.0220
  794POPS   C3B10671   7.828  18.251   7.289  0.0928 -0.2441  0.0312
  794POPS   C4B10672   7.863  18.157   7.627  0.0141 -0.0970 -0.2684
  795POPS   CNO10673   4.523   1.832   5.241 -0.3556 -0.2211 -0.2115
  795POPS   PO410674   4.575   2.074   5.360  0.1181  0.0973  0.0127
  795POPS   GL110675   4.444   2.063   5.729  0.0977 -0.0407  0.1993
  795POPS   GL210676   4.723   1.995   5.808 -0.0087 -0.2269 -0.0141
  795POPS   C1A10677   4.359   1.917   6.084  0.0634  0.3176 -0.3649
  795POPS   D2A10678   4.482   1.666   6.464 -0.1257  0.0575 -0.1178
  795POPS   C3A10679   4.441   1.804   6.852 -0.0772 -0.0191  0.0888
  795POPS   C4A10680   4.432   1.602   7.251  0.0385 -0.2579  0.1525
  795POPS   C1B10681   4.730   2.335   6.183  0.0163  0.1994 -0.0134
  795POPS   C2B10682   4.559   2.439   6.634  0.1184  0.0417 -0.1586
  795POPS   C3B10683   4.510   2.257   7.094 -0.1238  0.3832  0.0628
  795POPS   C4B10684   4.689   1.980   7.458  0.1218 -0.1732  0.1078
  796POPS   CNO10685  10.137  11.991   5.816  0.1301  0.1249  0.1480
  796POPS   PO410686   9.843  12.007   6.220 -0.2565  0.1566  0.0185
  796POPS   GL110687   9.703  11.919   6.528  0.2557 -0.1832 -0.0975
  796POPS   GL210688   9.830  11.763   6.693 -0.2035  0.0609  0.4665
  796POPS   C1A10689   9.666  12.127   6.997 -0.1562  0.0941 -0.1618
  796POPS   D2A10690   9.905  12.480   7.070  0.1287 -0.0309 -0.2181
  796POPS   C3A10691   9.815  12.512   7.602 -0.1608  0.0339  0.1589
  796POPS   C4A10692  10.154  12.519   7.843 -0.4379  0.0266 -0.1778
  796POPS   C1B10693   9.961  11.677   7.053  0.1065 -0.0745  0.2931
  796POPS   C2B10694   9.727  11.800   7.428 -0.1209 -0.2569  0.2289
  796POPS   C3B10695   9.450  12.113   7.534 -0.1303  0.2925  0.3663
  796POPS   C4B10696   9.304  12.361   7.828 -0.1130 -0.0719 -0.0982
  797POPS   CNO10697   3.041   5.763   5.366 -0.1966  0.0834  0.1935
  797POPS   PO410698   2.688   5.437   5.418 -0.0417 -0.1085  0.0143
  797POPS   GL110699   2.316   5.424   5.694  0.1184  0.3212 -0.1294
  797POPS   GL210700   2.500   5.487   5.942  0.0562 -0.3002 -0.0545
  797POPS   C1A10701   2.120   5.178   5.985 -0.0940 -0.3903  0.2540
  797POPS   D2A10702   2.146   4.764   6.225 -0.0799  0.0472  0.0212
  797POPS   C3A10703   1.900   4.619   6.420  0.2472  0.0543 -0.3117
  797POPS   C4A10704   1.593   4.790   6.655 -0.2656 -0.1191  0.1510
  797POPS   C1B10705   2.337   5.580   6.332 -0.1840 -0.0587  0.2412
  797POPS   C2B10706   1.901   5.727   6.472 -0.0391  0.3233 -0.4082
  797POPS   C3B10707   1.700   5.985   6.880 -0.0788 -0.0920 -0.1951
  797POPS   C4B10708   1.535   6.038   7.174  0.2265 -0.4209  0.0893
  798POPS   CNO10709  15.947  13.393   6.176 -0.0619  0.0059 -0.0345
  798POPS   PO410710  16.382  13.414   6.021  0.1047  0.2005  0.2554
  798POPS   GL110711  16.399  13.208   6.370 -0.0564  0.0355 -0.0687
  798POPS   GL210712  16.754  13.273   6.443 -0.3084  0.1358 -0.0163
  798POPS   C1A10713  16.351  13.114   6.817  0.6200  0.0517  0.3140
  798POPS   D2A10714  16.163  12.790   7.051 -0.1633 -0.0524  0.0167
  798POPS   C3A10715  15.827  12.584   7.001 -0.0479  0.2634  0.1033
  798POPS   C4A10716  15.662  12.247   7.139  0.2851 -0.2301  0.0526
  798POPS   C1B10717  16.814  13.323   6.839 -0.0734  0.4234  0.0725
  798POPS   C2B10718  16.645  13.418   7.170 -0.1843  0.0263  0.0951
  798POPS   C3B10719  16.927  13.488   7.591 -0.2034 -0.2623  0.1426
  798POPS   C4B10720  17.288  13.525   7.763 -0.1117  0.3432 -0.1695
  799POPS   CNO10721   2.696   6.365   5.393 -0.0899 -0.1551 -0.0837
  799POPS   PO410722   2.530   6.693   5.736  0.0227 -0.0326 -0.2456
  799POPS   GL110723   2.370   6.377   5.822 -0.0909 -0.1504 -0.2598
  799POPS   GL210724   2.137   6.293   5.621  0.0061  0.1093 -0.2681
  799POPS   C1A10725   2.504   6.134   6.179  0.0630 -0.4566 -0.0031
  799POPS   D2A10726   2.685   6.162   6.624 -0.0843 -0.4802 -0.1838
  799POPS   C3A10727   2.927   6.451   6.804  0.1934 -0.0473 -0.3394
  799POPS   C4A10728   3.129   6.524   7.141 -0.1187  0.3622 -0.0584
  799POPS   C1B10729   1.832   6.467   5.916 -0.0527  0.2020 -0.0418
  799POPS   C2B10730   1.680   6.506   6.421  0.0965 -0.2655  0.2766
  799POPS   C3B10731   1.789   6.429   6.712  0.2306  0.2627  0.2863
  799POPS   C4B10732   1.888   6.411   7.044  0.1013 -0.0175 -0.3677
  800POPS   CNO10733  14.405   4.187   5.171 -0.0981  0.2463 -0.1948
  800POPS   PO410734  14.602   4.569   5.343 -0.1254  0.1457  0.0734
  800POPS   GL110735  14.759   4.554   5.768 -0.3350  0.1759  0.2876
  800POPS   GL210736  15.086   4.672   5.757  0.0044 -0.1225 -0.1123
  800POPS   C1A10737  14.556   4.561   6.122  0.3816  0.1422  0.2305
  800POPS   D2A10738  14.451   4.751   6.403  0.0830  0.0384 -0.2175
  800POPS   C3A10739  14.611   4.818   6.799 -0.0173  0.2420 -0.1019
  800POPS   C4A10740  14.905   5.045   7.106  0.4201  0.0321  0.1254
  800POPS   C1B10741  15.062   4.702   6.207 -0.1963  0.1487 -0.1472
  800POPS   C2B10742  15.119   4.716   6.587  0.0364 -0.2096  0.2773
  800POPS   C3B10743  15.388   4.738   6.964 -0.3545 -0.3022  0.0518
  800POPS   C4B10744  15.419   4.617   7.384  0.0191  0.3685  0.0963
  801POPS   CNO10745   9.321   0.570   5.560 -0.1430  0.1142  0.2978
  801POPS   PO410746   8.901   0.709   5.694 -0.0125 -0.3733  0.2471
  801POPS   GL110747   8.981   0.586   6.057 -0.2562  0.1938  0.1116
  801POPS   GL210748   9.207   0.430   6.081 -0.0444 -0.1164 -0.0666
  801POPS   C1A10749   8.842   0.561   6.460 -0.0397 -0.0866 -0.1773
  801POPS   D2A10750   9.038   0.559   6.847 -0.0923  0.0422  0.2579
  801POPS   C3A10751   8.956   0.352   7.248 -0.0600 -0.0132  0.3839
  801POPS   C4A10752   8.541   0.411   7.562 -0.1300  0.1243 -0.1753
  801POPS   C1B10753   9.409   0.514   6.519  0.0532 -0.1288  0.0217
  801POPS   C2B10754   9.406   0.303   6.969  0.0696  0.1626 -0.0755
  801POPS   C3B10755   9.367   0.042   7.263 -0.1687 -0.0896  0.2593
  801POPS   C4B10756   9.362  -0.224   7.702 -0.1796 -0.1741  0.2439
  802POPS   CNO10757  11.825  10.305   6.451 -0.2594 -0.0297 -0.1507
  802POPS   PO410758  12.178  10.586   6.668  0.3597 -0.2412 -0.2083
  802POPS   GL110759  12.457  10.557   7.013 -0.1998 -0.0266  0.2433
  802POPS   GL210760  12.723  10.420   6.993 -0.2405 -0.2093  0.0756
  802POPS   C1A10761  12.662  10.482   7.490  0.0539 -0.0174  0.0493
  802POPS   D2A10762  12.528  10.355   7.846  0.0540 -0.2233  0.0509
  802POPS   C3A10763  12.873  10.397   8.157  0.0695  0.0041 -0.3058
  802POPS   C4A10764  12.796  10.578   8.602  0.0951  0.1681 -0.4676
  802POPS   C1B10765  12.833  10.841   7.190 -0.0150  0.0989  0.4178
  802POPS   C2B10766  12.781  10.932   7.564  0.0923 -0.2455 -0.1009
  802POPS   C3B10767  12.714  10.806   7.911  0.0056 -0.2006  0.1366
  802POPS   C4B10768  12.574  10.779   8.220  0.1634 -0.2274 -0.1767
  803POPS   CNO10769  18.384  12.866   5.671  0.1556 -0.3930 -0.0910
  803POPS   PO410770  18.654  13.156   5.885 -0.1679  0.0696  0.2572
  803POPS   GL110771  18.566  13.056   6.412 -0.0265 -0.1674  0.0953
  803POPS   GL210772  18.667  12.779   6.522  0.2797  0.0603 -0.2079
  803POPS   C1A10773  18.451  13.125   6.882 -0.0048 -0.2439  0.0132
  803POPS   D2A10774  18.623  13.167   7.166  0.2315 -0.1437 -0.2375
  803POPS   C3A10775  18.982  13.221   7.472  0.1906  0.0911 -0.0222
  803POPS   C4A10776  19.273  13.294   7.802 -0.2888  0.0924 -0.0137
  803POPS   C1B10777  18.935  12.941   6.728  0.0528 -0.2893  0.0264
  803POPS   C2B10778  19.337  13.179   6.982 -0.1464  0.0010  0.1923
  803POPS   C3B10779  19.504  13.379   7.267  0.0406  0.0960 -0.0039
  803POPS   C4B10780  19.609  13.676   7.704 -0.0207 -0.1312 -0.1835
  804POPS   CNO10781   4.477   3.943   5.669 -0.1242  0.0337 -0.0031
  804POPS   PO410782   4.384   3.990   6.116  0.0301 -0.3052 -0.1307
  804POPS   GL110783   4.079   4.135   6.304  0.0920  0.1733 -0.1555
  804POPS   GL210784   4.147   4.490   6.375 -0.0138  0.2765  0.0748
  804POPS   C1A10785   3.804   4.161   6.618 -0.0707  0.0642  0.1427
  804POPS   D2A10786   3.818   4.366   6.881 -0.1114  0.2972 -0.0365
  804POPS   C3A10787   3.621   4.483   7.247  0.0819  0.2011  0.2047
  804POPS   C4A10788   3.901   4.914   7.459  0.0519  0.2661 -0.2691
  804POPS   C1B10789   4.088   4.761   6.659  0.1698  0.1122 -0.0667
  804POPS   C2B10790   3.777   4.912   6.967  0.1769 -0.0247  0.1083
  804POPS   C3B10791   3.483   5.030   7.270 -0.3428  0.2691  0.0020
  804POPS   C4B10792   3.140   5.128   7.481  0.1003  0.0098 -0.0406
  805POPS   CNO10793  11.469   9.536   6.667 -0.1664 -0.2445 -0.1944
  805POPS   PO410794  11.450  10.012   6.430 -0.2877  0.0113  0.1443
  805POPS   GL110795  11.537  10.136   6.820 -0.3253  0.0564  0.0243
  805POPS   GL210796  11.721  10.428   6.945 -0.2432 -0.1193 -0.2864
  805POPS   C1A10797  11.654   9.952   7.155 -0.0385 -0.4957 -0.3225
  805POPS   D2A10798  11.944   9.802   7.222 -0.1202 -0.0563 -0.4384
  805POPS   C3A10799  12.004   9.922   7.753  0.2089  0.0248  0.1558
  805POPS   C4A10800  12.183  10.095   8.061  0.1127 -0.0178 -0.1430
  805POPS   C1B10801  11.918  10.331   7.458  0.0618 -0.1535 -0.2192
  805POPS   C2B10802  11.728  10.332   7.829  0.2281  0.4299  0.0516
  805POPS   C3B10803  11.737  10.348   8.235 -0.0218  0.2899  0.0441
  805POPS   C4B10804  11.894  10.165   8.606  0.1076  0.2172 -0.0171
  806POPS   CNO10805  14.919   2.395   5.899 -0.0618 -0.0319  0.0269
  806POPS   PO410806  15.075   2.818   6.133 -0.0561 -0.0835 -0.0013
  806POPS   GL110807  14.824   3.094   6.305  0.4146 -0.5380  0.2616
  806POPS   GL210808  14.577   3.106   6.412 -0.1167 -0.1012 -0.0491
  806POPS   C1A10809  14.951   3.438   6.533 -0.1119  0.0079  0.0518
  806POPS   D2A10810  14.762   3.847   6.644 -0.1337 -0.1226 -0.2109
  806POPS   C3A10811  14.891   4.133   7.041 -0.0466  0.2673  0.0278
  806POPS   C4A10812  14.932   4.579   7.079  0.0534  0.0217  0.1758
  806POPS   C1B10813  14.412   3.247   6.804  0.0682  0.0142  0.1910
  806POPS   C2B10814  14.181   3.232   7.222 -0.1524 -0.0115  0.4680
  806POPS   C3B10815  13.925   3.338   7.584  0.2497  0.1676 -0.1229
  806POPS   C4B10816  13.851   3.410   7.979 -0.0906 -0.1080 -0.0578
  807POPS   CNO10817  17.315  18.297   6.276 -0.2615  0.0628 -0.2553
  807POPS   PO410818  17.701  18.352   6.113  0.0601  0.0873  0.0461
  807POPS   GL110819  18.006  18.629   6.457  0.0697  0.0225 -0.2054
  807POPS   GL210820  17.995  19.025   6.430 -0.0359  0.1775 -0.1240
  807POPS   C1A10821  18.285  18.568   6.872 -0.1150  0.2417 -0.1820
  807POPS   D2A10822  18.478  18.241   7.161  0.2857  0.1417 -0.0298
  807POPS   C3A10823  18.357  18.455   7.530  0.2546 -0.0654  0.0231
  807POPS   C4A10824  18.213  18.319   7.865 -0.0208 -0.0515 -0.1310
  807POPS   C1B10825  17.951  19.087   6.959 -0.2739  0.2043 -0.2083
  807POPS   C2B10826  18.034  18.796   7.252 -0.2969  0.1272  0.1452
  807POPS   C3B10827  17.920  18.746   7.642 -0.0569 -0.0394  0.0201
  807POPS   C4B10828  17.589  18.862   7.830 -0.0215 -0.0414  0.3393
  808POPS   CNO10829  14.650  16.675   5.927 -0.0372 -0.0094 -0.1420
  808POPS   PO410830  14.784  16.217   5.797  0.0930  0.0549 -0.1963
  808POPS   GL110831  14.446  16.214   6.169  0.1847 -0.0607  0.0252
  808POPS   GL210832  14.400  15.845   6.096  0.1043 -0.0014  0.0872
  808POPS   C1A10833  14.325  16.029   6.551 -0.0781 -0.1518  0.1702
  808POPS   D2A10834  13.812  16.028   6.768  0.1420  0.3181 -0.0462
  808POPS   C3A10835  13.672  15.950   7.162  0.0844  0.0004  0.0018
  808POPS   C4A10836  13.757  15.918   7.521 -0.0775  0.0401  0.0905
  808POPS   C1B10837  14.635  15.581   6.313  0.3908 -0.1621 -0.1825
  808POPS   C2B10838  14.774  15.700   6.684 -0.3900  0.0894  0.0766
  808POPS   C3B10839  15.207  15.835   6.799  0.1093  0.0320  0.4437
  808POPS   C4B10840  15.374  15.943   7.262 -0.0326 -0.0387  0.1461
  809POPS   CNO10841  12.773  16.004   5.532  0.0294 -0.2504  0.2019
  809POPS   PO410842  12.490  15.802   5.786 -0.2569  0.2676  0.1194
  809POPS   GL110843  12.551  15.753   6.280  0.0837 -0.2198 -0.4035
  809POPS   GL210844  12.858  15.666   6.244 -0.0509 -0.1115 -0.0905
  809POPS   C1A10845  12.301  15.626   6.758  0.0262  0.0994 -0.0841
  809POPS   D2A10846  11.938  15.703   7.029 -0.1516  0.2352 -0.0203
  809POPS   C3A10847  11.849  15.477   7.380  0.0090  0.1176  0.0740
  809POPS   C4A10848  11.903  15.493   7.744 -0.1613  0.1509 -0.3246
  809POPS   C1B10849  12.871  15.595   6.677  0.1682  0.0872  0.0444
  809POPS   C2B10850  12.723  15.888   7.010 -0.0157  0.1406  0.4530
  809POPS   C3B10851  12.424  16.083   7.234 -0.1637  0.2177 -0.0780
  809POPS   C4B10852  12.045  15.977   7.491  0.3679 -0.0505  0.1894
  810POPS   CNO10853  12.337  18.369   5.574  0.2399 -0.0906  0.1446
  810POPS   PO410854  12.347  18.860   5.567  0.0051 -0.0829  0.2779
  810POPS   GL110855  12.354  18.856   6.005  0.1724 -0.0197  0.1786
  810POPS   GL210856  12.569  18.869   6.242  0.2456 -0.2280  0.1028
  810POPS   C1A10857  12.126  18.570   6.200  0.1195 -0.1208 -0.1415
  810POPS   D2A10858  11.979  18.239   6.490 -0.1924  0.0029  0.1508
  810POPS   C3A10859  11.853  18.405   6.879 -0.1850 -0.0678  0.4719
  810POPS   C4A10860  11.633  18.762   7.107  0.1537 -0.3789 -0.0842
  810POPS   C1B10861  12.217  19.004   6.495 -0.1606  0.1601 -0.0869
  810POPS   C2B10862  12.026  18.849   6.871 -0.0457  0.0119  0.3533
  810POPS   C3B10863  12.095  18.883   7.268 -0.2055 -0.2013  0.2546
  810POPS   C4B10864  12.309  18.707   7.625 -0.0463 -0.3338 -0.0332
  811POPS   CNO10865   8.057   9.520   6.061  0.0467  0.1084  0.2554
  811POPS   PO410866   8.280   9.215   6.169 -0.0651  0.1382  0.1744
  811POPS   GL110867   8.096   9.362   6.565 -0.1010 -0.2475 -0.1753
  811POPS   GL210868   8.250   9.619   6.513  0.0055  0.0102 -0.0582
  811POPS   C1A10869   8.153   9.453   7.009 -0.0137 -0.1929  0.1549
  811POPS   D2A10870   8.043   9.440   7.343  0.3397  0.0391  0.0534
  811POPS   C3A10871   8.003   9.164   7.602  0.0104 -0.1062 -0.1088
  811POPS   C4A10872   8.012   8.825   7.948  0.2619 -0.0007  0.2917
  811POPS   C1B10873   8.313   9.893   6.848 -0.1333 -0.0840  0.1257
  811POPS   C2B10874   8.331   9.896   7.202  0.1362  0.1191 -0.0246
  811POPS   C3B10875   8.608  10.053   7.617 -0.2908  0.1412  0.2389
  811POPS   C4B10876   8.775   9.898   7.988 -0.2786  0.0977 -0.1540
  812YOPS   CNO10877  17.333  12.243   5.912 -0.2034 -0.1494 -0.3514
  812YOPS   PO410878  17.270  12.616   5.699  0.0291 -0.0981 -0.1254
  812YOPS   GL110879  17.133  12.762   6.099 -0.2009 -0.0980  0.2933
  812YOPS   GL210880  17.274  13.079   6.260 -0.0807 -0.3695  0.1077
  812YOPS   C1A10881  17.193  12.452   6.402  0.1862  0.0100  0.0065
  812YOPS   D2A10882  17.108  12.267   6.746  0.1631  0.4285  0.1473
  812YOPS   C3A10883  16.907  11.764   6.760 -0.1368  0.0149  0.2964
  812YOPS   C4A10884  16.592  11.720   6.395  0.0031  0.5228 -0.2792
  812YOPS   C1B10885  17.143  12.952   6.688  0.0185 -0.1501 -0.0917
  812YOPS   C2B10886  17.137  13.070   7.115  0.2154 -0.0924 -0.1353
  812YOPS   D3B10887  17.215  12.926   7.594 -0.2283 -0.1609 -0.1847
  812YOPS   C4B10888  16.962  13.097   7.962  0.1529  0.0805 -0.0584
  813YOPS   CNO10889  13.014   7.649   5.845 -0.1622  0.2049  0.1100
  813YOPS   PO410890  13.400   7.670   6.077  0.2627  0.4619 -0.2023
  813YOPS   GL110891  13.363   7.532   6.360  0.0764  0.0479 -0.1414
  813YOPS   GL210892  13.113   7.369   6.447 -0.1080 -0.3915 -0.2804
  813YOPS   C1A10893  13.554   7.495   6.726 -0.0405  0.0578  0.1163
  813YOPS   D2A10894  13.499   7.469   7.211  0.1205 -0.0415  0.1389
  813YOPS   C3A10895  13.644   7.379   7.689 -0.3505  0.1445 -0.1124
  813YOPS   C4A10896  13.715   7.629   8.112  0.0840  0.1424 -0.0749
  813YOPS   C1B10897  13.091   7.341   6.969 -0.1092 -0.4002  0.1161
  813YOPS   C2B10898  12.965   7.478   7.348  0.3999 -0.2007  0.2573
  813YOPS   D3B10899  12.921   7.641   7.762  0.2021  0.0136  0.0065
  813YOPS   C4B10900  13.353   7.738   7.700  0.0271 -0.2927  0.1635
  814YOPS   CNO10901   5.748   5.388   5.224  0.3225  0.2172 -0.1069
  814YOPS   PO410902   6.050   5.567   5.618  0.0610  0.1103 -0.1896
  814YOPS   GL110903   5.879   5.761   5.975  0.0168 -0.2782  0.0254
  814YOPS   GL210904   6.072   5.875   6.042 -0.1332  0.2702 -0.0686
  814YOPS   C1A10905   5.906   5.491   6.432 -0.0902 -0.1467 -0.4438
  814YOPS   D2A10906   5.613   5.502   6.781  0.5115  0.2034  0.0307
  814YOPS   C3A10907   5.202   5.503   7.100 -0.0582  0.3084 -0.0640
  814YOPS   C4A10908   5.398   5.161   7.364  0.1650 -0.0933 -0.1822
  814YOPS   C1B10909   6.373   5.910   6.364 -0.0702  0.0199 -0.1316
  814YOPS   C2B10910   6.098   5.759   6.798  0.2049 -0.1731  0.2698
  814YOPS   D3B10911   5.888   5.679   7.229 -0.2697 -0.0797  0.2593
  814YOPS   C4B10912   5.509   5.864   7.293 -0.1949  0.0886  0.1296
  815YOPS   CNO10913  14.569   6.435   5.115 -0.0202 -0.0326  0.0410
  815YOPS   PO410914  14.946   6.363   5.314 -0.0231 -0.0201 -0.0515
  815YOPS   GL110915  15.232   6.662   5.579  0.1524 -0.0183  0.0942
  815YOPS   GL210916  15.686   6.646   5.527 -0.3134  0.2361 -0.0571
  815YOPS   C1A10917  15.235   6.934   6.023 -0.1669 -0.0996 -0.2294
  815YOPS   D2A10918  15.343   7.026   6.504 -0.1912 -0.1517  0.2440
  815YOPS   C3A10919  15.510   6.929   7.010 -0.2762 -0.2425  0.1925
  815YOPS   C4A10920  15.656   6.881   7.382  0.1351  0.1460 -0.0475
  815YOPS   C1B10921  15.805   6.341   5.735  0.0140 -0.1328  0.1658
  815YOPS   C2B10922  15.949   6.154   6.111 -0.0687 -0.4090  0.1412
  815YOPS   D3B10923  15.975   6.113   6.531  0.0338 -0.3734 -0.0195
  815YOPS   C4B10924  16.295   6.098   6.773 -0.0724 -0.2064 -0.0031
  816YOPS   CNO10925   4.720   5.396   5.363  0.1338  0.0403  0.0803
  816YOPS   PO410926   4.409   5.420   5.486  0.3346 -0.2380 -0.2771
  816YOPS   GL110927   4.465   5.247   5.885 -0.3011  0.0059 -0.0456
  816YOPS   GL210928   4.772   5.107   5.765 -0.1906  0.1100  0.1199
  816YOPS   C1A10929   4.560   5.360   6.259  0.1726 -0.3230 -0.2267
  816YOPS   D2A10930   4.477   5.674   6.570  0.1519 -0.3255  0.0351
  816YOPS   C3A10931   4.532   6.133   6.580 -0.3405 -0.4363  0.1823
  816YOPS   C4A10932   4.625   6.359   6.062  0.0105 -0.3387 -0.0235
  816YOPS   C1B10933   4.860   4.930   6.095 -0.0923 -0.1495 -0.0808
  816YOPS   C2B10934   4.614   4.645   6.398  0.0531 -0.1387  0.3295
  816YOPS   D3B10935   4.524   4.169   6.502  0.1990 -0.2610  0.2772
  816YOPS   C4B10936   4.312   4.256   6.807 -0.0387 -0.2043 -0.0671
  817YOPS   CNO10937  17.993   4.020   5.636  0.0165  0.0373  0.0741
  817YOPS   PO410938  17.783   3.678   5.680  0.0721  0.0655 -0.0399
  817YOPS   GL110939  18.089   3.743   6.069 -0.1339  0.0267  0.0899
  817YOPS   GL210940  17.966   4.006   6.235  0.2361 -0.0438 -0.1491
  817YOPS   C1A10941  18.401   3.752   6.397 -0.2027 -0.1666 -0.0640
  817YOPS   D2A10942  18.703   3.765   6.764  0.1125 -0.1336  0.0980
  817YOPS   C3A10943  18.789   4.033   7.122  0.1792  0.1420  0.0187
  817YOPS   C4A10944  19.132   3.970   7.363  0.0750  0.0279  0.3102
  817YOPS   C1B10945  17.777   4.210   6.552 -0.0043  0.2791  0.3613
  817YOPS   C2B10946  17.920   4.404   6.969 -0.2170 -0.0725 -0.3484
  817YOPS   D3B10947  17.841   4.400   7.347  0.1940 -0.2370 -0.0253
  817YOPS   C4B10948  17.514   4.503   7.666  0.2577  0.2271 -0.4174
  818YOPS   CNO10949   5.959   8.685   5.797 -0.0213 -0.2218  0.1848
  818YOPS   PO410950   6.215   8.421   5.886 -0.3696 -0.0524 -0.0112
  818YOPS   GL110951   6.391   8.359   6.417  0.2521  0.1198 -0.0109
  818YOPS   GL210952   6.314   8.649   6.417  0.3134 -0.2767  0.2878
  818YOPS   C1A10953   6.379   8.485   6.900 -0.2152  0.0361  0.0839
  818YOPS   D2A10954   6.269   8.702   7.265  0.2616  0.0526  0.0767
  818YOPS   C3A10955   6.308   8.779   7.736  0.2199 -0.1504 -0.3696
  818YOPS   C4A10956   6.409   9.143   7.946 -0.3383  0.1116  0.0115
  818YOPS   C1B10957   6.165   8.963   6.806 -0.0358  0.1140  0.0993
  818YOPS   C2B10958   5.860   9.025   7.104 -0.0789 -0.1226 -0.0711
  818YOPS   D3B10959   5.514   9.225   7.307 -0.2368  0.4498 -0.1042
  818YOPS   C4B10960   5.439   9.222   7.682 -0.0460 -0.0002 -0.1410
  819YOPS   CNO10961  10.714  15.612   5.741  0.1888  0.1402 -0.1381
  819YOPS   PO410962  10.245  15.679   5.477 -0.3648  0.2694 -0.3287
  819YOPS   GL110963  10.073  15.758   5.913  0.0179 -0.1329 -0.1687
  819YOPS   GL210964   9.832  15.659   6.168 -0.1287 -0.0585  0.0884
  819YOPS   C1A10965  10.218  15.938   6.312  0.0612  0.2163 -0.2763
  819YOPS   D2A10966  10.096  16.205   6.642  0.1438  0.1841  0.3870
  819YOPS   C3A10967  10.091  16.322   7.074 -0.1478  0.0493  0.1908
  819YOPS   C4A10968  10.257  16.748   7.279 -0.0137 -0.0740 -0.0598
  819YOPS   C1B10969   9.803  15.317   6.482 -0.1446  0.0120 -0.1925
  819YOPS   C2B10970   9.787  15.264   6.920  0.2189 -0.1772 -0.1831
  819YOPS   D3B10971   9.809  15.505   7.262  0.4034  0.0317 -0.2216
  819YOPS   C4B10972  10.164  15.496   7.517  0.0046  0.1203 -0.2731
  820YOPS   CNO10973  14.839  18.290   5.977  0.5271  0.1698  0.3653
  820YOPS   PO410974  15.249  18.294   6.109 -0.0532 -0.4144  0.0773
  820YOPS   GL110975  15.451  18.040   6.435  0.0497  0.1246  0.0162
  820YOPS   GL210976  15.591  18.214   6.582  0.2731 -0.0012  0.3448
  820YOPS   C1A10977  15.230  17.813   6.817  0.3849 -0.4895  0.2958
  820YOPS   D2A10978  15.293  17.740   7.226  0.0294 -0.0621 -0.1126
  820YOPS   C3A10979  15.433  17.658   7.556 -0.0395  0.2695 -0.1927
  820YOPS   C4A10980  15.477  17.746   7.982  0.0634  0.5867  0.2354
  820YOPS   C1B10981  15.669  18.058   6.943 -0.0402 -0.0253 -0.3002
  820YOPS   C2B10982  15.801  17.970   7.280 -0.0697 -0.0777 -0.1798
  820YOPS   D3B10983  15.904  17.889   7.732 -0.1019  0.2410  0.0329
  820YOPS   C4B10984  16.003  17.521   7.872  0.0018 -0.1559 -0.1611
  821YOPS   CNO10985  10.972   1.113   5.458  0.0731 -0.1703 -0.2075
  821YOPS   PO410986  10.556   1.125   5.729  0.4385 -0.1704 -0.2054
  821YOPS   GL110987  10.604   1.372   6.146  0.0486 -0.1861 -0.1322
  821YOPS   GL210988  10.515   1.772   6.305  0.0079  0.2078 -0.2673
  821YOPS   C1A10989  10.830   1.429   6.641  0.1453  0.2410 -0.0452
  821YOPS   D2A10990  10.742   1.762   7.050 -0.3018  0.0618 -0.1670
  821YOPS   C3A10991  10.652   1.813   7.472 -0.0164  0.1589 -0.3705
  821YOPS   C4A10992  10.442   2.131   7.586 -0.1117 -0.2999  0.0331
  821YOPS   C1B10993  10.352   1.869   6.668  0.0383 -0.0197 -0.2255
  821YOPS   C2B10994  10.277   1.903   7.044  0.0870  0.2120  0.3137
  821YOPS   D3B10995  10.165   1.546   7.226 -0.3354 -0.1229  0.0088
  821YOPS   C4B10996  10.079   1.794   7.603  0.2790 -0.3826  0.0482
  822YOPS   CNO10997  11.065  14.711   5.637  0.0423  0.1206 -0.0789
  822YOPS   PO410998  10.932  15.117   5.840 -0.0428  0.0705  0.0445
  822YOPS   GL110999  10.943  15.332   6.236  0.4107 -0.0302  0.1178
  822YOPS   GL211000  10.779  15.546   6.270  0.1131  0.2159 -0.0908
  822YOPS   C1A11001  10.977  15.429   6.658  0.3693  0.1139  0.0489
  822YOPS   D2A11002  10.721  15.524   7.010  0.0969  0.0647  0.3057
  822YOPS   C3A11003  10.593  15.345   7.341 -0.2887 -0.0794 -0.4726
  822YOPS   C4A11004  10.788  15.492   7.767 -0.2985  0.0183 -0.2265
  822YOPS   C1B11005  10.641  15.856   6.565 -0.3831  0.2819  0.3424
  822YOPS   C2B11006  10.396  15.907   6.910 -0.3844 -0.2799 -0.3254
  822YOPS   D3B11007  10.208  15.850   7.126  0.1401 -0.0503 -0.2671
  822YOPS   C4B11008   9.922  15.804   6.829  0.4220 -0.1304 -0.0839
  823YOPS   CNO11009   7.962   7.671   5.433  0.0078 -0.4518  0.0006
  823YOPS   PO411010   8.144   7.442   5.848 -0.3033  0.2829  0.0889
  823YOPS   GL111011   8.059   7.513   6.207  0.1274  0.1150  0.1414
  823YOPS   GL211012   8.232   7.733   6.341 -0.1127 -0.0258  0.1693
  823YOPS   C1A11013   7.909   7.977   6.507  0.0507  0.4722 -0.0685
  823YOPS   D2A11014   7.786   8.412   6.698 -0.1028 -0.3153  0.1030
  823YOPS   C3A11015   7.684   8.487   7.173 -0.0600  0.1093 -0.1671
  823YOPS   C4A11016   7.599   8.194   7.397 -0.1960  0.1293 -0.1691
  823YOPS   C1B11017   8.156   7.601   6.781  0.2151  0.1731 -0.4039
  823YOPS   C2B11018   8.075   7.505   7.195 -0.1503  0.1776  0.0732
  823YOPS   D3B11019   7.675   7.307   7.428  0.0031 -0.1006 -0.0982
  823YOPS   C4B11020   7.745   7.404   7.945 -0.2071  0.3504  0.0535
  824YOPS   CNO11021   5.430  17.113   4.953 -0.0122 -0.3412  0.0460
  824YOPS   PO411022   5.149  16.877   5.158 -0.2952 -0.0825 -0.1289
  824YOPS   GL111023   5.239  16.624   5.485  0.1614  0.2429  0.4127
  824YOPS   GL211024   5.234  16.368   5.318  0.0654 -0.0329  0.0776
  824YOPS   C1A11025   5.231  16.615   5.979  0.0011  0.3844 -0.2747
  824YOPS   D2A11026   5.329  16.516   6.423  0.1636  0.0973  0.2842
  824YOPS   C3A11027   5.433  16.605   6.861  0.0770 -0.1374 -0.2045
  824YOPS   C4A11028   5.598  16.907   7.271 -0.0901  0.1080  0.0442
  824YOPS   C1B11029   4.977  16.301   5.727  0.0780  0.3177 -0.1013
  824YOPS   C2B11030   5.019  16.173   6.160  0.1655  0.0248  0.1490
  824YOPS   D3B11031   5.220  15.928   6.501 -0.0980 -0.0534  0.0332
  824YOPS   C4B11032   5.508  16.101   6.826  0.0483  0.2609  0.2191
  825YOPS   CNO11033   8.196   1.204   5.435  0.0073 -0.1245  0.1636
  825YOPS   PO411034   8.094   1.038   5.837 -0.1693  0.0775  0.1133
  825YOPS   GL111035   8.136   1.021   6.193  0.0940  0.4333 -0.4946
  825YOPS   GL211036   8.357   1.306   6.222 -0.0517 -0.4150 -0.0318
  825YOPS   C1A11037   7.963   1.104   6.527  0.2482 -0.2384 -0.0338
  825YOPS   D2A11038   7.822   1.091   6.923 -0.1639 -0.2035 -0.3335
  825YOPS   C3A11039   7.817   1.074   7.397 -0.0481  0.1108  0.3958
  825YOPS   C4A11040   7.612   1.014   7.845 -0.2499  0.0202 -0.0400
  825YOPS   C1B11041   8.347   1.406   6.654  0.1475  0.2065 -0.0911
  825YOPS   C2B11042   8.187   1.453   6.967  0.1330 -0.0431  0.0398
  825YOPS   D3B11043   8.139   1.586   7.443  0.0029 -0.1232  0.1930
  825YOPS   C4B11044   8.025   1.301   7.824 -0.2347  0.0976 -0.2035
  826YOPS   CNO11045  12.072  13.114   5.703  0.0407 -0.1573 -0.0782
  826YOPS   PO411046  12.372  13.042   6.081 -0.0663 -0.2618  0.0801
  826YOPS   GL111047  12.390  12.957   6.483 -0.6426  0.1151  0.1228
  826YOPS   GL211048  12.393  13.241   6.596 -0.1891 -0.2185  0.3050
  826YOPS   C1A11049  12.406  12.724   6.833 -0.2951 -0.1794 -0.0504
  826YOPS   D2A11050  12.427  12.275   6.761 -0.1247  0.1323 -0.1573
  826YOPS   C3A11051  12.302  11.926   6.863  0.0923  0.1394  0.0267
  826YOPS   C4A11052  11.992  11.896   7.153  0.1319  0.3035  0.1062
  826YOPS   C1B11053  12.592  13.327   7.017 -0.2207 -0.1432 -0.0281
  826YOPS   C2B11054  13.023  13.332   7.392 -0.2955  0.1333  0.2290
  826YOPS   D3B11055  13.369  13.423   7.739 -0.0537 -0.0039  0.3464
  826YOPS   C4B11056  13.568  13.619   8.001  0.1411 -0.1321 -0.0532
  827YOPS   CNO11057   0.318   6.424   5.306  0.1047  0.0452 -0.2665
  827YOPS   PO411058   0.516   6.100   5.369 -0.0552 -0.2189  0.1130
  827YOPS   GL111059   0.448   6.153   5.738 -0.0393 -0.0632 -0.1228
  827YOPS   GL211060   0.191   6.124   5.833  0.0944  0.2587 -0.1681
  827YOPS   C1A11061   0.539   6.035   6.170 -0.0236  0.1972 -0.0601
  827YOPS   D2A11062   0.399   6.177   6.564  0.3362  0.0970 -0.0587
  827YOPS   C3A11063   0.438   6.285   6.882 -0.0307  0.1547 -0.2565
  827YOPS   C4A11064   0.531   5.918   7.190 -0.1573  0.1614  0.1546
  827YOPS   C1B11065   0.031   6.256   6.236  0.1898  0.1177  0.0364
  827YOPS   C2B11066  -0.130   6.181   6.600  0.0912  0.0157  0.0334
  827YOPS   D3B11067   0.039   5.990   7.002 -0.0519  0.1262 -0.3046
  827YOPS   C4B11068  -0.046   5.532   7.150 -0.1425 -0.0103  0.2904
  828YOPS   CNO11069   9.536  14.304   6.405 -0.3265  0.0666  0.1714
  828YOPS   PO411070   9.266  14.438   5.902  0.2968  0.0148  0.2507
  828YOPS   GL111071   9.453  14.785   6.173  0.0450  0.2158 -0.1176
  828YOPS   GL211072   9.789  14.818   6.140  0.0750 -0.0947  0.2181
  828YOPS   C1A11073   9.313  14.724   6.514  0.0012  0.0633 -0.1666
  828YOPS   D2A11074   9.419  14.686   6.937  0.4552 -0.2053 -0.1758
  828YOPS   C3A11075   9.497  14.989   7.238 -0.0208  0.1547  0.1991
  828YOPS   C4A11076   9.322  15.343   7.222  0.3847  0.1389  0.3207
  828YOPS   C1B11077   9.898  14.844   6.634 -0.0420  0.6296  0.3568
  828YOPS   C2B11078   9.867  14.560   7.047 -0.1774  0.2572  0.1671
  828YOPS   D3B11079   9.817  14.094   7.170  0.1065  0.0989 -0.0895
  828YOPS   C4B11080   9.592  13.970   7.514 -0.0185 -0.1627 -0.0274
  829YOPS   CNO11081   6.981  14.078   5.499  0.1043 -0.0004 -0.0532
  829YOPS   PO411082   7.011  13.694   5.610  0.3133 -0.2365 -0.1740
  829YOPS   GL111083   6.777  13.921   5.907  0.3764 -0.1118 -0.1174
  829YOPS   GL211084   7.087  14.195   5.999  0.2883  0.0158 -0.2115
  829YOPS   C1A11085   6.569  13.723   6.386 -0.0817 -0.1793  0.0885
  829YOPS   D2A11086   6.414  13.842   6.730 -0.3568  0.1230 -0.0216
  829YOPS   C3A11087   6.567  14.000   7.035 -0.0660  0.1189  0.1399
  829YOPS   C4A11088   6.779  13.985   7.300 -0.2239 -0.3207  0.2642
  829YOPS   C1B11089   6.991  14.112   6.391 -0.1942 -0.1457  0.0708
  829YOPS   C2B11090   6.976  14.088   6.738 -0.0169 -0.0108 -0.0136
  829YOPS   D3B11091   6.959  14.389   6.993  0.2505 -0.0567  0.1249
  829YOPS   C4B11092   7.216  14.625   7.104 -0.0407  0.1981 -0.3656
  830YOPS   CNO11093   7.681   5.681   5.185  0.0783 -0.4589  0.2029
  830YOPS   PO411094   7.824   6.192   5.315  0.0078 -0.0806  0.0883
  830YOPS   GL111095   7.559   6.306   5.762  0.1538  0.2102 -0.0201
  830YOPS   GL211096   7.633   6.595   6.011  0.1213 -0.0744 -0.0885
  830YOPS   C1A11097   7.371   6.191   6.188  0.0489  0.0861  0.0546
  830YOPS   D2A11098   6.982   5.938   6.445  0.0021  0.3652  0.0414
  830YOPS   C3A11099   7.032   5.486   6.697 -0.0592  0.0859  0.2076
  830YOPS   C4A11100   7.138   5.212   6.382 -0.0548  0.3384  0.0180
  830YOPS   C1B11101   7.365   6.651   6.432  0.0517  0.0400  0.1052
  830YOPS   C2B11102   7.173   6.408   6.672  0.0854  0.2650 -0.1731
  830YOPS   D3B11103   6.719   6.310   6.605  0.0215  0.0199 -0.0211
  830YOPS   C4B11104   6.567   6.361   6.284  0.1243 -0.1894  0.0220
  831YOPS   CNO11105  15.623  11.923   5.749 -0.0266 -0.1499 -0.0207
  831YOPS   PO411106  15.685  11.473   5.801 -0.1339  0.1564 -0.0663
  831YOPS   GL111107  15.855  11.662   6.117  0.1494  0.2171  0.0214
  831YOPS   GL211108  16.113  11.445   6.249  0.0412 -0.0727 -0.0413
  831YOPS   C1A11109  15.701  11.769   6.477 -0.0692  0.0033  0.0032
  831YOPS   D2A11110  15.518  11.849   6.842  0.2066  0.0508 -0.0413
  831YOPS   C3A11111  15.542  11.807   7.308  0.0175  0.0838  0.2059
  831YOPS   C4A11112  15.720  12.048   7.636  0.0296 -0.0435 -0.0376
  831YOPS   C1B11113  16.204  11.497   6.715 -0.2786  0.3686 -0.2258
  831YOPS   C2B11114  16.464  11.705   6.955 -0.1451  0.0561 -0.2938
  831YOPS   D3B11115  16.700  11.709   7.419  0.1580  0.0644 -0.0755
  831YOPS   C4B11116  16.884  12.020   7.673 -0.0929 -0.0502  0.0669
  832YOPS   CNO11117  17.110   2.836   6.065  0.0373  0.0523  0.0654
  832YOPS   PO411118  16.836   2.509   5.896 -0.0344 -0.0711  0.1427
  832YOPS   GL111119  16.602   2.808   6.156  0.2061 -0.1105  0.0577
  832YOPS   GL211120  16.270   2.972   6.015 -0.3545  0.0852 -0.2009
  832YOPS   C1A11121  16.523   2.975   6.603 -0.1270 -0.0958  0.2633
  832YOPS   D2A11122  16.430   3.082   7.080 -0.2886 -0.0599  0.0148
  832YOPS   C3A11123  16.721   3.166   7.476  0.1482 -0.1629  0.1275
  832YOPS   C4A11124  16.584   3.340   7.876 -0.1799 -0.0881  0.0767
  832YOPS   C1B11125  16.418   3.266   6.086 -0.2694  0.2137 -0.0055
  832YOPS   C2B11126  16.653   3.372   6.358  0.1761 -0.1416  0.3434
  832YOPS   D3B11127  17.023   3.273   6.510  0.0568 -0.1453  0.2122
  832YOPS   C4B11128  16.903   3.177   6.949  0.0749  0.1916 -0.1716
  833YOPS   CNO11129   5.255  14.114   5.406 -0.0288 -0.0281 -0.3557
  833YOPS   PO411130   5.342  14.615   5.394 -0.2199 -0.0636  0.2227
  833YOPS   GL111131   5.232  14.697   5.805 -0.2771 -0.2243 -0.0357
  833YOPS   GL211132   5.414  14.468   6.060 -0.1635 -0.0749 -0.0490
  833YOPS   C1A11133   5.150  14.843   6.242  0.1089  0.0821 -0.1912
  833YOPS   D2A11134   5.053  14.910   6.637 -0.2425 -0.2676 -0.1351
  833YOPS   C3A11135   5.304  14.797   7.054 -0.2188 -0.1921  0.1935
  833YOPS   C4A11136   5.494  14.837   7.483  0.0166  0.3061  0.1527
  833YOPS   C1B11137   5.424  14.469   6.528  0.0489  0.3059  0.4389
  833YOPS   C2B11138   5.500  14.251   6.940  0.0892 -0.3977 -0.1651
  833YOPS   D3B11139   5.328  14.058   7.284 -0.4405  0.2416 -0.3350
  833YOPS   C4B11140   5.318  14.371   7.522  0.0467  0.2235 -0.3537
  834YOPS   CNO11141   9.507  16.102   5.318 -0.0135 -0.2812 -0.0285
  834YOPS   PO411142   9.607  15.908   5.708  0.1146 -0.2109 -0.1505
  834YOPS   GL111143   9.355  15.857   6.030  0.0293  0.0584 -0.3998
  834YOPS   GL211144   9.032  15.983   6.076 -0.1771 -0.0864 -0.2428
  834YOPS   C1A11145   9.442  15.753   6.490 -0.3457 -0.0573 -0.2510
  834YOPS   D2A11146   9.370  15.702   6.863  0.1118  0.0366 -0.0175
  834YOPS   C3A11147   9.109  15.834   7.202  0.1493  0.1686 -0.1131
  834YOPS   C4A11148   9.102  15.585   7.586  0.1161 -0.2740 -0.1974
  834YOPS   C1B11149   8.887  15.790   6.486  0.0842  0.0373 -0.1847
  834YOPS   C2B11150   8.769  15.839   6.801  0.0261  0.0892  0.1073
  834YOPS   D3B11151   8.646  16.027   7.206 -0.0515 -0.0055 -0.0833
  834YOPS   C4B11152   8.830  16.010   7.646  0.1802  0.1902  0.0606
  835YOPS   CNO11153   3.275   1.006   4.675 -0.1075  0.1088 -0.1331
  835YOPS   PO411154   3.306   1.063   5.215  0.1217 -0.3469 -0.2615
  835YOPS   GL111155   3.361   1.043   5.674  0.0283 -0.1792  0.4308
  835YOPS   GL211156   3.633   1.111   5.672  0.1044 -0.2651 -0.0916
  835YOPS   C1A11157   3.161   1.160   6.035 -0.1036 -0.0368  0.0849
  835YOPS   D2A11158   2.679   1.051   6.156 -0.1117  0.0686 -0.1806
  835YOPS   C3A11159   2.385   0.969   6.458 -0.2164  0.1594  0.1330
  835YOPS   C4A11160   1.969   1.046   6.337  0.2971  0.0482 -0.1301
  835YOPS   C1B11161   3.669   1.188   6.127  0.0526 -0.1411 -0.1539
  835YOPS   C2B11162   3.707   1.081   6.589 -0.3197  0.1042  0.0233
  835YOPS   D3B11163   3.484   1.121   6.949 -0.0513 -0.0726 -0.0552
  835YOPS   C4B11164   3.090   1.215   7.025 -0.2034  0.0036  0.3053
  836YOPS   CNO11165   3.743   7.555   5.765  0.2481 -0.0768 -0.3798
  836YOPS   PO411166   3.969   7.674   6.001 -0.0914  0.2304 -0.1638
  836YOPS   GL111167   4.032   7.810   6.319 -0.1090  0.1116 -0.0089
  836YOPS   GL211168   3.957   7.553   6.516  0.4729  0.3854 -0.2509
  836YOPS   C1A11169   3.837   8.022   6.614 -0.1015 -0.0518  0.2329
  836YOPS   D2A11170   3.675   8.360   6.948 -0.2251  0.1204  0.0927
  836YOPS   C3A11171   3.438   8.243   7.274  0.1307  0.0609  0.1833
  836YOPS   C4A11172   3.835   8.236   7.626 -0.1897 -0.1150 -0.1550
  836YOPS   C1B11173   3.833   7.616   6.909 -0.0685  0.2818  0.2010
  836YOPS   C2B11174   3.665   7.329   7.251 -0.1341 -0.2819 -0.2181
  836YOPS   D3B11175   3.274   7.311   7.479 -0.0700  0.2208  0.0568
  836YOPS   C4B11176   3.119   6.968   7.284 -0.1699 -0.0548 -0.0101
  837YOPS   CNO11177   8.362   3.873   4.835  0.0949  0.3008 -0.2044
  837YOPS   PO411178   8.683   4.015   5.149  0.0887 -0.1828 -0.1130
  837YOPS   GL111179   8.589   4.011   5.650  0.0777 -0.1712  0.3059
  837YOPS   GL211180   8.846   4.039   5.725 -0.0016 -0.4570 -0.1279
  837YOPS   C1A11181   8.355   3.661   5.920 -0.2411 -0.0550  0.0201
  837YOPS   D2A11182   7.966   3.681   6.296 -0.3653  0.1458  0.0612
  837YOPS   C3A11183   7.823   3.673   6.733  0.2387  0.1806 -0.2610
  837YOPS   C4A11184   7.427   3.520   6.934  0.0673  0.4426 -0.0347
  837YOPS   C1B11185   8.714   3.863   6.162  0.1427 -0.2053 -0.3727
  837YOPS   C2B11186   8.468   3.503   6.361 -0.1712  0.4531 -0.1125
  837YOPS   D3B11187   8.158   3.336   6.647  0.3628  0.0752  0.2254
  837YOPS   C4B11188   8.227   3.193   7.094  0.0848  0.0904  0.2165
  838YOPS   CNO11189   9.675   2.856   5.871 -0.3819 -0.2581  0.1389
  838YOPS   PO411190   9.801   3.328   5.841 -0.1257  0.0223  0.1336
  838YOPS   GL111191   9.477   3.366   6.099  0.2208  0.2442  0.1815
  838YOPS   GL211192   9.712   3.681   6.185  0.1088  0.1741  0.0749
  838YOPS   C1A11193   9.444   3.321   6.513  0.1018 -0.0895 -0.1277
  838YOPS   D2A11194   9.313   3.395   6.926 -0.1917 -0.0565 -0.0140
  838YOPS   C3A11195   9.217   3.247   7.267 -0.1623  0.4158 -0.2373
  838YOPS   C4A11196   9.011   3.383   7.578 -0.0919 -0.1608 -0.2519
  838YOPS   C1B11197   9.810   3.712   6.668  0.1225  0.2378 -0.2537
  838YOPS   C2B11198   9.797   3.710   7.095  0.2360 -0.0887 -0.0020
  838YOPS   D3B11199   9.847   3.702   7.541 -0.1959  0.3851 -0.1862
  838YOPS   C4B11200   9.469   3.427   7.791  0.0313  0.2278  0.0500
  839YOPS   CNO11201   6.547  15.158   5.492  0.3125  0.0582 -0.3193
  839YOPS   PO411202   6.172  14.884   5.613  0.0623  0.0908 -0.0542
  839YOPS   GL111203   6.119  14.724   6.002 -0.1496 -0.1075 -0.0276
  839YOPS   GL211204   5.874  14.479   5.843  0.1804  0.0904 -0.0555
  839YOPS   C1A11205   6.110  14.824   6.409  0.0784  0.0122  0.3209
  839YOPS   D2A11206   6.261  14.856   6.742  0.2694  0.0669  0.2174
  839YOPS   C3A11207   6.326  15.079   7.111 -0.1731  0.1532  0.1250
  839YOPS   C4A11208   5.989  15.040   7.451 -0.0792  0.1901  0.0501
  839YOPS   C1B11209   5.889  14.364   6.257 -0.0644  0.1332 -0.0461
  839YOPS   C2B11210   5.888  14.481   6.681  0.2778 -0.3947 -0.1198
  839YOPS   D3B11211   5.933  14.668   7.073 -0.0503 -0.1690  0.0028
  839YOPS   C4B11212   5.866  14.463   7.383  0.1726 -0.2984 -0.2273
  840YOPS   CNO11213  14.256   3.205   5.659  0.0823  0.1424  0.0921
  840YOPS   PO411214  13.896   3.419   5.857 -0.0431  0.0552  0.2476
  840YOPS   GL111215  13.824   3.424   6.400 -0.1959 -0.0839 -0.0393
  840YOPS   GL211216  14.103   3.554   6.389  0.0185 -0.1427  0.3077
  840YOPS   C1A11217  13.843   3.241   6.783  0.0733 -0.2556  0.1789
  840YOPS   D2A11218  13.677   3.310   7.162 -0.5137  0.1176  0.1364
  840YOPS   C3A11219  13.428   3.429   7.502  0.1815 -0.0926  0.0353
  840YOPS   C4A11220  13.430   3.172   7.923  0.0541  0.1487  0.3203
  840YOPS   C1B11221  14.149   3.618   6.881  0.1279 -0.3199  0.2400
  840YOPS   C2B11222  14.457   3.683   7.204  0.1398 -0.0755 -0.1751
  840YOPS   D3B11223  14.653   3.902   7.458 -0.2399 -0.1422  0.1132
  840YOPS   C4B11224  14.865   3.556   7.784  0.1139 -0.0682  0.1155
  841YOPS   CNO11225   1.197  18.677   5.770  0.0610 -0.1372 -0.0498
  841YOPS   PO411226   0.759  18.759   5.927  0.2388 -0.0215  0.0786
  841YOPS   GL111227   0.827  19.071   6.257 -0.1249 -0.1624 -0.1321
  841YOPS   GL211228   0.851  19.500   6.285  0.2372 -0.0898 -0.2097
  841YOPS   C1A11229   0.665  19.317   6.683  0.0720 -0.1047  0.3311
  841YOPS   D2A11230   0.656  19.496   7.118 -0.0188  0.1707  0.2403
  841YOPS   C3A11231   0.635  19.431   7.593  0.2879  0.0363  0.1201
  841YOPS   C4A11232   0.320  19.458   7.858 -0.0295 -0.0900  0.0182
  841YOPS   C1B11233   0.651  19.840   6.536  0.0386  0.1272 -0.1861
  841YOPS   C2B11234   0.545  20.010   6.944 -0.0248  0.1998 -0.2978
  841YOPS   D3B11235   0.750  19.935   7.440 -0.1173 -0.0707 -0.0164
  841YOPS   C4B11236   1.101  20.069   7.618 -0.0807  0.2327 -0.0753
  842POPE   NH311237   1.369  12.733   5.352  0.3025 -0.0795  0.0572
  842POPE   PO411238   1.112  12.688   5.791  0.2428  0.1698  0.0990
  842POPE   GL111239   1.210  12.317   6.173 -0.0412 -0.3704  0.0172
  842POPE   GL211240   0.904  12.247   6.220 -0.0863 -0.0021 -0.0430
  842POPE   C1A11241   1.258  11.895   6.401  0.1565 -0.0177 -0.4102
  842POPE   D2A11242   1.087  11.613   6.688  0.0633 -0.1575 -0.0868
  842POPE   C3A11243   1.080  11.621   7.127  0.2040  0.1624 -0.3087
  842POPE   C4A11244   0.751  11.629   7.407 -0.1686  0.2854  0.0645
  842POPE   C1B11245   1.050  12.352   6.627  0.1805  0.1520 -0.0472
  842POPE   C2B11246   1.274  12.280   6.862  0.1600  0.1482 -0.0247
  842POPE   C3B11247   1.661  12.189   7.114 -0.0869  0.0902  0.3628
  842POPE   C4B11248   1.979  12.120   7.307  0.0705  0.0905 -0.2273
  843POPE   NH311249  13.324   0.790   5.710 -0.0218  0.3950  0.3065
  843POPE   PO411250  13.221   1.186   5.982  0.0304  0.0169  0.1532
  843POPE   GL111251  12.929   0.999   6.353 -0.0341  0.1498  0.0043
  843POPE   GL211252  12.658   1.229   6.350 -0.1605 -0.0309 -0.0127
  843POPE   C1A11253  12.921   0.731   6.755  0.0087  0.2658  0.0993
  843POPE   D2A11254  12.653   0.871   7.076 -0.2817 -0.2934  0.0423
  843POPE   C3A11255  12.598   1.008   7.496  0.1426  0.0842  0.1583
  843POPE   C4A11256  12.490   1.307   7.746  0.0429  0.4411 -0.2627
  843POPE   C1B11257  12.455   1.231   6.722  0.2684 -0.2005  0.1293
  843POPE   C2B11258  12.380   1.294   7.147  0.1251 -0.0377  0.1653
  843POPE   C3B11259  12.215   1.638   7.539  0.1627  0.2764  0.3063
  843POPE   C4B11260  12.171   1.999   7.639  0.0607  0.0567  0.0337
  844POPE   NH311261  11.172   0.259   5.639 -0.1152 -0.1432 -0.1683
  844POPE   PO411262  11.507  -0.075   5.463  0.5222  0.1532  0.0002
  844POPE   GL111263  11.381  -0.146   5.917  0.0008 -0.0887  0.0299
  844POPE   GL211264  11.588  -0.291   6.118  0.0569 -0.2517  0.0006
  844POPE   C1A11265  11.121  -0.150   6.216  0.1089 -0.1493 -0.0135
  844POPE   D2A11266  10.791  -0.156   6.577 -0.2474 -0.0774  0.0170
  844POPE   C3A11267  10.462  -0.430   6.413  0.0851  0.0107 -0.3028
  844POPE   C4A11268  10.349  -0.816   6.494  0.4596 -0.0853 -0.2038
  844POPE   C1B11269  11.533  -0.159   6.516  0.1486 -0.2840  0.0047
  844POPE   C2B11270  11.247  -0.089   6.827  0.1774  0.0603  0.1390
  844POPE   C3B11271  10.880  -0.316   7.075  0.3803 -0.5955 -0.0938
  844POPE   C4B11272  10.627  -0.473   7.360  0.0024  0.2937 -0.4140
  845POPE   NH311273  13.078  14.852   5.644  0.0892  0.3503 -0.4107
  845POPE   PO411274  12.804  14.454   5.808 -0.1632 -0.0025 -0.1019
  845POPE   GL111275  12.732  14.692   6.188 -0.1115 -0.1753  0.0039
  845POPE   GL211276  12.817  14.670   6.442 -0.3463 -0.0468 -0.1213
  845POPE   C1A11277  12.368  14.817   6.391  0.0957 -0.0027  0.1603
  845POPE   D2A11278  12.081  14.944   6.607  0.0495  0.0417  0.1464
  845POPE   C3A11279  11.901  14.644   6.786  0.1597 -0.0318 -0.1602
  845POPE   C4A11280  11.693  14.175   6.892 -0.0414  0.1258  0.1966
  845POPE   C1B11281  12.735  14.655   6.811 -0.3438  0.2333  0.0249
  845POPE   C2B11282  13.018  14.679   7.233 -0.1934  0.4452  0.1396
  845POPE   C3B11283  13.319  14.920   7.343 -0.1170 -0.2879 -0.0636
  845POPE   C4B11284  13.547  15.278   7.502  0.0619  0.0384  0.0110
  846POPE   NH311285   2.082  12.389   5.658  0.2013  0.0446  0.1630
  846POPE   PO411286   1.859  12.699   5.496  0.2304  0.1305  0.2364
  846POPE   GL111287   1.854  12.659   6.026 -0.0094 -0.1441 -0.1818
  846POPE   GL211288   1.719  12.315   6.173 -0.2750 -0.1750 -0.0007
  846POPE   C1A11289   1.841  12.649   6.499  0.1071 -0.0568  0.2832
  846POPE   D2A11290   2.139  12.597   6.880  0.0729  0.1230 -0.0384
  846POPE   C3A11291   1.870  12.653   7.213 -0.2983 -0.2094  0.1667
  846POPE   C4A11292   1.707  12.572   7.625 -0.1686 -0.1494 -0.3286
  846POPE   C1B11293   1.659  12.161   6.620  0.0451  0.0303  0.1664
  846POPE   C2B11294   1.607  11.726   6.874 -0.3076 -0.0296  0.2184
  846POPE   C3B11295   1.949  11.423   6.984 -0.2478 -0.0224  0.0574
  846POPE   C4B11296   2.478  11.551   6.970  0.0387 -0.1340  0.0040
  847POPE   NH311297  16.513   7.142   5.445  0.1910  0.2971  0.0911
  847POPE   PO411298  16.840   7.073   5.140 -0.0914 -0.0302  0.3131
  847POPE   GL111299  17.077   7.302   5.334 -0.0314 -0.0683 -0.0928
  847POPE   GL211300  16.940   7.260   5.676 -0.2109 -0.2500 -0.1748
  847POPE   C1A11301  17.426   7.504   5.549 -0.0964 -0.1473 -0.0746
  847POPE   D2A11302  17.623   7.597   6.007  0.3272  0.1560 -0.1633
  847POPE   C3A11303  17.947   7.776   5.950 -0.1540 -0.1742  0.2381
  847POPE   C4A11304  18.233   7.977   5.643 -0.4732 -0.2460 -0.2020
  847POPE   C1B11305  17.282   7.196   6.013  0.0379  0.0460  0.3522
  847POPE   C2B11306  17.378   7.316   6.371 -0.4471 -0.0500 -0.0245
  847POPE   C3B11307  17.632   7.502   6.671  0.3085  0.2186 -0.1645
  847POPE   C4B11308  17.544   7.595   7.023  0.1243  0.2909  0.2554
  848POPE   NH311309   8.676  14.952   5.328  0.0130 -0.0367  0.2033
  848POPE   PO411310   8.867  14.734   5.680 -0.1046 -0.3378  0.1944
  848POPE   GL111311   8.683  14.620   6.123 -0.2126  0.0504  0.0864
  848POPE   GL211312   8.928  14.542   6.240 -0.4792  0.0610  0.3985
  848POPE   C1A11313   8.382  14.595   6.303  0.1368 -0.1950 -0.0667
  848POPE   D2A11314   8.143  14.548   6.694 -0.1835  0.3492  0.3525
  848POPE   C3A11315   8.177  14.720   6.954  0.2033  0.2750  0.2471
  848POPE   C4A11316   8.384  14.882   7.325 -0.3641 -0.1129 -0.0603
  848POPE   C1B11317   9.089  14.275   6.584 -0.2990 -0.0097 -0.4505
  848POPE   C2B11318   9.149  14.252   7.008  0.5048  0.0733  0.0100
  848POPE   C3B11319   9.413  14.380   7.306 -0.5854  0.0262 -0.1973
  848POPE   C4B11320   9.684  14.631   7.487  0.0398 -0.0901  0.2112
  849POPE   NH311321  13.555   6.977   5.671 -0.3491 -0.1534 -0.0551
  849POPE   PO411322  13.705   6.697   5.429 -0.4245  0.0545  0.0680
  849POPE   GL111323  13.676   6.444   5.770 -0.0215 -0.3797  0.3537
  849POPE   GL211324  13.395   6.229   5.791  0.2213 -0.1409 -0.2119
  849POPE   C1A11325  13.724   6.478   6.187  0.0894  0.1706 -0.0296
  849POPE   D2A11326  13.479   6.610   6.457  0.0018 -0.0596 -0.1201
  849POPE   C3A11327  13.560   7.080   6.511  0.0604  0.2897 -0.0396
  849POPE   C4A11328  13.882   7.253   6.457  0.0723  0.4072 -0.4129
  849POPE   C1B11329  13.313   6.172   6.160  0.1599 -0.2014  0.0233
  849POPE   C2B11330  13.340   6.065   6.638 -0.1751 -0.1879 -0.2262
  849POPE   C3B11331  13.221   5.930   7.011 -0.1671  0.0136 -0.1578
  849POPE   C4B11332  13.271   5.869   7.480  0.1630 -0.1701 -0.1836
  850POPE   NH311333  14.654  11.939   6.197  0.1664  0.0353  0.5325
  850POPE   PO411334  14.784  12.302   6.138 -0.0201  0.2255 -0.4763
  850POPE   GL111335  14.789  12.453   6.577  0.2080  0.1076  0.4893
  850POPE   GL211336  14.717  12.193   6.722 -0.2239  0.2065 -0.3615
  850POPE   C1A11337  14.837  12.636   7.035 -0.1716 -0.0556  0.3301
  850POPE   D2A11338  14.954  12.980   7.422  0.3354  0.0755 -0.1391
  850POPE   C3A11339  15.337  13.205   7.563 -0.1211 -0.0096  0.0957
  850POPE   C4A11340  15.774  13.402   7.459  0.1637  0.0622  0.0606
  850POPE   C1B11341  14.691  12.210   7.191  0.0708  0.0298 -0.1996
  850POPE   C2B11342  15.028  12.500   7.471 -0.0969  0.2020  0.0613
  850POPE   C3B11343  15.114  12.486   7.984  0.1578 -0.3137 -0.2177
  850POPE   C4B11344  15.499  12.524   8.252  0.0843 -0.1171  0.1247
  851POPE   NH311345   1.074   2.843   5.476  0.2055 -0.1045 -0.1267
  851POPE   PO411346   1.286   2.358   5.600  0.1996  0.0606 -0.0365
  851POPE   GL111347   1.381   1.948   5.863  0.0253  0.0545 -0.2381
  851POPE   GL211348   1.680   1.903   6.050 -0.3739  0.1526  0.2214
  851POPE   C1A11349   1.252   1.626   6.234  0.1298  0.0648  0.0521
  851POPE   D2A11350   1.065   1.410   6.420  0.2239 -0.0222 -0.4083
  851POPE   C3A11351   1.181   1.051   6.351 -0.2912 -0.1994 -0.0174
  851POPE   C4A11352   1.438   0.847   6.398 -0.0407  0.4296  0.3271
  851POPE   C1B11353   1.563   1.967   6.408 -0.0009  0.0636 -0.2643
  851POPE   C2B11354   1.593   2.157   6.817 -0.1729  0.0577 -0.0679
  851POPE   C3B11355   1.493   2.027   7.353  0.0592 -0.1220 -0.3875
  851POPE   C4B11356   1.143   1.868   7.513 -0.2185  0.3757 -0.4868
  852POPE   NH311357  16.159  13.923   6.193  0.2322 -0.1092  0.0849
  852POPE   PO411358  16.599  13.797   6.319  0.1669  0.2054  0.1873
  852POPE   GL111359  16.404  13.632   6.717 -0.2725  0.1247  0.3145
  852POPE   GL211360  16.160  13.549   6.575  0.4084 -0.1730  0.2567
  852POPE   C1A11361  16.092  13.486   7.080  0.1722 -0.0761  0.0603
  852POPE   D2A11362  16.233  13.217   7.435 -0.0910  0.2282 -0.0089
  852POPE   C3A11363  16.062  13.176   7.774  0.0523 -0.2745  0.2662
  852POPE   C4A11364  15.669  13.318   8.024 -0.0700  0.1277 -0.2415
  852POPE   C1B11365  15.817  13.370   6.653 -0.1784  0.4362  0.0453
  852POPE   C2B11366  15.713  13.158   7.031 -0.0826  0.1580  0.0620
  852POPE   C3B11367  15.770  12.888   7.378 -0.1436  0.0868 -0.0521
  852POPE   C4B11368  15.539  12.637   7.629  0.1419 -0.0666 -0.2920
  853POPE   NH311369  10.026  14.307   6.107  0.1090 -0.0530 -0.2723
  853POPE   PO411370  10.026  13.874   6.026 -0.2284 -0.1946  0.5908
  853POPE   GL111371  10.026  13.831   6.461  0.0392 -0.0429  0.0105
  853POPE   GL211372   9.675  13.993   6.742  0.1563  0.1882 -0.1821
  853POPE   C1A11373  10.137  13.612   6.944 -0.0512  0.2537  0.1129
  853POPE   D2A11374  10.097  13.701   7.352  0.2002 -0.0604 -0.0239
  853POPE   C3A11375  10.440  13.638   7.522  0.2585 -0.1024 -0.2138
  853POPE   C4A11376  10.781  13.384   7.520 -0.0051  0.2120 -0.0458
  853POPE   C1B11377   9.680  13.528   7.055 -0.1163 -0.2586 -0.0828
  853POPE   C2B11378   9.645  13.483   7.479 -0.0800  0.0611 -0.1157
  853POPE   C3B11379   9.438  13.399   7.817  0.0349 -0.2474 -0.2813
  853POPE   C4B11380   9.200  13.292   8.133  0.0143 -0.1727  0.1419
  854POPE   NH311381  18.476  15.824   6.207 -0.1769 -0.0071 -0.0577
  854POPE   PO411382  18.729  15.505   6.113  0.0836  0.1067  0.0108
  854POPE   GL111383  18.578  15.219   6.512 -0.3945 -0.1727 -0.3067
  854POPE   GL211384  18.370  15.434   6.550 -0.1007  0.1278 -0.3571
  854POPE   C1A11385  18.582  15.090   6.978  0.0289  0.0989  0.2790
  854POPE   D2A11386  18.339  14.793   7.248 -0.0654 -0.1559  0.1501
  854POPE   C3A11387  18.479  14.446   7.540  0.2262  0.1226  0.3227
  854POPE   C4A11388  18.761  14.292   7.753 -0.1042  0.3013  0.1837
  854POPE   C1B11389  17.970  15.346   6.305 -0.1973 -0.2503 -0.1441
  854POPE   C2B11390  17.629  15.224   6.525  0.3202 -0.1004  0.1823
  854POPE   C3B11391  17.505  15.331   6.782  0.1145 -0.0178 -0.5634
  854POPE   C4B11392  17.509  15.406   7.188 -0.0018  0.1334  0.2378
  855POPE   NH311393  15.105  14.976   5.829 -0.1324  0.2231 -0.2626
  855POPE   PO411394  14.700  14.710   5.772 -0.2461  0.0208  0.1513
  855POPE   GL111395  14.382  14.599   6.150 -0.3095  0.0912  0.2140
  855POPE   GL211396  14.179  14.804   6.196  0.1298  0.1049 -0.1088
  855POPE   C1A11397  14.219  14.502   6.560  0.2537  0.0982 -0.3622
  855POPE   D2A11398  14.039  14.886   6.847  0.2503  0.1361  0.1079
  855POPE   C3A11399  14.215  14.932   7.229  0.1044 -0.0703  0.0829
  855POPE   C4A11400  14.440  15.084   7.472  0.0966 -0.0010  0.3255
  855POPE   C1B11401  14.258  15.141   6.439 -0.1763  0.6496  0.2858
  855POPE   C2B11402  14.550  15.250   6.735 -0.1936 -0.0754  0.1204
  855POPE   C3B11403  14.486  15.437   7.076 -0.1280  0.2552 -0.0275
  855POPE   C4B11404  14.772  15.640   7.446 -0.2958  0.2310 -0.0930
  856POPE   NH311405  10.278   6.811   5.793 -0.1446  0.0249 -0.2642
  856POPE   PO411406   9.798   6.665   5.720 -0.1583 -0.1380 -0.0736
  856POPE   GL111407   9.914   6.645   6.134 -0.3976 -0.0172  0.0252
  856POPE   GL211408  10.049   6.907   6.200  0.3111 -0.1224 -0.1541
  856POPE   C1A11409   9.934   6.659   6.608  0.0139  0.0959  0.3341
  856POPE   D2A11410   9.746   6.597   6.961 -0.0638  0.0898 -0.3026
  856POPE   C3A11411   9.687   6.749   7.403  0.0876  0.3721 -0.1489
  856POPE   C4A11412   9.472   7.139   7.704  0.0236 -0.0886 -0.0077
  856POPE   C1B11413  10.192   7.147   6.489  0.0880  0.0611  0.2802
  856POPE   C2B11414  10.116   7.108   6.845  0.0122  0.0268  0.3863
  856POPE   C3B11415  10.125   6.982   7.207 -0.3464  0.0837 -0.2357
  856POPE   C4B11416  10.022   6.987   7.721 -0.0703 -0.1257 -0.1497
  857POPE   NH311417  10.892  12.651   6.260 -0.2714 -0.0777 -0.3170
  857POPE   PO411418  10.959  13.104   6.209 -0.0785  0.1007 -0.0074
  857POPE   GL111419  11.125  12.943   6.689  0.1010  0.1194 -0.1892
  857POPE   GL211420  11.150  12.571   6.931 -0.0453 -0.0076 -0.1606
  857POPE   C1A11421  11.006  13.064   7.053 -0.1930  0.0086 -0.2557
  857POPE   D2A11422  11.090  12.982   7.518 -0.0157 -0.2887  0.2483
  857POPE   C3A11423  11.179  13.244   7.817 -0.1102  0.1174  0.3712
  857POPE   C4A11424  11.342  13.608   8.024 -0.1512  0.0689 -0.1577
  857POPE   C1B11425  11.611  12.699   7.046 -0.2234 -0.0840  0.0069
  857POPE   C2B11426  11.796  12.663   7.481 -0.0439  0.5793 -0.3269
  857POPE   C3B11427  11.885  12.651   7.909 -0.2922 -0.1923 -0.0725
  857POPE   C4B11428  12.084  12.556   8.251 -0.2013  0.0918  0.3242
  858POPE   NH311429  12.635  11.653   6.129 -0.0674 -0.0956  0.0345
  858POPE   PO411430  12.223  11.375   6.165 -0.0325  0.0989  0.0750
  858POPE   GL111431  12.276  11.550   6.492  0.0314  0.2989  0.4727
  858POPE   GL211432  12.564  11.554   6.645  0.2009 -0.0807 -0.1092
  858POPE   C1A11433  12.227  11.438   6.984  0.2431  0.0676 -0.4593
  858POPE   D2A11434  12.363  11.550   7.353 -0.0429 -0.0372  0.0200
  858POPE   C3A11435  12.109  11.834   7.638  0.0800  0.2024  0.0295
  858POPE   C4A11436  11.688  11.696   7.850  0.1182 -0.0771 -0.1785
  858POPE   C1B11437  12.765  11.798   6.959 -0.1497  0.1577  0.0832
  858POPE   C2B11438  12.693  11.914   7.342  0.4021 -0.0975  0.1394
  858POPE   C3B11439  12.597  11.881   7.729  0.2648 -0.0259  0.0722
  858POPE   C4B11440  12.932  12.047   7.714 -0.4004 -0.3467 -0.2062
  859POPE   NH311441   3.843  12.475   5.522 -0.0405  0.0432  0.2443
  859POPE   PO411442   4.134  12.724   5.588  0.1954  0.1286 -0.0744
  859POPE   GL111443   3.885  12.822   5.934  0.0415 -0.0067 -0.2661
  859POPE   GL211444   3.640  12.605   6.087 -0.1181  0.0666  0.1046
  859POPE   C1A11445   3.842  13.077   6.177 -0.3094 -0.1518  0.1627
  859POPE   D2A11446   3.726  13.480   6.222  0.0575 -0.2550  0.1759
  859POPE   C3A11447   3.937  13.533   6.572 -0.3241 -0.1685 -0.2245
  859POPE   C4A11448   3.981  13.437   7.061 -0.0871 -0.0719  0.3398
  859POPE   C1B11449   3.664  12.612   6.495 -0.0035 -0.1676  0.2128
  859POPE   C2B11450   3.696  12.557   6.942 -0.2336 -0.0918  0.2116
  859POPE   C3B11451   3.743  12.832   7.317 -0.0802 -0.1009 -0.0931
  859POPE   C4B11452   3.654  12.926   7.716 -0.1978 -0.0226 -0.3383
  860POPE   NH311453  13.892  14.088   5.533  0.1069  0.3965 -0.0435
  860POPE   PO411454  13.943  14.546   5.562  0.1175  0.0992 -0.0705
  860POPE   GL111455  13.840  14.408   5.956 -0.0779 -0.0187  0.1870
  860POPE   GL211456  13.943  14.041   6.060 -0.0986  0.1929 -0.0616
  860POPE   C1A11457  13.794  14.557   6.293  0.0802  0.1719 -0.0278
  860POPE   D2A11458  13.652  14.979   6.537  0.1833  0.0982  0.1147
  860POPE   C3A11459  13.549  15.177   6.988 -0.3758  0.3129  0.3551
  860POPE   C4A11460  13.490  15.522   6.960  0.2401  0.1419  0.0261
  860POPE   C1B11461  13.898  14.085   6.464  0.2396  0.0048  0.1417
  860POPE   C2B11462  13.989  14.233   6.948 -0.0420 -0.2664  0.1989
  860POPE   C3B11463  14.120  14.482   7.221 -0.1756 -0.2776  0.4560
  860POPE   C4B11464  14.201  14.590   7.597  0.0890 -0.0059 -0.0721
  861POPE   NH311465   4.358   7.912   5.770  0.0436 -0.2623  0.0712
  861POPE   PO411466   4.712   7.684   5.617  0.0911  0.0356  0.2005
  861POPE   GL111467   4.936   7.458   5.948 -0.1211  0.2347 -0.2835
  861POPE   GL211468   4.856   7.722   6.178 -0.0947 -0.2895 -0.5203
  861POPE   C1A11469   4.838   7.193   6.156  0.4475 -0.0680 -0.3044
  861POPE   D2A11470   4.852   6.772   6.357  0.0417  0.1001  0.0428
  861POPE   C3A11471   5.026   6.835   6.656  0.0594  0.0803 -0.4450
  861POPE   C4A11472   5.285   6.829   7.021 -0.0575 -0.0345 -0.0360
  861POPE   C1B11473   4.865   7.463   6.563 -0.0681  0.2310  0.4443
  861POPE   C2B11474   4.821   7.250   6.925  0.0438  0.1676  0.0839
  861POPE   C3B11475   4.964   7.141   7.312 -0.0506 -0.3102  0.0912
  861POPE   C4B11476   4.807   7.032   7.699  0.0777 -0.1033  0.0174
  862POPE   NH311477  10.969   4.296   5.714  0.0604  0.3894 -0.1578
  862POPE   PO411478  10.579   4.555   5.803 -0.1673  0.0544 -0.0164
  862POPE   GL111479  10.730   4.374   6.167 -0.3116  0.1768  0.0083
  862POPE   GL211480  10.834   4.117   6.216 -0.0950 -0.2380 -0.1442
  862POPE   C1A11481  10.829   4.503   6.539 -0.0370  0.2995  0.0672
  862POPE   D2A11482  11.019   4.366   6.879 -0.0548  0.0983  0.1263
  862POPE   C3A11483  11.414   4.462   6.779  0.0770 -0.1561 -0.1838
  862POPE   C4A11484  11.698   4.673   6.962  0.1977 -0.1605 -0.1422
  862POPE   C1B11485  10.714   3.930   6.647  0.1197  0.2225 -0.1781
  862POPE   C2B11486  10.651   3.974   7.079  0.2841 -0.0882 -0.0935
  862POPE   C3B11487  10.677   3.655   7.429 -0.1090 -0.3248  0.1187
  862POPE   C4B11488  10.341   3.580   7.667 -0.0314 -0.0402 -0.0429
  863POPE   NH311489   3.065  10.810   5.495 -0.3143  0.0552  0.1319
  863POPE   PO411490   3.477  10.943   5.470 -0.0507 -0.1352 -0.3541
  863POPE   GL111491   3.564  10.765   5.849  0.0497  0.0694 -0.4248
  863POPE   GL211492   3.371  10.575   5.851 -0.2085  0.2739  0.4423
  863POPE   C1A11493   3.526  11.044   6.238 -0.1686 -0.1980  0.1057
  863POPE   D2A11494   3.549  11.025   6.632 -0.1792 -0.3506 -0.1128
  863POPE   C3A11495   3.375  11.313   6.898 -0.3293 -0.1333  0.0221
  863POPE   C4A11496   3.591  11.545   7.305  0.0339 -0.0205 -0.1985
  863POPE   C1B11497   3.189  10.697   6.275 -0.0715 -0.1939 -0.0814
  863POPE   C2B11498   3.028  10.650   6.728 -0.0149 -0.1085  0.1883
  863POPE   C3B11499   2.987  10.680   7.213  0.1051 -0.0017 -0.0350
  863POPE   C4B11500   3.164  10.805   7.563 -0.0333  0.2433 -0.0507
  864POPE   NH311501  10.117   1.554   6.033  0.0294  0.3450 -0.1417
  864POPE   PO411502   9.680   1.773   6.125 -0.1157  0.1593 -0.1761
  864POPE   GL111503   9.352   1.607   6.417 -0.1395  0.2213  0.0794
  864POPE   GL211504   9.139   1.626   6.118 -0.0208 -0.2119 -0.1089
  864POPE   C1A11505   9.323   1.515   6.791 -0.0666 -0.0651  0.0544
  864POPE   D2A11506   9.090   1.538   7.116 -0.0825 -0.5051 -0.0071
  864POPE   C3A11507   9.064   1.242   7.502  0.1840  0.2156 -0.0502
  864POPE   C4A11508   9.043   1.240   7.875 -0.0810  0.2636 -0.3342
  864POPE   C1B11509   8.942   1.421   6.537  0.0184  0.1777 -0.0424
  864POPE   C2B11510   8.945   1.097   6.858 -0.1218  0.3726  0.1004
  864POPE   C3B11511   8.908   0.829   7.230  0.0908  0.1138  0.0290
  864POPE   C4B11512   9.010   0.717   7.664  0.0556 -0.0502 -0.1407
  865POPE   NH311513  10.464   8.150   6.237  0.1054 -0.1716 -0.0171
  865POPE   PO411514  10.250   8.408   5.983  0.0499 -0.0254  0.0747
  865POPE   GL111515  10.097   8.394   6.517  0.0271  0.0277 -0.1905
  865POPE   GL211516   9.953   8.797   6.724  0.0769  0.2862  0.0642
  865POPE   C1A11517  10.097   8.286   6.856 -0.1754  0.2914  0.0944
  865POPE   D2A11518   9.820   8.431   7.073 -0.4059  0.0192 -0.1804
  865POPE   C3A11519   9.696   8.327   7.458  0.3669  0.0766 -0.2459
  865POPE   C4A11520   9.634   8.383   7.877 -0.1969  0.2147  0.0933
  865POPE   C1B11521  10.254   8.795   7.010 -0.1815 -0.1716  0.0415
  865POPE   C2B11522  10.230   8.554   7.317  0.1199 -0.1735 -0.0449
  865POPE   C3B11523  10.085   8.535   7.648 -0.1484  0.0031 -0.0590
  865POPE   C4B11524  10.193   8.515   8.191  0.0340 -0.1696  0.1096
  866POPE   NH311525   8.819   5.333   5.248 -0.1346  0.2439  0.0060
  866POPE   PO411526   9.240   5.312   5.250 -0.0159  0.1490  0.0268
  866POPE   GL111527   9.254   5.379   5.724 -0.3245  0.0078  0.1782
  866POPE   GL211528   9.465   5.116   5.781  0.1076 -0.0032  0.3289
  866POPE   C1A11529   9.175   5.653   5.924 -0.3940 -0.0657  0.0238
  866POPE   D2A11530   9.358   5.885   6.215  0.3723  0.1981 -0.1860
  866POPE   C3A11531   9.507   5.504   6.689  0.2433  0.2370  0.0619
  866POPE   C4A11532   9.533   5.555   7.139 -0.2224  0.1502 -0.2487
  866POPE   C1B11533   9.436   5.234   6.224 -0.0099  0.1092  0.3379
  866POPE   C2B11534   9.395   5.036   6.720  0.1755 -0.0224  0.0372
  866POPE   C3B11535   9.373   5.089   7.158  0.3060  0.0973  0.0892
  866POPE   C4B11536   9.391   5.270   7.622 -0.2964  0.0572 -0.1874
  867POPE   NH311537  12.239   1.854   5.536 -0.0179 -0.0308 -0.1941
  867POPE   PO411538  12.369   1.989   5.895 -0.2373 -0.0898  0.2032
  867POPE   GL111539  12.566   1.997   6.346 -0.1165 -0.2045 -0.0526
  867POPE   GL211540  12.655   1.744   6.591  0.0084 -0.3910  0.0640
  867POPE   C1A11541  12.471   2.249   6.653 -0.1028  0.0991 -0.0864
  867POPE   D2A11542  12.652   2.311   7.048  0.1640  0.0106 -0.0982
  867POPE   C3A11543  12.592   2.227   7.585 -0.2110 -0.1105  0.0328
  867POPE   C4A11544  12.626   2.376   8.095 -0.1107  0.0531  0.0956
  867POPE   C1B11545  12.607   1.733   6.935 -0.2764  0.1766 -0.1346
  867POPE   C2B11546  12.672   1.731   7.366 -0.4206 -0.0495 -0.1690
  867POPE   C3B11547  12.640   1.823   7.829  0.2110 -0.3083  0.2361
  867POPE   C4B11548  12.643   1.504   8.166 -0.0581  0.0601  0.1658
  868POPE   NH311549  11.606   3.618   6.148 -0.1386 -0.3110  0.0375
  868POPE   PO411550  12.074   3.858   6.032 -0.1268  0.0209  0.1324
  868POPE   GL111551  12.018   3.693   6.485 -0.2801  0.4595  0.0058
  868POPE   GL211552  11.879   3.941   6.498  0.1261 -0.3259 -0.3056
  868POPE   C1A11553  12.132   3.785   6.874 -0.1022  0.0919  0.1212
  868POPE   D2A11554  12.087   3.891   7.291 -0.3044  0.1700  0.0230
  868POPE   C3A11555  12.493   3.944   7.561  0.0852  0.2236 -0.3279
  868POPE   C4A11556  12.607   4.252   7.859 -0.0136 -0.0410  0.1947
  868POPE   C1B11557  11.663   4.025   6.953 -0.0414 -0.0792  0.4266
  868POPE   C2B11558  11.569   4.342   7.322  0.0189  0.0064  0.3344
  868POPE   C3B11559  11.783   4.673   7.506 -0.0504 -0.3055  0.0215
  868POPE   C4B11560  11.809   4.839   7.937 -0.1788 -0.3056 -0.3624
  869POPE   NH311561   4.013   5.149   5.622 -0.1507  0.2833  0.1277
  869POPE   PO411562   3.910   4.791   5.675 -0.1870 -0.0862 -0.0123
  869POPE   GL111563   3.832   5.001   6.086  0.0167  0.1897 -0.3060
  869POPE   GL211564   4.110   5.094   6.151  0.1912 -0.0550  0.2021
  869POPE   C1A11565   3.664   5.127   6.499 -0.0494 -0.1180 -0.2140
  869POPE   D2A11566   3.405   5.469   6.897 -0.0786  0.1514 -0.0438
  869POPE   C3A11567   3.374   5.506   7.294 -0.2533 -0.2715 -0.1068
  869POPE   C4A11568   2.971   5.632   7.535 -0.1436 -0.0672 -0.0219
  869POPE   C1B11569   4.334   5.157   6.617 -0.1298 -0.1300 -0.0354
  869POPE   C2B11570   4.447   5.006   6.995 -0.3051 -0.0485  0.4956
  869POPE   C3B11571   4.850   5.123   7.171  0.0737 -0.3636 -0.1379
  869POPE   C4B11572   4.968   5.267   7.526  0.5050 -0.1453 -0.0224
  870POPE   NH311573   1.110  16.347   6.155 -0.0274  0.2299 -0.1179
  870POPE   PO411574   1.205  16.449   5.800 -0.1827  0.0572  0.3093
  870POPE   GL111575   1.522  16.606   6.117 -0.1131  0.0982 -0.1172
  870POPE   GL211576   1.348  16.747   6.377  0.4334  0.1609 -0.1692
  870POPE   C1A11577   1.730  16.383   6.529 -0.0496  0.3696  0.0287
  870POPE   D2A11578   1.930  16.167   6.806 -0.1107  0.1665 -0.3259
  870POPE   C3A11579   2.218  16.461   6.855  0.1762  0.2185  0.0829
  870POPE   C4A11580   2.559  16.657   6.915 -0.1673  0.2910 -0.1697
  870POPE   C1B11581   1.344  16.750   6.867  0.1650 -0.1075 -0.1730
  870POPE   C2B11582   1.167  16.920   7.130  0.0558  0.0687  0.2664
  870POPE   C3B11583   0.730  16.995   7.217 -0.1369 -0.0155 -0.1423
  870POPE   C4B11584   0.474  17.106   7.568 -0.1385 -0.1404 -0.0701
  871POPE   NH311585  10.298   9.341   6.182 -0.1758  0.0345  0.2798
  871POPE   PO411586   9.861   9.258   6.278 -0.1849  0.0444  0.2660
  871POPE   GL111587   9.997   9.245   6.805 -0.0920 -0.6998  0.2016
  871POPE   GL211588  10.294   9.469   6.938 -0.0022  0.2149  0.0178
  871POPE   C1A11589  10.015   9.259   7.357  0.0056  0.3401 -0.2760
  871POPE   D2A11590  10.124   9.476   7.761  0.1684  0.2531 -0.1184
  871POPE   C3A11591   9.977   9.375   8.120  0.1401  0.0525 -0.0738
  871POPE   C4A11592   9.986   9.522   8.555 -0.0305  0.4423  0.2030
  871POPE   C1B11593  10.559   9.613   7.303 -0.0789  0.0166  0.0818
  871POPE   C2B11594  10.874   9.943   7.324  0.0690 -0.3834  0.1017
  871POPE   C3B11595  10.784  10.249   7.656  0.1006 -0.1132 -0.1421
  871POPE   C4B11596  10.404  10.401   7.832 -0.0165  0.2984  0.3195
  872YOPE   NH311597   4.213  17.803   4.704 -0.1436  0.1044 -0.0806
  872YOPE   PO411598   4.342  17.725   5.142 -0.1585  0.3203  0.1929
  872YOPE   GL111599   4.482  17.605   5.546  0.1793 -0.3135 -0.0499
  872YOPE   GL211600   4.482  17.345   5.667 -0.2667  0.1030  0.1311
  872YOPE   C1A11601   4.607  17.715   6.019  0.0102  0.1678  0.0220
  872YOPE   D2A11602   4.655  17.736   6.468 -0.1095  0.3383 -0.2845
  872YOPE   C3A11603   4.477  17.757   6.805  0.0891  0.2337 -0.0138
  872YOPE   C4A11604   4.260  17.708   7.297  0.2299 -0.0197  0.0113
  872YOPE   C1B11605   4.786  17.229   5.870  0.2246 -0.2537  0.2899
  872YOPE   C2B11606   4.866  17.125   6.241  0.3308 -0.3180  0.1781
  872YOPE   D3B11607   4.557  16.889   6.633  0.2057  0.1517  0.3095
  872YOPE   C4B11608   4.694  16.645   6.922 -0.0197  0.0289  0.1459
  873YOPE   NH311609   5.839  12.511   5.526 -0.1447  0.4071 -0.1058
  873YOPE   PO411610   5.896  12.881   5.648 -0.0210 -0.0642 -0.3047
  873YOPE   GL111611   5.701  12.873   6.005  0.2212 -0.0799  0.2644
  873YOPE   GL211612   5.715  12.572   6.060 -0.1772  0.2510  0.0798
  873YOPE   C1A11613   5.455  13.135   6.276 -0.2075  0.0773  0.0275
  873YOPE   D2A11614   5.256  13.165   6.642 -0.1078 -0.1062  0.1443
  873YOPE   C3A11615   5.335  12.956   7.033 -0.0568 -0.2707  0.2079
  873YOPE   C4A11616   5.574  13.205   7.362 -0.0600  0.0267  0.2054
  873YOPE   C1B11617   5.803  12.789   6.501 -0.0346  0.0983  0.0009
  873YOPE   C2B11618   5.844  12.837   6.947  0.2318 -0.4284  0.2396
  873YOPE   D3B11619   5.898  12.753   7.315 -0.0685 -0.2775  0.2202
  873YOPE   C4B11620   5.819  12.821   7.761 -0.0680 -0.2093  0.2780
  874YOPE   NH311621  14.443   0.234   6.272 -0.1902 -0.0574  0.2658
  874YOPE   PO411622  14.860   0.423   6.182  0.2731 -0.0522 -0.1611
  874YOPE   GL111623  14.959   0.482   6.624 -0.1085 -0.1294 -0.0444
  874YOPE   GL211624  15.045   0.206   6.669  0.2883  0.0701  0.0785
  874YOPE   C1A11625  14.789   0.652   7.016 -0.1315  0.1464 -0.0252
  874YOPE   D2A11626  14.732   0.506   7.445  0.0499 -0.0169 -0.0475
  874YOPE   C3A11627  14.769   0.360   7.900 -0.0188 -0.1373  0.0157
  874YOPE   C4A11628  14.550   0.363   8.309  0.0889  0.2920  0.0569
  874YOPE   C1B11629  15.011   0.125   7.079  0.0267  0.1941  0.1223
  874YOPE   C2B11630  15.069   0.132   7.489  0.0519  0.3186  0.0031
  874YOPE   D3B11631  15.091  -0.059   7.910  0.0481  0.1276  0.2169
  874YOPE   C4B11632  15.016   0.036   8.407 -0.1028 -0.0156 -0.0089
  875YOPE   NH311633  15.525   3.950   5.566 -0.1495 -0.1752 -0.2149
  875YOPE   PO411634  15.172   4.125   5.372 -0.2544 -0.0032  0.1578
  875YOPE   GL111635  15.212   4.157   5.858  0.1762  0.1747 -0.2466
  875YOPE   GL211636  15.565   4.253   6.027  0.1071  0.0127 -0.0972
  875YOPE   C1A11637  14.918   4.143   6.199  0.0105  0.2747  0.0493
  875YOPE   D2A11638  14.846   4.318   6.597  0.0133  0.1255 -0.0318
  875YOPE   C3A11639  14.453   4.292   6.875 -0.2617  0.1839  0.0980
  875YOPE   C4A11640  14.097   4.666   6.980  0.0419 -0.1940  0.1088
  875YOPE   C1B11641  15.523   4.413   6.463 -0.1569 -0.0370 -0.0582
  875YOPE   C2B11642  15.338   4.249   6.811 -0.0460 -0.2009 -0.2951
  875YOPE   D3B11643  15.385   4.112   7.178 -0.1052 -0.6756  0.2348
  875YOPE   C4B11644  15.290   4.105   7.609 -0.2717  0.0271 -0.1888
  876YOPE   NH311645  18.293  16.284   6.367  0.0270 -0.4183  0.0789
  876YOPE   PO411646  18.612  16.241   6.065  0.2506 -0.0179 -0.1659
  876YOPE   GL111647  18.849  16.035   6.442  0.2284  0.2976 -0.2902
  876YOPE   GL211648  18.776  15.760   6.688  0.0046 -0.0682 -0.2257
  876YOPE   C1A11649  18.832  16.111   6.950  0.1420  0.2298 -0.0595
  876YOPE   D2A11650  18.817  15.916   7.363  0.2362 -0.0438  0.0410
  876YOPE   C3A11651  19.118  15.636   7.569 -0.6286  0.2066 -0.1866
  876YOPE   C4A11652  19.601  15.641   7.823  0.1627 -0.0625  0.1104
  876YOPE   C1B11653  18.926  15.577   6.962  0.1362  0.2321  0.2719
  876YOPE   C2B11654  18.778  15.347   7.304 -0.4335 -0.0911 -0.0151
  876YOPE   D3B11655  18.628  15.090   7.486 -0.0826 -0.0529 -0.1050
  876YOPE   C4B11656  18.467  15.205   7.859  0.0275  0.1928  0.0140
  877YOPE   NH311657  14.132   2.008   6.097  0.0143 -0.1914 -0.0007
  877YOPE   PO411658  13.741   1.983   6.094 -0.3469  0.0743 -0.0790
  877YOPE   GL111659  13.722   2.090   6.427  0.3406 -0.1589  0.0591
  877YOPE   GL211660  13.943   2.164   6.606 -0.0948 -0.1346  0.2655
  877YOPE   C1A11661  13.517   2.083   6.842  0.1179 -0.1743 -0.0148
  877YOPE   D2A11662  13.489   2.234   7.251  0.2288 -0.2159 -0.2363
  877YOPE   C3A11663  13.450   2.397   7.643  0.2120 -0.2152  0.0698
  877YOPE   C4A11664  13.551   2.371   8.091  0.3376 -0.0479  0.2430
  877YOPE   C1B11665  13.989   2.314   7.084  0.0722  0.2163 -0.2206
  877YOPE   C2B11666  14.026   2.250   7.524  0.0565 -0.0060  0.2833
  877YOPE   D3B11667  13.739   1.995   7.806  0.1839 -0.2244  0.2650
  877YOPE   C4B11668  14.023   1.963   8.279 -0.0968 -0.0779 -0.3713
  878YOPE   NH311669   4.562   1.013   5.701 -0.0879  0.0526  0.0686
  878YOPE   PO411670   5.039   1.049   5.718 -0.3327 -0.3023  0.2014
  878YOPE   GL111671   4.991   1.341   6.007 -0.2791  0.1396  0.1159
  878YOPE   GL211672   5.144   1.589   5.950 -0.4944 -0.3550  0.1130
  878YOPE   C1A11673   4.895   1.369   6.490 -0.2747 -0.1476 -0.0753
  878YOPE   D2A11674   4.909   1.565   6.869 -0.2785  0.0597  0.2071
  878YOPE   C3A11675   5.178   1.847   7.109  0.1154 -0.0215 -0.0512
  878YOPE   C4A11676   5.296   2.078   7.498  0.2074 -0.1572 -0.2192
  878YOPE   C1B11677   4.897   1.837   6.298  0.1986 -0.0598  0.2246
  878YOPE   C2B11678   4.905   2.036   6.708 -0.1661  0.1413 -0.1843
  878YOPE   D3B11679   4.995   2.348   7.102  0.3594 -0.0942  0.3631
  878YOPE   C4B11680   4.846   2.725   7.253  0.0564  0.3178  0.0008
  879YOPE   NH311681   7.639   0.839   5.884  0.1961 -0.1112 -0.5988
  879YOPE   PO411682   8.050   0.525   5.860 -0.0875 -0.3548  0.2980
  879YOPE   GL111683   8.181   0.486   6.248  0.0212  0.2431 -0.0085
  879YOPE   GL211684   8.477   0.293   6.157  0.2123 -0.1645 -0.3129
  879YOPE   C1A11685   8.381   0.355   6.656  0.1258 -0.1405 -0.1503
  879YOPE   D2A11686   8.454   0.295   7.024 -0.0674  0.1261 -0.1331
  879YOPE   C3A11687   8.104   0.290   7.349 -0.2250 -0.0270  0.0820
  879YOPE   C4A11688   8.132   0.189   7.747  0.1039  0.0973 -0.3252
  879YOPE   C1B11689   8.320  -0.047   6.369 -0.2438  0.1380  0.0250
  879YOPE   C2B11690   8.327  -0.336   6.708  0.0232 -0.1770  0.0471
  879YOPE   D3B11691   8.310  -0.507   7.192  0.0821 -0.1632 -0.3740
  879YOPE   C4B11692   8.493  -0.547   7.581  0.2356 -0.4728 -0.2285
  880YOPE   NH311693  10.642   3.547   5.676  0.0056  0.0987  0.2239
  880YOPE   PO411694  10.725   3.117   5.747 -0.0693  0.1626 -0.0019
  880YOPE   GL111695  10.569   3.061   6.153  0.2262 -0.1246  0.1908
  880YOPE   GL211696  10.912   3.000   6.233 -0.2751 -0.2970  0.0272
  880YOPE   C1A11697  10.465   3.383   6.501 -0.2071 -0.0946 -0.1003
  880YOPE   D2A11698  10.282   3.695   6.810  0.1719 -0.1810  0.0883
  880YOPE   C3A11699  10.237   3.419   7.158 -0.3016 -0.1008  0.0290
  880YOPE   C4A11700  10.287   3.077   7.466 -0.0490  0.0975  0.0298
  880YOPE   C1B11701  10.803   2.968   6.633  0.1667 -0.1300  0.0710
  880YOPE   C2B11702  10.684   2.733   7.089 -0.1637  0.2517 -0.0111
  880YOPE   D3B11703  10.325   2.543   7.136 -0.0606 -0.1695 -0.0276
  880YOPE   C4B11704   9.939   2.343   7.408 -0.0166  0.0809  0.0775
  881YOPE   NH311705   7.534  16.148   5.602  0.1581  0.2513 -0.0611
  881YOPE   PO411706   7.939  16.247   5.640 -0.0731 -0.3999  0.3082
  881YOPE   GL111707   8.095  16.005   5.960  0.0938 -0.3176  0.1996
  881YOPE   GL211708   7.791  15.830   5.956 -0.1027  0.2026  0.0914
  881YOPE   C1A11709   7.998  16.103   6.354  0.1680  0.1748 -0.2867
  881YOPE   D2A11710   7.909  15.962   6.868 -0.0406 -0.2302  0.1483
  881YOPE   C3A11711   7.567  15.885   6.925 -0.1162 -0.2347  0.1551
  881YOPE   C4A11712   7.281  15.540   7.075 -0.0492  0.2728  0.0435
  881YOPE   C1B11713   7.660  15.427   6.161  0.0442 -0.0269 -0.1323
  881YOPE   C2B11714   7.517  15.338   6.446 -0.0555 -0.0607  0.0297
  881YOPE   D3B11715   7.617  15.308   6.835  0.0402 -0.1721  0.1569
  881YOPE   C4B11716   7.774  15.491   7.155  0.1604  0.3928 -0.2268
  882YOPE   NH311717   3.190  11.376   5.487 -0.2693  0.0817  0.1705
  882YOPE   PO411718   2.736  11.245   5.470  0.1838  0.2207  0.1872
  882YOPE   GL111719   2.617  11.507   5.800 -0.0379  0.0688  0.0357
  882YOPE   GL211720   2.244  11.314   5.978  0.0234 -0.0725  0.0922
  882YOPE   C1A11721   2.840  11.735   5.985  0.0045 -0.1673 -0.0414
  882YOPE   D2A11722   3.064  11.777   6.478 -0.3707  0.2096 -0.0536
  882YOPE   C3A11723   2.825  12.082   6.789 -0.1451 -0.0377  0.0162
  882YOPE   C4A11724   2.308  11.989   6.878  0.2104  0.1719 -0.2300
  882YOPE   C1B11725   2.136  10.989   6.309  0.0172 -0.3309 -0.3467
  882YOPE   C2B11726   1.907  10.822   6.636  0.3362  0.1506  0.1445
  882YOPE   D3B11727   2.135  10.503   6.971  0.0955  0.5724  0.0390
  882YOPE   C4B11728   2.003  10.441   7.469 -0.3719  0.1658 -0.0273
  883YOPE   NH311729  13.447   3.175   5.897 -0.3125  0.2945  0.0584
  883YOPE   PO411730  13.697   2.967   6.126  0.2398 -0.0947 -0.1491
  883YOPE   GL111731  13.510   3.071   6.487 -0.0881 -0.1284  0.1528
  883YOPE   GL211732  13.227   2.960   6.498 -0.0365 -0.0559  0.1143
  883YOPE   C1A11733  13.379   3.541   6.636  0.0308  0.2874 -0.0480
  883YOPE   D2A11734  13.327   3.610   7.031  0.0500  0.1941  0.2165
  883YOPE   C3A11735  13.706   3.775   7.281  0.1449 -0.1185  0.1768
  883YOPE   C4A11736  14.016   3.774   7.425  0.1540 -0.1448 -0.0951
  883YOPE   C1B11737  13.267   3.119   6.927 -0.1885  0.0056  0.0213
  883YOPE   C2B11738  13.139   3.060   7.316 -0.1282  0.2731 -0.1328
  883YOPE   D3B11739  12.854   3.163   7.722  0.2794 -0.0869 -0.2998
  883YOPE   C4B11740  12.503   3.489   7.824  0.0764  0.0041  0.0734
  884YOPE   NH311741  15.526   4.590   5.574  0.1211 -0.3105 -0.0484
  884YOPE   PO411742  15.870   4.364   5.679  0.1483 -0.0148 -0.0250
  884YOPE   GL111743  16.103   4.595   6.102 -0.2580  0.1339  0.1269
  884YOPE   GL211744  15.968   4.442   6.252  0.2418  0.2047  0.1719
  884YOPE   C1A11745  16.164   4.949   6.425 -0.2799  0.0805  0.0431
  884YOPE   D2A11746  16.408   5.241   6.654  0.1223 -0.0502 -0.1313
  884YOPE   C3A11747  16.277   5.341   7.128  0.4452 -0.2043  0.1444
  884YOPE   C4A11748  16.165   5.568   7.364  0.0947 -0.0125  0.1026
  884YOPE   C1B11749  15.970   4.558   6.749  0.4381  0.2767 -0.0662
  884YOPE   C2B11750  15.878   4.348   7.153  0.1278 -0.0565 -0.0575
  884YOPE   D3B11751  15.966   4.165   7.472 -0.1121 -0.1246 -0.0640
  884YOPE   C4B11752  16.075   4.209   7.945 -0.0906 -0.3502 -0.2830
  885YOPE   NH311753  13.027   2.700   6.108  0.0710  0.1919  0.2195
  885YOPE   PO411754  12.695   3.016   6.063  0.2990 -0.0492  0.2248
  885YOPE   GL111755  12.481   3.198   6.367 -0.0309 -0.1696  0.2206
  885YOPE   GL211756  12.482   3.484   6.175 -0.2929 -0.1679 -0.1888
  885YOPE   C1A11757  12.342   3.193   6.803  0.0794 -0.1725  0.1393
  885YOPE   D2A11758  12.084   3.120   7.147  0.3050 -0.1820 -0.0970
  885YOPE   C3A11759  12.136   3.068   7.577  0.1275  0.0573 -0.1155
  885YOPE   C4A11760  12.232   3.087   8.007  0.1312 -0.3614 -0.0684
  885YOPE   C1B11761  12.553   3.643   6.624 -0.1216 -0.1073  0.1486
  885YOPE   C2B11762  12.993   3.864   6.815 -0.0825  0.2226  0.0810
  885YOPE   D3B11763  13.371   4.051   6.852 -0.1102  0.1291 -0.0963
  885YOPE   C4B11764  13.546   4.202   7.123 -0.2086 -0.1858 -0.4616
  886YOPE   NH311765  17.919  17.388   6.302 -0.0156  0.2118 -0.0961
  886YOPE   PO411766  18.345  17.446   6.123  0.1729  0.0879 -0.0615
  886YOPE   GL111767  18.493  17.421   6.525 -0.2808 -0.0586 -0.1905
  886YOPE   GL211768  18.221  17.297   6.718  0.3787 -0.2043 -0.2386
  886YOPE   C1A11769  18.642  17.428   6.887  0.0181 -0.0147  0.0484
  886YOPE   D2A11770  18.565  17.465   7.371 -0.1534 -0.0207  0.0171
  886YOPE   C3A11771  18.814  17.698   7.605 -0.1548 -0.0289 -0.1299
  886YOPE   C4A11772  19.013  17.666   8.048  0.1732  0.0675 -0.1789
  886YOPE   C1B11773  18.209  17.191   7.078  0.4798  0.0137  0.2610
  886YOPE   C2B11774  18.152  16.972   7.484 -0.1048  0.1576 -0.2772
  886YOPE   D3B11775  18.299  16.915   7.852 -0.1024 -0.0643 -0.0342
  886YOPE   C4B11776  18.410  16.996   8.200  0.2452 -0.3252 -0.1799
  887YOPE   NH311777  11.557  15.973   5.676  0.1342 -0.1039 -0.0774
  887YOPE   PO411778  11.738  15.520   5.815  0.0831  0.0646  0.3103
  887YOPE   GL111779  11.391  15.662   6.150  0.0905  0.4583 -0.3507
  887YOPE   GL211780  11.557  15.995   6.234  0.2631  0.1936 -0.3273
  887YOPE   C1A11781  11.422  15.657   6.615 -0.0211  0.0753 -0.0250
  887YOPE   D2A11782  11.276  15.677   7.004  0.2038  0.0526  0.2784
  887YOPE   C3A11783  11.482  15.788   7.297 -0.1309  0.0325 -0.2432
  887YOPE   C4A11784  11.584  15.930   7.787 -0.2785 -0.1525 -0.1241
  887YOPE   C1B11785  11.890  15.759   6.517  0.1812 -0.0191  0.2646
  887YOPE   C2B11786  11.878  15.372   6.653 -0.3602  0.5057  0.2270
  887YOPE   D3B11787  12.075  15.172   7.054 -0.2829  0.1610 -0.0581
  887YOPE   C4B11788  12.206  15.118   7.525  0.5049  0.2818 -0.0369
  888YOPE   NH311789  12.564   0.499   5.852 -0.0190 -0.1227  0.0959
  888YOPE   PO411790  12.181   0.908   5.942 -0.0384  0.0640  0.0534
  888YOPE   GL111791  12.311   0.703   6.257  0.0629  0.0005  0.1746
  888YOPE   GL211792  12.586   0.601   6.344  0.2957 -0.0062 -0.1626
  888YOPE   C1A11793  12.243   0.801   6.707 -0.0883  0.4826  0.0199
  888YOPE   D2A11794  12.131   0.845   7.125  0.2295 -0.1543 -0.0582
  888YOPE   C3A11795  12.074   1.101   7.518  0.0771 -0.1687  0.0489
  888YOPE   C4A11796  11.839   1.400   7.809  0.0716 -0.1037  0.0843
  888YOPE   C1B11797  12.746   0.293   6.708 -0.0575 -0.1769 -0.4131
  888YOPE   C2B11798  12.395   0.431   6.976 -0.3681 -0.2406  0.2860
  888YOPE   D3B11799  12.498   0.423   7.344  0.1117  0.1750  0.0187
  888YOPE   C4B11800  12.134   0.567   7.614  0.1546 -0.0528 -0.0391
  889YOPE   NH311801   9.450   3.727   5.728 -0.1949  0.2477 -0.1549
  889YOPE   PO411802   9.287   4.092   5.554  0.0623 -0.3528 -0.2232
  889YOPE   GL111803   9.341   4.187   6.074 -0.5193 -0.0581  0.4478
  889YOPE   GL211804   9.589   4.297   6.254 -0.1101 -0.1146 -0.0754
  889YOPE   C1A11805   9.219   3.807   6.343 -0.2444  0.3937  0.0501
  889YOPE   D2A11806   8.933   3.890   6.675 -0.0129 -0.1111  0.0127
  889YOPE   C3A11807   8.960   3.684   7.112 -0.0635 -0.2738  0.1559
  889YOPE   C4A11808   9.340   3.727   7.361 -0.0396 -0.0937 -0.1084
  889YOPE   C1B11809   9.598   4.110   6.580 -0.0956 -0.0553 -0.5080
  889YOPE   C2B11810   9.383   3.962   6.930 -0.2550 -0.0699  0.1500
  889YOPE   D3B11811   9.096   4.113   7.191 -0.1372 -0.2740  0.1033
  889YOPE   C4B11812   9.104   4.293   7.478  0.2350  0.2154 -0.2861
  890YOPE   NH311813   1.789   7.924   5.280 -0.0783  0.0440  0.1591
  890YOPE   PO411814   1.883   8.288   5.356  0.2923  0.1927  0.0963
  890YOPE   GL111815   2.107   8.181   5.782 -0.1917 -0.1352 -0.2502
  890YOPE   GL211816   2.079   8.188   6.112 -0.1770  0.2072 -0.1160
  890YOPE   C1A11817   2.426   7.946   5.914 -0.0789 -0.0622 -0.1028
  890YOPE   D2A11818   2.838   7.920   6.091 -0.2662  0.2989 -0.0354
  890YOPE   C3A11819   3.002   7.669   6.301  0.1392 -0.0239 -0.1395
  890YOPE   C4A11820   3.151   7.313   6.428 -0.2922  0.1452  0.1920
  890YOPE   C1B11821   2.043   8.005   6.569 -0.1446  0.1803 -0.0690
  890YOPE   C2B11822   2.173   7.694   6.933 -0.2632 -0.1806 -0.0060
  890YOPE   D3B11823   2.003   7.464   7.187  0.0032 -0.0491  0.2282
  890YOPE   C4B11824   1.965   7.055   7.353  0.3019 -0.2909  0.1522
  891YOPE   NH311825  10.461  17.021   5.580  0.4874  0.2023  0.0360
  891YOPE   PO411826  10.575  17.445   5.495 -0.1434 -0.0580 -0.1130
  891YOPE   GL111827  10.704  17.775   5.920  0.0214  0.1173 -0.1704
  891YOPE   GL211828  10.413  18.002   6.023 -0.4414 -0.0497  0.0321
  891YOPE   C1A11829  10.816  17.954   6.410  0.2832 -0.4712  0.0932
  891YOPE   D2A11830  10.752  18.042   6.729 -0.1705  0.0990 -0.2005
  891YOPE   C3A11831  10.820  17.911   7.128  0.2621  0.0807 -0.1901
  891YOPE   C4A11832  11.021  17.961   7.534 -0.2417 -0.2479 -0.1015
  891YOPE   C1B11833  10.025  18.245   6.193 -0.1069  0.0570 -0.0627
  891YOPE   C2B11834   9.892  18.500   6.561 -0.0674 -0.0475 -0.2215
  891YOPE   D3B11835   9.593  18.633   6.814  0.0715  0.2303 -0.0472
  891YOPE   C4B11836   9.645  18.270   7.091 -0.2823 -0.2134 -0.2311
  892YOPE   NH311837   7.897  11.485   6.019 -0.1786 -0.5697 -0.0923
  892YOPE   PO411838   7.715  11.885   5.996  0.2221  0.1529  0.2114
  892YOPE   GL111839   7.923  11.968   6.244  0.1108  0.2344 -0.1490
  892YOPE   GL211840   8.220  11.974   6.326  0.1294  0.3409 -0.0238
  892YOPE   C1A11841   7.928  12.268   6.685  0.1086  0.1430 -0.0742
  892YOPE   D2A11842   7.912  12.544   7.037  0.1388 -0.1161  0.1708
  892YOPE   C3A11843   7.829  12.647   7.507  0.3650  0.3906 -0.0537
  892YOPE   C4A11844   7.645  12.417   7.876  0.1545 -0.2282 -0.1252
  892YOPE   C1B11845   8.025  11.796   6.776  0.2289  0.1790 -0.0526
  892YOPE   C2B11846   7.794  11.616   7.163 -0.0095  0.0151  0.2210
  892YOPE   D3B11847   7.875  11.717   7.569  0.0400 -0.1977  0.0391
  892YOPE   C4B11848   7.795  11.961   7.892  0.0164  0.0921 -0.0342
  893YOPE   NH311849  10.637   6.013   5.916 -0.1013 -0.1344 -0.2287
  893YOPE   PO411850  10.785   5.541   5.879 -0.0583  0.4823 -0.2038
  893YOPE   GL111851  10.788   5.633   6.230 -0.0374 -0.3707 -0.1278
  893YOPE   GL211852  10.598   5.411   6.388  0.1989 -0.0067  0.1009
  893YOPE   C1A11853  10.786   5.873   6.607  0.4724  0.1790  0.0752
  893YOPE   D2A11854  10.555   5.823   6.953 -0.1363  0.1262 -0.0094
  893YOPE   C3A11855  10.613   6.098   7.275  0.0033  0.2837  0.2693
  893YOPE   C4A11856  10.718   6.417   7.556 -0.1678 -0.0130  0.1292
  893YOPE   C1B11857  10.879   5.432   6.830  0.0829 -0.2877  0.0483
  893YOPE   C2B11858  11.122   5.515   7.149  0.0418  0.4827 -0.1500
  893YOPE   D3B11859  11.413   5.756   7.205  0.3095 -0.0265  0.0284
  893YOPE   C4B11860  11.841   5.675   7.447  0.0690  0.1160  0.0134
  894YOPE   NH311861  14.583  17.627   6.303 -0.1480  0.1051 -0.4800
  894YOPE   PO411862  14.371  17.878   6.480 -0.1186 -0.3805 -0.2376
  894YOPE   GL111863  14.493  17.800   6.849  0.0499  0.1101 -0.1174
  894YOPE   GL211864  14.782  18.008   6.793 -0.2222 -0.2154  0.0417
  894YOPE   C1A11865  14.640  17.485   7.066 -0.0587  0.4524 -0.4965
  894YOPE   D2A11866  14.788  17.339   7.459 -0.3932  0.1188 -0.1621
  894YOPE   C3A11867  15.030  17.375   7.794 -0.0926  0.0569 -0.0604
  894YOPE   C4A11868  15.049  17.665   8.220  0.0274  0.1280  0.1891
  894YOPE   C1B11869  14.816  17.959   7.218 -0.0361 -0.1437  0.4194
  894YOPE   C2B11870  14.889  17.942   7.670 -0.0033  0.0473  0.0292
  894YOPE   D3B11871  14.596  17.682   7.856  0.3348  0.2065  0.2365
  894YOPE   C4B11872  14.480  17.888   8.306  0.2127 -0.2751 -0.0002
  895YOPE   NH311873   5.594   5.380   5.783  0.2628  0.0214  0.1359
  895YOPE   PO411874   5.146   5.481   5.555 -0.3677  0.1968 -0.0480
  895YOPE   GL111875   4.908   5.696   5.842  0.3911  0.1308 -0.2006
  895YOPE   GL211876   5.068   5.470   6.095  0.2410 -0.1420 -0.1153
  895YOPE   C1A11877   4.839   5.921   6.197 -0.0278  0.1094 -0.1637
  895YOPE   D2A11878   4.966   5.740   6.658 -0.1490  0.1396  0.1726
  895YOPE   C3A11879   4.955   5.383   6.712 -0.1405  0.3248  0.1283
  895YOPE   C4A11880   4.862   5.026   6.655 -0.2360 -0.0517  0.0877
  895YOPE   C1B11881   5.340   5.293   6.384 -0.2043 -0.0514 -0.0660
  895YOPE   C2B11882   5.292   5.081   6.855  0.2027  0.0732 -0.5124
  895YOPE   D3B11883   5.203   4.746   7.058 -0.1795  0.1372 -0.1389
  895YOPE   C4B11884   4.867   4.708   7.473 -0.1398  0.1122  0.1024
  896YOPE   NH311885   3.592  18.213   5.243  0.0366  0.1146 -0.3622
  896YOPE   PO411886   3.389  18.294   5.613 -0.1834  0.0682  0.0780
  896YOPE   GL111887   3.284  18.525   5.833 -0.0780  0.0445  0.1669
  896YOPE   GL211888   3.571  18.797   5.887  0.5009 -0.2276  0.3790
  896YOPE   C1A11889   3.396  18.637   6.283  0.1900 -0.0315  0.2083
  896YOPE   D2A11890   3.621  18.598   6.657 -0.0876 -0.1202 -0.2707
  896YOPE   C3A11891   3.506  18.610   7.066 -0.0384 -0.0772  0.0813
  896YOPE   C4A11892   3.292  18.750   7.486  0.0245  0.1265 -0.0698
  896YOPE   C1B11893   3.867  19.021   6.112 -0.1527  0.2871 -0.1204
  896YOPE   C2B11894   3.941  18.973   6.509  0.1694 -0.1003 -0.1290
  896YOPE   D3B11895   3.832  18.954   6.982  0.2985  0.0552 -0.4204
  896YOPE   C4B11896   3.789  18.945   7.384 -0.1436 -0.0048 -0.1580
  897YOPE   NH311897   8.169   5.150   5.580  0.1106 -0.2177  0.1948
  897YOPE   PO411898   7.724   5.404   5.630 -0.1539 -0.0939 -0.5299
  897YOPE   GL111899   7.904   5.447   6.062 -0.1782 -0.1423  0.1161
  897YOPE   GL211900   8.137   5.611   5.982 -0.1352  0.0184  0.0817
  897YOPE   C1A11901   8.031   5.202   6.459 -0.1547 -0.0680  0.2255
  897YOPE   D2A11902   7.857   5.109   6.797  0.2203  0.1734  0.1339
  897YOPE   C3A11903   7.846   5.292   7.219  0.3994 -0.2763 -0.0606
  897YOPE   C4A11904   7.602   5.607   7.511  0.3828  0.1755 -0.0208
  897YOPE   C1B11905   8.460   5.458   6.277  0.0752 -0.3132 -0.1797
  897YOPE   C2B11906   8.460   5.208   6.712 -0.1021  0.0251  0.3559
  897YOPE   D3B11907   8.321   5.089   7.071 -0.0010  0.3275  0.1759
  897YOPE   C4B11908   8.285   4.900   7.561 -0.1364 -0.3086  0.2805
  898YOPE   NH311909   4.274  15.229   4.985 -0.1628  0.1545 -0.1875
  898YOPE   PO411910   4.090  15.403   5.407 -0.0542  0.0203  0.3541
  898YOPE   GL111911   4.166  15.613   5.913 -0.0230 -0.2446 -0.0755
  898YOPE   GL211912   4.319  15.376   6.055 -0.0041 -0.0701  0.0217
  898YOPE   C1A11913   4.345  15.835   6.156 -0.1410  0.3934 -0.2170
  898YOPE   D2A11914   4.514  16.158   6.309  0.0670  0.3126  0.0841
  898YOPE   C3A11915   4.325  16.368   6.711 -0.2381 -0.0201 -0.0049
  898YOPE   C4A11916   4.306  16.365   7.097  0.0010 -0.0872 -0.1946
  898YOPE   C1B11917   4.024  15.403   6.371 -0.2155 -0.0776  0.1036
  898YOPE   C2B11918   3.985  15.464   6.815 -0.2711 -0.3117  0.1857
  898YOPE   D3B11919   3.769  15.389   7.184 -0.1213  0.1738 -0.0514
  898YOPE   C4B11920   3.692  15.171   7.433 -0.1805 -0.0631 -0.1412
  899YOPE   NH311921  14.597   1.951   5.989  0.1518  0.2439 -0.1873
  899YOPE   PO411922  14.424   2.406   5.980 -0.2767  0.1048 -0.0924
  899YOPE   GL111923  14.539   2.620   6.400  0.0531  0.2887  0.0609
  899YOPE   GL211924  14.246   2.560   6.594 -0.0944  0.0152 -0.1540
  899YOPE   C1A11925  14.653   2.796   6.785 -0.2183 -0.0532  0.0937
  899YOPE   D2A11926  14.645   2.899   7.274  0.3239  0.0215  0.0793
  899YOPE   C3A11927  14.535   3.287   7.534  0.0060  0.0152 -0.0922
  899YOPE   C4A11928  14.382   3.492   7.940 -0.1194  0.0569  0.1403
  899YOPE   C1B11929  14.255   2.785   7.008  0.2771  0.0131  0.0961
  899YOPE   C2B11930  14.200   2.837   7.536  0.0837 -0.5199 -0.3751
  899YOPE   D3B11931  14.226   2.905   8.024  0.2478  0.1102  0.3831
  899YOPE   C4B11932  14.480   2.775   8.325 -0.2235  0.2666  0.2143
  900YOPE   NH311933   4.912  14.498   5.106  0.0323  0.0558 -0.2900
  900YOPE   PO411934   4.720  14.643   5.483 -0.3006 -0.1536 -0.1810
  900YOPE   GL111935   4.651  14.571   5.906 -0.0591 -0.5415 -0.2530
  900YOPE   GL211936   4.872  14.398   6.129 -0.1723  0.3436 -0.0190
  900YOPE   C1A11937   4.407  14.506   6.234 -0.1375  0.1131  0.0943
  900YOPE   D2A11938   4.207  14.764   6.729 -0.1351 -0.2783  0.0115
  900YOPE   C3A11939   3.945  14.428   6.876  0.0626 -0.3659 -0.0139
  900YOPE   C4A11940   4.047  14.006   6.785 -0.0804  0.0434 -0.0597
  900YOPE   C1B11941   4.855  14.523   6.472 -0.0800  0.1204  0.0835
  900YOPE   C2B11942   4.724  14.675   6.884 -0.2331  0.1510  0.0651
  900YOPE   D3B11943   4.787  15.030   7.089  0.1529 -0.0470 -0.2673
  900YOPE   C4B11944   5.127  15.231   7.146 -0.4837  0.1967  0.1440
  901YOPE   NH311945   7.152   2.668   5.174 -0.1141  0.2492 -0.0196
  901YOPE   PO411946   6.669   2.579   5.357 -0.1159  0.3205  0.3446
  901YOPE   GL111947   6.887   2.714   5.740  0.1610  0.1610  0.2857
  901YOPE   GL211948   7.110   2.571   5.680  0.2402 -0.1548 -0.0145
  901YOPE   C1A11949   6.940   3.007   6.177  0.3148 -0.0027 -0.2203
  901YOPE   D2A11950   6.978   3.416   6.171 -0.1970  0.0066  0.2219
  901YOPE   C3A11951   7.185   3.684   5.893  0.0765  0.0663  0.0271
  901YOPE   C4A11952   7.336   4.094   5.870 -0.1323 -0.1391 -0.1184
  901YOPE   C1B11953   7.354   2.771   5.874  0.0065 -0.4123 -0.1137
  901YOPE   C2B11954   7.490   2.856   6.200  0.0622 -0.0067 -0.2725
  901YOPE   D3B11955   7.341   3.158   6.563 -0.1693  0.1772 -0.1961
  901YOPE   C4B11956   7.014   3.388   6.627  0.0138  0.0507  0.2386
  902YOPE   NH311957  11.313  12.138   6.496 -0.0179  0.0125 -0.0224
  902YOPE   PO411958  11.373  11.778   6.647 -0.2620 -0.3220 -0.0828
  902YOPE   GL111959  11.661  12.127   6.859  0.1781 -0.1938  0.0453
  902YOPE   GL211960  11.715  12.378   6.690  0.1884 -0.0600 -0.1352
  902YOPE   C1A11961  11.580  12.242   7.180 -0.1502  0.0229 -0.0355
  902YOPE   D2A11962  11.696  12.133   7.564  0.3264  0.3323  0.1545
  902YOPE   C3A11963  11.470  12.299   7.902 -0.0290  0.2409  0.0269
  902YOPE   C4A11964  11.456  12.120   8.389 -0.0195  0.5055 -0.1926
  902YOPE   C1B11965  12.024  12.445   6.970  0.4341  0.0530 -0.1926
  902YOPE   C2B11966  12.237  12.360   7.233 -0.2122  0.1421 -0.1893
  902YOPE   D3B11967  12.290  12.290   7.720  0.5638  0.0537 -0.1499
  902YOPE   C4B11968  12.602  12.271   8.102 -0.2008 -0.1811  0.1737
  903YOPE   NH311969   5.802   6.978   5.635 -0.0949 -0.1512 -0.0432
  903YOPE   PO411970   5.749   7.464   5.590  0.0500 -0.2126  0.0082
  903YOPE   GL111971   5.487   7.697   5.835  0.1091  0.1522 -0.1325
  903YOPE   GL211972   5.712   7.707   6.068 -0.0894  0.1166  0.0267
  903YOPE   C1A11973   5.292   7.659   6.282 -0.3797  0.1159  0.0697
  903YOPE   D2A11974   5.143   7.871   6.616  0.0113  0.1335 -0.1454
  903YOPE   C3A11975   5.027   7.735   6.976 -0.0042 -0.3075 -0.3672
  903YOPE   C4A11976   4.952   7.988   7.361  0.2538 -0.2007  0.0913
  903YOPE   C1B11977   5.539   8.067   6.322 -0.0777  0.0161 -0.0564
  903YOPE   C2B11978   5.331   8.395   6.563  0.2380  0.2560 -0.2110
  903YOPE   D3B11979   5.492   8.828   6.432  0.1573  0.0273  0.0028
  903YOPE   C4B11980   5.945   8.968   6.380  0.0004 -0.1375  0.2650
  904YOPE   NH311981  16.314  16.104   5.949  0.1949 -0.0218 -0.1998
  904YOPE   PO411982  16.767  16.061   5.959 -0.2098 -0.2172 -0.1527
  904YOPE   GL111983  16.674  15.834   6.322 -0.0146  0.0105 -0.1349
  904YOPE   GL211984  16.639  16.094   6.440 -0.0408  0.3005 -0.1587
  904YOPE   C1A11985  16.531  15.591   6.667  0.0524 -0.0758 -0.1045
  904YOPE   D2A11986  16.501  15.183   6.926  0.0556  0.0308 -0.2314
  904YOPE   C3A11987  16.205  15.115   7.248 -0.0984  0.1256 -0.0091
  904YOPE   C4A11988  16.083  14.890   7.485 -0.1530 -0.0023 -0.1854
  904YOPE   C1B11989  16.374  16.165   6.791  0.1740 -0.0715  0.0162
  904YOPE   C2B11990  16.403  16.126   7.124  0.3708  0.3955 -0.0958
  904YOPE   D3B11991  16.378  16.178   7.593  0.0285 -0.0511 -0.2994
  904YOPE   C4B11992  16.249  16.226   8.033  0.0274  0.0865  0.1033
  905YOPE   NH311993   8.960   4.426   5.419  0.0434 -0.0676 -0.2142
  905YOPE   PO411994   8.999   4.873   5.518 -0.0491  0.4033  0.1679
  905YOPE   GL111995   8.935   4.681   5.924 -0.2690 -0.0294  0.1627
  905YOPE   GL211996   9.047   4.991   6.072  0.0905  0.2496 -0.0987
  905YOPE   C1A11997   8.830   4.377   6.126 -0.0668 -0.0936 -0.1334
  905YOPE   D2A11998   8.664   4.274   6.439 -0.0393  0.0949  0.2325
  905YOPE   C3A11999   8.697   4.264   6.877 -0.1936  0.0691  0.0338
  905YOPE   C4A12000   8.573   4.048   7.173 -0.0597  0.0301  0.0222
  905YOPE   C1B12001   9.187   4.698   6.383  0.2492 -0.0286  0.1093
  905YOPE   C2B12002   9.162   4.386   6.707  0.3307 -0.1979  0.1469
  905YOPE   D3B12003   9.263   4.588   7.058 -0.1368  0.1864 -0.2557
  905YOPE   C4B12004   9.080   4.764   7.384  0.0848 -0.0161 -0.0132
  906YOPE   NH312005   0.317  13.445   5.888 -0.0145  0.2314  0.1122
  906YOPE   PO412006   0.467  13.826   6.132  0.0796 -0.1295 -0.2711
  906YOPE   GL112007   0.823  13.916   6.221  0.0950  0.2124  0.1198
  906YOPE   GL212008   1.206  13.805   6.081 -0.0054 -0.0458 -0.2658
  906YOPE   C1A12009   1.097  13.875   6.668 -0.1290  0.1154 -0.0036
  906YOPE   D2A12010   1.435  13.537   6.658  0.0876  0.1446  0.1135
  906YOPE   C3A12011   1.867  13.679   6.844  0.0356 -0.3016  0.2046
  906YOPE   C4A12012   2.095  13.790   7.255 -0.1484 -0.0837  0.0801
  906YOPE   C1B12013   1.508  13.885   6.361 -0.0949 -0.1928 -0.2476
  906YOPE   C2B12014   1.860  14.212   6.559  0.0372  0.0888  0.0915
  906YOPE   D3B12015   2.026  14.400   6.966 -0.1258  0.1308 -0.2452
  906YOPE   C4B12016   2.166  14.291   7.349 -0.2696 -0.1839 -0.1649
  907YOPE   NH312017  18.071   2.557   5.678  0.1159 -0.1707 -0.4086
  907YOPE   PO412018  18.215   2.577   6.075  0.0740 -0.3326  0.4977
  907YOPE   GL112019  18.672   2.561   6.208  0.2251 -0.1480  0.1522
  907YOPE   GL212020  18.804   2.830   6.232 -0.0624  0.1906  0.0478
  907YOPE   C1A12021  18.751   2.471   6.599  0.2465 -0.0876  0.2111
  907YOPE   D2A12022  18.950   2.359   6.970 -0.1918  0.1792 -0.3986
  907YOPE   C3A12023  18.827   2.480   7.380 -0.0127  0.2293 -0.3351
  907YOPE   C4A12024  18.996   2.370   7.844  0.0957 -0.3243 -0.0213
  907YOPE   C1B12025  18.862   2.976   6.656 -0.0104  0.0226 -0.0718
  907YOPE   C2B12026  18.753   3.266   6.963 -0.1691 -0.0767 -0.3350
  907YOPE   D3B12027  18.826   3.532   7.252 -0.0328 -0.4047 -0.0514
  907YOPE   C4B12028  18.755   3.795   7.583 -0.1230  0.4781 -0.0188
  908YOPE   NH312029   0.462  16.327   6.230 -0.0187  0.3079 -0.1157
  908YOPE   PO412030   0.677  16.618   5.856 -0.2785  0.0465 -0.3212
  908YOPE   GL112031   0.831  16.745   6.335 -0.1695 -0.1611 -0.1985
  908YOPE   GL212032   0.481  16.881   6.406  0.3218  0.3756  0.3238
  908YOPE   C1A12033   0.954  16.968   6.663 -0.1034  0.0606  0.2594
  908YOPE   D2A12034   1.137  17.338   6.831 -0.1568  0.1122 -0.1696
  908YOPE   C3A12035   0.982  17.403   7.303 -0.0539  0.1312 -0.4085
  908YOPE   C4A12036   1.025  17.086   7.675 -0.0684 -0.2456  0.1556
  908YOPE   C1B12037   0.289  17.206   6.678  0.2783 -0.1349 -0.1194
  908YOPE   C2B12038   0.270  17.350   7.208  0.2983 -0.2744  0.1500
  908YOPE   D3B12039   0.556  17.656   7.427  0.1064  0.0136 -0.0294
  908YOPE   C4B12040   0.921  17.708   7.756  0.1287  0.0478 -0.1595
  909YOPE   NH312041   9.026   3.674   5.426  0.0247  0.1943  0.3727
  909YOPE   PO412042   8.914   3.301   5.227  0.0378  0.2735  0.2175
  909YOPE   GL112043   8.704   3.368   5.639 -0.0753 -0.0860 -0.0297
  909YOPE   GL212044   8.906   3.530   5.888  0.0320 -0.2960 -0.0644
  909YOPE   C1A12045   8.337   3.149   5.773 -0.0961 -0.0792 -0.0778
  909YOPE   D2A12046   8.043   3.228   6.102 -0.1256 -0.0230  0.0016
  909YOPE   C3A12047   7.542   3.352   6.119  0.0607  0.1360 -0.2245
  909YOPE   C4A12048   7.428   3.775   6.324  0.0399  0.0160  0.0385
  909YOPE   C1B12049   8.947   3.407   6.362  0.3373  0.3251  0.0724
  909YOPE   C2B12050   8.866   3.291   6.698  0.2333  0.0453 -0.2161
  909YOPE   D3B12051   8.775   3.160   7.171  0.1383  0.1596 -0.0518
  909YOPE   C4B12052   8.549   3.038   7.578 -0.2897  0.1987 -0.0574
  910YOPE   NH312053  10.475  13.135   6.170  0.0450  0.0461  0.1318
  910YOPE   PO412054  10.300  12.679   6.319 -0.1182 -0.3318 -0.2084
  910YOPE   GL112055  10.321  12.723   6.653  0.0710  0.0643 -0.0757
  910YOPE   GL212056  10.701  12.701   6.712 -0.0505  0.3685  0.1684
  910YOPE   C1A12057  10.530  13.081   6.851 -0.1250 -0.1874 -0.0720
  910YOPE   D2A12058  10.586  13.026   7.281  0.1499 -0.2805  0.0176
  910YOPE   C3A12059  10.838  12.583   7.390 -0.0492  0.2104  0.0060
  910YOPE   C4A12060  11.280  12.575   7.436 -0.1732  0.2895  0.1682
  910YOPE   C1B12061  10.459  12.611   7.079  0.0308  0.0619  0.0782
  910YOPE   C2B12062  10.312  12.666   7.417  0.4315  0.0740  0.2062
  910YOPE   D3B12063  10.588  12.753   7.769 -0.0494  0.0386 -0.4804
  910YOPE   C4B12064  10.959  12.535   7.861  0.0124  0.0171 -0.1859
  911YOPE   NH312065  11.082  17.580   5.601  0.1002  0.3522 -0.1152
  911YOPE   PO412066  11.057  18.070   5.568 -0.2874  0.0867 -0.3092
  911YOPE   GL112067  11.088  18.090   5.990 -0.0334  0.0561  0.0586
  911YOPE   GL212068  11.374  17.913   5.932 -0.3102  0.0596  0.0340
  911YOPE   C1A12069  11.252  18.189   6.549  0.1901 -0.0085  0.3597
  911YOPE   D2A12070  11.262  18.119   6.995  0.1004  0.5786 -0.0616
  911YOPE   C3A12071  11.341  18.409   7.248 -0.2179  0.2515  0.0446
  911YOPE   C4A12072  11.589  18.565   7.683 -0.1727 -0.3292 -0.0446
  911YOPE   C1B12073  11.644  17.926   6.315  0.2104 -0.2232  0.2666
  911YOPE   C2B12074  11.721  17.850   6.679 -0.0158  0.0069 -0.2381
  911YOPE   D3B12075  11.731  17.935   7.090  0.0743  0.2003  0.1308
  911YOPE   C4B12076  11.772  17.882   7.586 -0.0394  0.0255 -0.3645
  912YOPE   NH312077  18.310  10.627   5.811  0.0808  0.0648 -0.0127
  912YOPE   PO412078  17.939  10.843   5.644 -0.1051 -0.1346 -0.3207
  912YOPE   GL112079  17.622  10.951   5.874  0.1492  0.0786  0.0383
  912YOPE   GL212080  17.452  11.208   5.794  0.0147  0.0486 -0.0819
  912YOPE   C1A12081  17.416  10.895   6.336 -0.0782 -0.1320 -0.0426
  912YOPE   D2A12082  17.617  10.943   6.751 -0.3363 -0.0701 -0.2499
  912YOPE   C3A12083  17.557  10.985   7.121  0.0708  0.0701 -0.0574
  912YOPE   C4A12084  17.830  10.991   7.444 -0.2193  0.1412 -0.2294
  912YOPE   C1B12085  17.768  11.277   6.187 -0.0660 -0.3164 -0.0107
  912YOPE   C2B12086  18.068  11.109   6.510  0.3939 -0.1924 -0.1331
  912YOPE   D3B12087  18.433  11.095   6.860 -0.0914 -0.2865  0.0717
  912YOPE   C4B12088  18.458  10.941   7.271 -0.0291 -0.1345 -0.1136
  913YOPE   NH312089   0.545  14.255   5.789  0.1683 -0.2692  0.1969
  913YOPE   PO412090   0.182  14.578   5.912  0.1318 -0.0674 -0.4257
  913YOPE   GL112091   0.160  14.612   6.395 -0.0858  0.4249  0.2483
  913YOPE   GL212092   0.435  14.358   6.315  0.2130  0.0850 -0.1562
  913YOPE   C1A12093   0.387  14.642   6.755  0.1268 -0.2448 -0.2565
  913YOPE   D2A12094   0.694  14.634   7.025  0.2223  0.1926 -0.1893
  913YOPE   C3A12095   1.103  14.428   6.984 -0.0754 -0.0171  0.1874
  913YOPE   C4A12096   1.378  14.323   6.658 -0.0915  0.0681 -0.0972
  913YOPE   C1B12097   0.624  14.183   6.746  0.3847 -0.0748 -0.2755
  913YOPE   C2B12098   0.735  14.125   7.123 -0.1159 -0.2703  0.3089
  913YOPE   D3B12099   1.172  14.027   7.505 -0.1971 -0.2603 -0.0441
  913YOPE   C4B12100   1.647  14.036   7.654 -0.0529 -0.1864 -0.1621
  914YOPE   NH312101   4.794  10.133   5.392  0.0513 -0.0879  0.2660
  914YOPE   PO412102   4.492   9.886   5.675  0.0934 -0.1587  0.3436
  914YOPE   GL112103   4.230   9.838   6.000 -0.2370  0.0624 -0.1259
  914YOPE   GL212104   3.996   9.923   6.051  0.1194  0.1229 -0.3300
  914YOPE   C1A12105   4.326   9.802   6.407 -0.2969  0.0370 -0.0190
  914YOPE   D2A12106   4.388   9.783   6.792 -0.1151  0.3645  0.1839
  914YOPE   C3A12107   4.159   9.670   7.031 -0.2077  0.0748  0.1451
  914YOPE   C4A12108   3.989   9.582   7.433  0.0947 -0.0977  0.2115
  914YOPE   C1B12109   3.887  10.021   6.460 -0.2650 -0.0749 -0.2117
  914YOPE   C2B12110   3.956  10.137   6.973  0.2231  0.0688 -0.0370
  914YOPE   D3B12111   3.638  10.076   7.323  0.2087 -0.3640 -0.0204
  914YOPE   C4B12112   3.499   9.851   7.602 -0.0491 -0.0273 -0.1124
  915YOPE   NH312113  13.438  11.156   6.456  0.2365  0.1660 -0.2421
  915YOPE   PO412114  13.732  10.864   6.383 -0.0498 -0.2964  0.2832
  915YOPE   GL112115  14.029  10.934   6.758  0.1651  0.0799  0.0862
  915YOPE   GL212116  13.851  11.183   6.877 -0.2635  0.0735 -0.0498
  915YOPE   C1A12117  14.293  10.797   7.123 -0.0208 -0.2153 -0.0383
  915YOPE   D2A12118  14.254  11.134   7.428  0.0669  0.1631  0.0419
  915YOPE   C3A12119  14.154  10.992   7.815 -0.0415 -0.2414  0.3108
  915YOPE   C4A12120  14.001  11.075   8.225 -0.4554 -0.2618 -0.3714
  915YOPE   C1B12121  13.980  11.375   7.089  0.2826 -0.0285 -0.0383
  915YOPE   C2B12122  13.956  11.551   7.411 -0.1290 -0.1569 -0.5448
  915YOPE   D3B12123  13.982  11.541   7.695 -0.0191  0.0885  0.1302
  915YOPE   C4B12124  13.762  11.457   8.033 -0.0017  0.4247  0.1433
  916YOPE   NH312125   0.910   8.358   5.481 -0.1022 -0.0737  0.2923
  916YOPE   PO412126   0.356   8.387   5.609  0.0873  0.2869  0.2624
  916YOPE   GL112127   0.079   8.352   5.942  0.0257  0.1929  0.1007
  916YOPE   GL212128  -0.056   8.579   6.103  0.1786 -0.0076  0.0636
  916YOPE   C1A12129   0.002   8.150   6.376  0.0033  0.2830 -0.4025
  916YOPE   D2A12130  -0.287   8.043   6.696  0.1817 -0.1323  0.1144
  916YOPE   C3A12131  -0.218   7.805   7.082 -0.0588  0.0132  0.0273
  916YOPE   C4A12132  -0.158   7.364   7.302  0.1247 -0.1793 -0.1041
  916YOPE   C1B12133  -0.153   8.644   6.526 -0.1919  0.2242 -0.3205
  916YOPE   C2B12134  -0.149   8.679   6.988  0.1267 -0.1281  0.2913
  916YOPE   D3B12135  -0.369   8.660   7.251 -0.4514  0.0025  0.0275
  916YOPE   C4B12136  -0.590   8.584   7.580  0.2584  0.2312 -0.0059
  917YOPE   NH312137   3.157  14.002   5.583 -0.1968  0.1886 -0.1626
  917YOPE   PO412138   2.679  14.018   5.481 -0.0318  0.0294  0.2384
  917YOPE   GL112139   2.652  13.968   5.880 -0.1015 -0.3239  0.1076
  917YOPE   GL212140   2.416  14.285   5.863 -0.0903  0.2718 -0.1225
  917YOPE   C1A12141   2.860  13.965   6.350 -0.0086 -0.1212 -0.0910
  917YOPE   D2A12142   2.997  13.800   6.716  0.0765  0.2663 -0.1528
  917YOPE   C3A12143   3.083  13.950   7.182  0.1031 -0.2704  0.1328
  917YOPE   C4A12144   2.927  14.191   7.626 -0.0856 -0.2592 -0.0798
  917YOPE   C1B12145   2.709  14.446   6.196 -0.2907  0.2584  0.1543
  917YOPE   C2B12146   2.690  14.820   6.390  0.0120 -0.1055  0.2009
  917YOPE   D3B12147   2.405  15.038   6.513 -0.1491  0.1204  0.1198
  917YOPE   C4B12148   2.392  15.313   6.755 -0.0214  0.2985 -0.0108
  918YOPE   NH312149  17.253   3.851   5.755 -0.0578  0.1242 -0.1937
  918YOPE   PO412150  17.248   3.436   5.691 -0.2055  0.3534  0.0650
  918YOPE   GL112151  17.299   3.440   6.124  0.2238 -0.1158  0.0473
  918YOPE   GL212152  17.562   3.710   6.156  0.0931  0.1752 -0.2025
  918YOPE   C1A12153  17.505   3.209   6.349  0.2620 -0.0492  0.0075
  918YOPE   D2A12154  17.464   3.317   6.804  0.0677  0.3093  0.1096
  918YOPE   C3A12155  17.195   3.662   6.864  0.2622  0.1955  0.1338
  918YOPE   C4A12156  16.669   3.544   6.812  0.3448 -0.1455 -0.1145
  918YOPE   C1B12157  17.421   3.912   6.477 -0.1310  0.2075  0.0650
  918YOPE   C2B12158  17.358   4.127   6.828  0.2089 -0.0549 -0.1071
  918YOPE   D3B12159  17.314   4.182   7.255 -0.0022 -0.0043  0.0418
  918YOPE   C4B12160  16.936   4.267   7.606  0.1654  0.1532 -0.1345
  919YOPE   NH312161   5.226   1.026   5.198 -0.2133 -0.3800  0.1668
  919YOPE   PO412162   5.451   0.896   5.446 -0.3498 -0.3244 -0.5234
  919YOPE   GL112163   5.350   0.695   5.893  0.0186 -0.2449 -0.2239
  919YOPE   GL212164   5.487   0.422   5.640 -0.0001 -0.0483  0.0265
  919YOPE   C1A12165   5.094   0.844   6.311 -0.1917 -0.2164 -0.1160
  919YOPE   D2A12166   5.010   0.990   6.772 -0.1150  0.2047 -0.1367
  919YOPE   C3A12167   5.048   0.920   7.010  0.0766 -0.1309 -0.3036
  919YOPE   C4A12168   5.260   0.823   7.386 -0.0002  0.2472  0.2133
  919YOPE   C1B12169   5.191   0.226   5.904  0.0131  0.1090 -0.1612
  919YOPE   C2B12170   5.332   0.293   6.276  0.3071 -0.1981  0.1472
  919YOPE   D3B12171   5.494   0.053   6.659 -0.0823  0.1181  0.0615
  919YOPE   C4B12172   5.759   0.138   6.922  0.2889 -0.0026 -0.2155
  920YOPE   NH312173   0.178   8.839   5.744  0.1339  0.2958  0.3321
  920YOPE   PO412174   0.032   9.203   5.755  0.1246 -0.2627  0.1253
  920YOPE   GL112175  -0.284   9.510   5.965 -0.0912 -0.1359  0.1090
  920YOPE   GL212176  -0.157   9.755   6.095 -0.4015  0.3237  0.1692
  920YOPE   C1A12177  -0.803   9.399   6.137  0.0476  0.0911  0.0928
  920YOPE   D2A12178  -0.837   9.440   6.657 -0.2615 -0.1360 -0.0351
  920YOPE   C3A12179  -0.813   9.535   7.023  0.1766  0.1323  0.0728
  920YOPE   C4A12180  -0.869   9.316   7.433  0.0716 -0.0585 -0.1981
  920YOPE   C1B12181  -0.442   9.703   6.458 -0.3902 -0.1772 -0.1838
  920YOPE   C2B12182  -0.390   9.422   6.955 -0.3942 -0.1916  0.1409
  920YOPE   D3B12183  -0.373   9.202   7.312 -0.0922  0.3288 -0.0284
  920YOPE   C4B12184  -0.395   9.087   7.810  0.0906 -0.3153  0.1446
  921YOPE   NH312185  16.237   4.054   5.431 -0.3576 -0.0281 -0.2314
  921YOPE   PO412186  15.937   3.786   5.486  0.1155  0.3823 -0.1309
  921YOPE   GL112187  15.875   3.896   5.915 -0.2902 -0.0021  0.1737
  921YOPE   GL212188  15.533   3.733   6.046  0.1083 -0.1106  0.3368
  921YOPE   C1A12189  15.757   4.001   6.389  0.2520  0.0979  0.3542
  921YOPE   D2A12190  15.715   3.921   6.858  0.0528 -0.1324  0.0451
  921YOPE   C3A12191  15.743   3.715   7.365 -0.2204 -0.0892  0.2146
  921YOPE   C4A12192  16.101   3.326   7.509 -0.0496  0.1292 -0.4589
  921YOPE   C1B12193  15.332   3.827   6.498  0.0792  0.1952 -0.4202
  921YOPE   C2B12194  15.197   3.755   6.887 -0.0433 -0.1880  0.3326
  921YOPE   D3B12195  15.061   3.645   7.380 -0.0300  0.4376 -0.0217
  921YOPE   C4B12196  15.348   3.594   7.787  0.2202  0.0179 -0.1005
  922YOPE   NH312197  14.237  11.676   6.098 -0.2229 -0.2945  0.0685
  922YOPE   PO412198  13.861  11.576   6.158  0.2358  0.0267 -0.1707
  922YOPE   GL112199  13.992  11.696   6.628  0.1513  0.1732  0.0870
  922YOPE   GL212200  14.328  11.900   6.587  0.0889 -0.2656  0.1796
  922YOPE   C1A12201  13.857  11.898   7.068  0.0179  0.3147 -0.4062
  922YOPE   D2A12202  13.902  12.317   7.211 -0.1637 -0.1438  0.0750
  922YOPE   C3A12203  14.162  12.309   7.649  0.3397 -0.0865 -0.0736
  922YOPE   C4A12204  14.252  12.504   8.052 -0.0885  0.3256 -0.1451
  922YOPE   C1B12205  14.282  12.232   6.923 -0.0336 -0.1835 -0.0663
  922YOPE   C2B12206  14.350  12.533   7.250  0.0075 -0.2819 -0.0780
  922YOPE   D3B12207  14.550  12.668   7.574 -0.0614 -0.0132 -0.1245
  922YOPE   C4B12208  14.783  12.817   7.889 -0.0234 -0.0488 -0.2424
  923YOPE   NH312209   2.954   7.382   5.283 -0.0369  0.2458 -0.2412
  923YOPE   PO412210   3.347   7.103   5.187 -0.3289  0.2120 -0.1398
  923YOPE   GL112211   3.377   7.156   5.616 -0.2290 -0.0133  0.0374
  923YOPE   GL212212   3.587   6.960   5.696 -0.0782  0.0333 -0.0308
  923YOPE   C1A12213   3.188   7.447   5.881  0.1874  0.0943 -0.1631
  923YOPE   D2A12214   2.724   7.462   5.980 -0.1633  0.2207  0.1659
  923YOPE   C3A12215   2.652   7.226   6.305 -0.1724  0.1969  0.0773
  923YOPE   C4A12216   2.698   7.011   6.676 -0.1191  0.3319 -0.1572
  923YOPE   C1B12217   3.514   7.163   6.143  0.0897 -0.1618  0.4423
  923YOPE   C2B12218   3.612   7.170   6.645  0.3320 -0.0697  0.3651
  923YOPE   D3B12219   3.460   6.804   6.921 -0.0284 -0.3801 -0.3051
  923YOPE   C4B12220   3.594   6.733   7.325  0.1559 -0.0729 -0.0177
  924YOPE   NH312221   0.401   0.431   6.008  0.0407  0.1084  0.1528
  924YOPE   PO412222   0.117   0.211   6.058 -0.0693 -0.1678  0.0501
  924YOPE   GL112223  -0.101   0.174   6.460  0.1368 -0.0864 -0.1882
  924YOPE   GL212224   0.227   0.243   6.543 -0.2956 -0.1131  0.1387
  924YOPE   C1A12225  -0.339   0.302   6.822  0.0261  0.1748 -0.1130
  924YOPE   D2A12226  -0.312   0.315   7.271 -0.1680 -0.0157  0.0019
  924YOPE   C3A12227  -0.414   0.225   7.638 -0.1105 -0.2445  0.0186
  924YOPE   C4A12228  -0.097   0.252   7.957 -0.0346 -0.2922 -0.2015
  924YOPE   C1B12229   0.119   0.390   6.949  0.0947  0.2334  0.2371
  924YOPE   C2B12230   0.164   0.508   7.392  0.0768  0.0210  0.0704
  924YOPE   D3B12231  -0.147   0.658   7.618  0.2157 -0.1297 -0.1084
  924YOPE   C4B12232  -0.140   0.747   8.089  0.2000  0.3423  0.1150
  925YOPE   NH312233   4.004   8.784   5.459  0.0105  0.2141  0.0078
  925YOPE   PO412234   3.784   9.222   5.457  0.1722  0.0044  0.0379
  925YOPE   GL112235   3.796   9.189   5.898 -0.0781 -0.2135  0.1678
  925YOPE   GL212236   3.483   9.384   5.983 -0.0408 -0.1733  0.0505
  925YOPE   C1A12237   3.957   9.345   6.243  0.1489 -0.0631 -0.2003
  925YOPE   D2A12238   4.006   9.487   6.639 -0.1054  0.0630 -0.1253
  925YOPE   C3A12239   4.089   9.205   6.979  0.1019  0.2326 -0.3417
  925YOPE   C4A12240   4.450   8.903   7.017 -0.1612  0.0434 -0.0086
  925YOPE   C1B12241   3.580   9.673   6.367  0.3103  0.0836  0.1817
  925YOPE   C2B12242   3.458   9.959   6.736  0.0535 -0.1663 -0.2066
  925YOPE   D3B12243   3.211  10.185   7.039  0.0367 -0.3584  0.1361
  925YOPE   C4B12244   3.229  10.321   7.490  0.3637  0.2501 -0.0603
  926YOPE   NH312245  14.002   8.360   5.713 -0.0090 -0.0257 -0.2713
  926YOPE   PO412246  14.161   8.804   5.762  0.2296 -0.3652 -0.1234
  926YOPE   GL112247  14.369   8.596   6.093  0.0325 -0.1089  0.4316
  926YOPE   GL212248  14.537   8.363   6.047  0.0783  0.0977 -0.0312
  926YOPE   C1A12249  14.379   8.660   6.523 -0.0807  0.1678  0.0075
  926YOPE   D2A12250  14.231   8.748   6.897  0.0647  0.1622 -0.4419
  926YOPE   C3A12251  14.377   8.625   7.258  0.3130  0.0552 -0.0417
  926YOPE   C4A12252  14.679   8.608   7.568  0.1040  0.1930 -0.2345
  926YOPE   C1B12253  14.749   8.346   6.422  0.2036  0.0067 -0.0783
  926YOPE   C2B12254  14.883   8.373   6.792  0.1153  0.3055 -0.0078
  926YOPE   D3B12255  14.740   8.387   7.112 -0.0886 -0.2176  0.0443
  926YOPE   C4B12256  14.879   8.150   7.488  0.1253 -0.0275 -0.1167
  927YOPE   NH312257  17.970  14.304   5.854 -0.1023 -0.1589  0.1690
  927YOPE   PO412258  18.310  13.925   5.962 -0.1170  0.2131  0.1957
  927YOPE   GL112259  18.501  13.671   6.290  0.0564  0.4713  0.2684
  927YOPE   GL212260  18.719  13.522   6.275  0.2381  0.4781  0.1146
  927YOPE   C1A12261  18.394  13.684   6.756  0.2432 -0.3942 -0.2610
  927YOPE   D2A12262  18.542  13.682   7.209 -0.2006  0.0331  0.1616
  927YOPE   C3A12263  18.555  13.915   7.510  0.2454  0.0691  0.0508
  927YOPE   C4A12264  18.344  13.803   7.871  0.2054 -0.5062 -0.0005
  927YOPE   C1B12265  18.841  13.449   6.708 -0.1238 -0.1553  0.0717
  927YOPE   C2B12266  18.999  13.554   7.066 -0.2056  0.2823  0.1048
  927YOPE   D3B12267  19.207  13.756   7.329  0.0315 -0.1730  0.0876
  927YOPE   C4B12268  19.004  13.708   7.753  0.0295  0.2257  0.0082
  928YOPE   NH312269  17.703  16.923   6.342  0.0077  0.0591  0.2169
  928YOPE   PO412270  17.908  16.594   6.273 -0.0953 -0.0327 -0.0782
  928YOPE   GL112271  17.695  16.385   6.531 -0.1102  0.1725 -0.0459
  928YOPE   GL212272  17.955  16.344   6.770  0.1265  0.3435  0.0224
  928YOPE   C1A12273  17.264  16.217   6.746  0.0304  0.0905 -0.1955
  928YOPE   D2A12274  16.867  16.291   6.889  0.0219 -0.0409 -0.0831
  928YOPE   C3A12275  16.828  16.285   7.330  0.3784 -0.0182  0.2237
  928YOPE   C4A12276  17.059  16.229   7.612 -0.0231 -0.0983  0.2165
  928YOPE   C1B12277  17.928  16.085   7.126 -0.0476  0.1420 -0.2537
  928YOPE   C2B12278  17.827  15.832   7.489  0.1217 -0.2409  0.1982
  928YOPE   D3B12279  17.804  15.440   7.799 -0.0809 -0.1851 -0.0134
  928YOPE   C4B12280  17.638  15.521   8.251  0.1504  0.0738 -0.0184
  929YOPE   NH312281  10.158   4.418   6.034 -0.0768 -0.2296 -0.4088
  929YOPE   PO412282  10.145   3.937   6.150 -0.1171 -0.1579 -0.3450
  929YOPE   GL112283  10.066   4.142   6.541  0.3026 -0.0981 -0.0859
  929YOPE   GL212284  10.374   4.331   6.532  0.5014 -0.0765  0.0882
  929YOPE   C1A12285  10.132   4.125   6.990  0.1526 -0.1920 -0.3571
  929YOPE   D2A12286  10.144   4.088   7.386  0.1237  0.0055 -0.3559
  929YOPE   C3A12287  10.651   4.349   7.440  0.0438  0.2457  0.1672
  929YOPE   C4A12288  11.022   4.399   7.607 -0.6241 -0.1111 -0.2049
  929YOPE   C1B12289  10.546   4.433   6.934  0.5875  0.1947 -0.0131
  929YOPE   C2B12290  10.779   4.741   7.151 -0.1772 -0.0162  0.1491
  929YOPE   D3B12291  10.765   5.115   7.403  0.0447 -0.0628  0.4576
  929YOPE   C4B12292  10.641   5.116   7.846 -0.1473 -0.1656  0.3386
  930YOPE   NH312293  14.126  18.346   6.432  0.3365 -0.2048  0.0532
  930YOPE   PO412294  14.546  18.430   6.419  0.0301  0.1305 -0.1439
  930YOPE   GL112295  14.621  18.665   6.780 -0.0348  0.0423  0.0555
  930YOPE   GL212296  14.716  18.453   7.103 -0.0592 -0.2325 -0.2878
  930YOPE   C1A12297  14.497  18.848   7.279 -0.0673 -0.1539 -0.0907
  930YOPE   D2A12298  14.549  18.737   7.716 -0.0852 -0.1147  0.0982
  930YOPE   C3A12299  14.253  18.652   8.047 -0.1919  0.3951 -0.0832
  930YOPE   C4A12300  14.093  18.477   8.229 -0.2166 -0.1480 -0.2044
  930YOPE   C1B12301  14.811  18.433   7.476  0.0849  0.2045  0.4108
  930YOPE   C2B12302  14.703  18.340   7.952  0.3055  0.0522 -0.0146
  930YOPE   D3B12303  14.609  18.389   8.402 -0.1731  0.0260  0.0821
  930YOPE   C4B12304  14.394  18.701   8.547  0.2110 -0.2584  0.0671
  931YOPE   NH312305   6.066   1.956   5.670  0.2114 -0.1304  0.1193
  931YOPE   PO412306   6.206   1.814   5.992  0.1576 -0.2500 -0.1721
  931YOPE   GL112307   6.556   1.851   6.181 -0.0323 -0.1928 -0.0470
  931YOPE   GL212308   6.933   1.737   6.073 -0.0036 -0.0661  0.1832
  931YOPE   C1A12309   6.845   1.940   6.634 -0.1602 -0.1060  0.3426
  931YOPE   D2A12310   6.808   1.971   7.142 -0.0653  0.0020 -0.2710
  931YOPE   C3A12311   7.164   1.821   7.460 -0.2852 -0.5646 -0.0613
  931YOPE   C4A12312   7.438   2.059   7.705  0.1934 -0.0312  0.3897
  931YOPE   C1B12313   6.863   2.249   6.040  0.3252  0.1515  0.0130
  931YOPE   C2B12314   6.986   2.514   6.332  0.0592  0.0819 -0.3022
  931YOPE   D3B12315   6.976   2.839   6.647 -0.3802  0.1501 -0.0214
  931YOPE   C4B12316   7.151   3.005   7.056 -0.1103  0.2434  0.0418
  932YOPE   NH312317  13.052  13.876   5.760 -0.3786  0.2783 -0.1473
  932YOPE   PO412318  13.444  14.118   5.722  0.2407 -0.2116  0.5163
  932YOPE   GL112319  13.342  14.466   5.921  0.2989  0.2415  0.2193
  932YOPE   GL212320  13.126  14.286   6.139 -0.2649  0.1908  0.1464
  932YOPE   C1A12321  13.257  14.708   6.247  0.0861  0.2198 -0.0988
  932YOPE   D2A12322  13.230  14.674   6.738 -0.1888 -0.0538  0.2825
  932YOPE   C3A12323  13.624  14.588   7.037  0.2124  0.0202  0.1048
  932YOPE   C4A12324  13.760  14.767   7.396  0.0746 -0.5343  0.1405
  932YOPE   C1B12325  13.432  14.292   6.507 -0.1352  0.0653 -0.1046
  932YOPE   C2B12326  13.524  14.123   6.979 -0.1038 -0.0063  0.1133
  932YOPE   D3B12327  13.746  14.225   7.384 -0.0015  0.6004  0.1283
  932YOPE   C4B12328  13.831  14.284   7.789 -0.0769 -0.3727  0.1591
  933YOPE   NH312329  15.130  16.903   6.026  0.3359 -0.1505 -0.0001
  933YOPE   PO412330  15.231  16.477   5.702  0.1012  0.0470 -0.2418
  933YOPE   GL112331  15.186  16.372   6.108  0.1077  0.0079 -0.1624
  933YOPE   GL212332  14.939  16.508   6.294 -0.1114 -0.0430 -0.0646
  933YOPE   C1A12333  15.306  16.265   6.480 -0.4543 -0.2003 -0.1581
  933YOPE   D2A12334  15.268  16.364   6.949  0.1365  0.0943 -0.1059
  933YOPE   C3A12335  15.056  16.418   7.257 -0.2701 -0.0158  0.1781
  933YOPE   C4A12336  14.924  16.216   7.642  0.0155 -0.3304  0.1021
  933YOPE   C1B12337  14.811  16.233   6.708  0.0555 -0.1082 -0.0593
  933YOPE   C2B12338  14.709  16.009   7.114  0.0619  0.1199 -0.0172
  933YOPE   D3B12339  14.444  16.304   7.418  0.1038  0.0128 -0.2100
  933YOPE   C4B12340  14.656  16.654   7.689 -0.0284 -0.1259  0.1316
  934YOPE   NH312341  15.073  14.378   5.847 -0.1180  0.3991 -0.1537
  934YOPE   PO412342  15.469  14.644   5.776 -0.0987  0.0373 -0.2263
  934YOPE   GL112343  15.505  14.720   6.221  0.2173 -0.1124  0.2282
  934YOPE   GL212344  15.592  14.994   6.307 -0.0106  0.2941  0.2019
  934YOPE   C1A12345  15.585  14.462   6.556 -0.0914 -0.0621 -0.0265
  934YOPE   D2A12346  15.591  14.172   6.975 -0.0307  0.0127 -0.1266
  934YOPE   C3A12347  15.605  14.103   7.367  0.0564 -0.0711 -0.0937
  934YOPE   C4A12348  15.413  13.810   7.728 -0.0334 -0.2025  0.2244
  934YOPE   C1B12349  15.307  14.877   6.706 -0.3519  0.3954 -0.0710
  934YOPE   C2B12350  15.192  14.963   7.101 -0.3014 -0.0111 -0.2099
  934YOPE   D3B12351  14.974  14.919   7.465 -0.0662  0.1530 -0.2114
  934YOPE   C4B12352  14.670  14.815   7.894 -0.0418  0.2206 -0.4797
  935YOPE   NH312353   2.106   1.789   5.886  0.3962  0.1140 -0.2690
  935YOPE   PO412354   2.179   2.240   5.771  0.2837 -0.0388 -0.1414
  935YOPE   GL112355   2.072   2.357   6.129  0.0024 -0.1382  0.0541
  935YOPE   GL212356   1.766   2.430   5.945  0.0821 -0.0898 -0.2597
  935YOPE   C1A12357   2.023   2.514   6.503 -0.2454  0.5469  0.2794
  935YOPE   D2A12358   2.027   2.636   7.013 -0.3904  0.1984 -0.0810
  935YOPE   C3A12359   1.584   2.516   7.163 -0.1283  0.0758 -0.0393
  935YOPE   C4A12360   1.204   2.487   6.921  0.1365  0.0423 -0.0974
  935YOPE   C1B12361   1.814   2.803   6.154 -0.1671 -0.2105  0.2488
  935YOPE   C2B12362   1.880   3.215   6.452  0.2375 -0.1798  0.1685
  935YOPE   D3B12363   1.576   3.287   6.774 -0.1814  0.2140 -0.2666
  935YOPE   C4B12364   1.414   3.487   7.079 -0.0606  0.1312  0.1657
  936YOPE   NH312365   9.069   7.700   5.961 -0.0097 -0.3009 -0.2499
  936YOPE   PO412366   9.366   7.929   5.710 -0.2869 -0.1275 -0.2372
  936YOPE   GL112367   9.596   7.688   6.071 -0.1836  0.2506  0.1761
  936YOPE   GL212368   9.382   7.742   6.350 -0.1825 -0.4089  0.2939
  936YOPE   C1A12369   9.687   7.344   6.292 -0.0741 -0.3812  0.0958
  936YOPE   D2A12370   9.585   7.076   6.667  0.1163 -0.4172 -0.2325
  936YOPE   C3A12371   9.385   6.982   6.908  0.0617  0.0231 -0.1689
  936YOPE   C4A12372   9.207   6.891   7.263 -0.3944  0.0260 -0.0131
  936YOPE   C1B12373   9.303   7.496   6.705  0.0290 -0.1267 -0.0522
  936YOPE   C2B12374   9.277   7.394   7.082 -0.0063  0.3461  0.0591
  936YOPE   D3B12375   9.020   7.353   7.462  0.2069 -0.1004  0.0874
  936YOPE   C4B12376   9.121   7.596   7.864  0.1063  0.2489  0.0706
  937YOPE   NH312377   1.458   1.583   5.331 -0.1724 -0.4017 -0.2335
  937YOPE   PO412378   1.787   1.459   5.646 -0.1086 -0.1230 -0.3039
  937YOPE   GL112379   1.721   1.443   6.153 -0.0603  0.1854 -0.3883
  937YOPE   GL212380   1.939   1.625   6.317 -0.2370  0.0751 -0.1063
  937YOPE   C1A12381   1.539   1.307   6.609 -0.2818 -0.1335 -0.0424
  937YOPE   D2A12382   1.570   0.964   6.888  0.0817  0.3632 -0.2476
  937YOPE   C3A12383   1.843   0.881   7.296 -0.3411 -0.2822  0.0745
  937YOPE   C4A12384   1.971   0.562   7.730  0.1269 -0.3016 -0.1285
  937YOPE   C1B12385   1.875   1.735   6.718  0.1740  0.0854  0.1032
  937YOPE   C2B12386   1.686   1.552   7.020  0.0995  0.1691 -0.0014
  937YOPE   D3B12387   1.514   1.206   7.362 -0.1874  0.3903  0.0679
  937YOPE   C4B12388   1.189   0.812   7.275 -0.1811  0.0040  0.2252
  938YOPE   NH312389   7.939   5.908   5.691  0.0230  0.0910  0.2835
  938YOPE   PO412390   8.046   6.374   5.817 -0.0919 -0.0753  0.2677
  938YOPE   GL112391   7.950   6.253   6.202  0.1356  0.2186  0.0475
  938YOPE   GL212392   7.801   5.974   6.202 -0.3414  0.1562 -0.2679
  938YOPE   C1A12393   7.711   6.281   6.663  0.2445 -0.1863  0.1336
  938YOPE   D2A12394   7.433   6.357   7.102 -0.1814 -0.3111 -0.0358
  938YOPE   C3A12395   7.381   6.057   7.426 -0.4661  0.1054 -0.1924
  938YOPE   C4A12396   7.107   6.351   7.688 -0.0853 -0.1675 -0.0084
  938YOPE   C1B12397   8.066   5.668   6.508 -0.2696  0.0550 -0.2175
  938YOPE   C2B12398   8.143   5.558   6.968  0.1494 -0.0779  0.1096
  938YOPE   D3B12399   8.292   5.424   7.434 -0.0222  0.1422 -0.4000
  938YOPE   C4B12400   8.577   5.320   7.805 -0.0656 -0.2009 -0.2747
  939YOPE   NH312401   0.171  10.124   5.766  0.1040  0.2264 -0.0511
  939YOPE   PO412402   0.669   9.963   5.767  0.1722 -0.1984  0.4207
  939YOPE   GL112403   0.633  10.128   6.133  0.0287 -0.1629  0.0183
  939YOPE   GL212404   0.543   9.910   6.309 -0.0637 -0.0396 -0.2250
  939YOPE   C1A12405   0.506  10.418   6.422  0.0903  0.1635 -0.0151
  939YOPE   D2A12406   0.481  10.660   6.724  0.2242  0.1932  0.2037
  939YOPE   C3A12407   0.675  10.724   7.126 -0.0149 -0.0889 -0.2463
  939YOPE   C4A12408   0.641  10.945   7.488  0.0192  0.0165  0.2402
  939YOPE   C1B12409   0.559   9.992   6.759 -0.0856 -0.0963 -0.1946
  939YOPE   C2B12410   0.775  10.046   7.141  0.1304 -0.4139  0.0775
  939YOPE   D3B12411   0.995   9.992   7.374 -0.1894 -0.1587  0.0378
  939YOPE   C4B12412   0.961  10.103   7.750  0.0399  0.1518 -0.0894
  940YOPE   NH312413   5.975  13.352   5.365  0.2448 -0.2486 -0.2751
  940YOPE   PO412414   6.049  13.826   5.385 -0.0272 -0.1676  0.0661
  940YOPE   GL112415   5.947  13.732   5.767  0.2649  0.0601  0.1441
  940YOPE   GL212416   6.199  13.781   5.903  0.2448 -0.0289  0.0287
  940YOPE   C1A12417   5.697  13.701   6.212  0.1282  0.1948  0.4396
  940YOPE   D2A12418   5.506  13.689   6.608  0.2073  0.0809 -0.2406
  940YOPE   C3A12419   5.731  13.806   7.099 -0.0007  0.1372 -0.1867
  940YOPE   C4A12420   5.855  13.718   7.445 -0.1770 -0.0162  0.1460
  940YOPE   C1B12421   6.097  13.893   6.312  0.2220 -0.1067 -0.2220
  940YOPE   C2B12422   5.944  14.023   6.660  0.0066 -0.0057 -0.1213
  940YOPE   D3B12423   6.061  14.174   6.992 -0.0598 -0.1194  0.0369
  940YOPE   C4B12424   6.144  14.042   7.236  0.0058  0.3849  0.1662
  941YOPE   NH312425   9.436  11.705   6.125 -0.0880 -0.0196 -0.0949
  941YOPE   PO412426   9.231  11.348   6.145  0.1665  0.0989 -0.0325
  941YOPE   GL112427   8.933  11.257   6.574 -0.0916  0.0440  0.1231
  941YOPE   GL212428   8.780  11.117   6.804  0.3421 -0.1612 -0.0259
  941YOPE   C1A12429   8.799  11.594   7.008 -0.1518 -0.1876 -0.1390
  941YOPE   D2A12430   8.793  11.724   7.458 -0.1346 -0.1423  0.0891
  941YOPE   C3A12431   8.521  12.002   7.640  0.3595 -0.1173  0.0748
  941YOPE   C4A12432   8.141  12.267   7.836 -0.1861 -0.0854 -0.0445
  941YOPE   C1B12433   8.650  10.948   7.132 -0.1587 -0.1327 -0.2463
  941YOPE   C2B12434   8.610  11.191   7.473 -0.0824 -0.0116 -0.1964
  941YOPE   D3B12435   8.312  11.421   7.737 -0.0943  0.1801  0.1208
  941YOPE   C4B12436   8.241  11.727   7.894  0.1978  0.1386 -0.0911
  942POPC   NC312437   2.064   3.399   5.289 -0.0819  0.0554 -0.1637
  942POPC   PO412438   2.204   3.691   5.505 -0.2007 -0.2551 -0.0041
  942POPC   GL112439   2.333   3.636   5.895 -0.0678  0.3108  0.1442
  942POPC   GL212440   2.275   3.950   6.110 -0.2056  0.1025 -0.2949
  942POPC   C1A12441   2.333   3.464   6.346  0.4281  0.1581  0.2746
  942POPC   D2A12442   2.278   3.443   6.830  0.3069 -0.2114  0.0739
  942POPC   C3A12443   1.972   3.112   6.949 -0.0906 -0.3611 -0.0432
  942POPC   C4A12444   1.664   3.034   7.268  0.1980 -0.0827 -0.3286
  942POPC   C1B12445   2.350   3.884   6.613 -0.1209 -0.0101  0.0918
  942POPC   C2B12446   2.505   3.907   6.970 -0.1838  0.4722 -0.1157
  942POPC   C3B12447   2.723   3.976   7.361 -0.2690 -0.1476  0.0165
  942POPC   C4B12448   2.549   4.229   7.721 -0.0420 -0.2759 -0.2252
  943POPC   NC312449  11.608   3.240   5.852 -0.0148 -0.0239 -0.2065
  943POPC   PO412450  12.049   3.309   6.124  0.1279  0.1029  0.1634
  943POPC   GL112451  11.717   3.031   6.334  0.0829 -0.0945 -0.3909
  943POPC   GL212452  11.447   3.037   6.342  0.2108  0.0929 -0.1770
  943POPC   C1A12453  11.749   2.947   6.790 -0.2212 -0.0312 -0.0384
  943POPC   D2A12454  11.622   2.880   7.210 -0.2852  0.0478  0.1417
  943POPC   C3A12455  11.623   3.115   7.630 -0.1396  0.0451 -0.2606
  943POPC   C4A12456  11.777   2.808   7.969  0.1011  0.1085  0.0603
  943POPC   C1B12457  11.293   3.020   6.608 -0.1732  0.0175  0.0696
  943POPC   C2B12458  11.157   3.155   6.979  0.1874 -0.0359 -0.0850
  943POPC   C3B12459  11.118   3.423   7.377 -0.0619 -0.2044 -0.2600
  943POPC   C4B12460  10.816   3.201   7.586 -0.0072 -0.1717 -0.1862
  944POPC   NC312461  10.632   6.347   5.544  0.3441  0.0358  0.2468
  944POPC   PO412462  10.210   6.313   5.843  0.3731  0.3411  0.3476
  944POPC   GL112463  10.220   6.225   6.197 -0.0283  0.1983 -0.2495
  944POPC   GL212464   9.856   6.185   6.366 -0.1175  0.0531 -0.2423
  944POPC   C1A12465  10.366   6.256   6.605  0.0236 -0.0749  0.2558
  944POPC   D2A12466  10.197   6.314   7.022  0.1714 -0.4067  0.0430
  944POPC   C3A12467   9.850   6.270   7.336  0.0314  0.0459  0.2141
  944POPC   C4A12468   9.533   6.049   7.262 -0.1100 -0.2881 -0.5047
  944POPC   C1B12469   9.643   6.178   6.661 -0.2775  0.2952 -0.0304
  944POPC   C2B12470   9.372   5.953   6.796 -0.1318 -0.1991 -0.0033
  944POPC   C3B12471   9.030   5.573   6.825  0.3021 -0.0013  0.3185
  944POPC   C4B12472   8.957   5.292   6.431  0.1742  0.2089  0.1195
  945POPC   NC312473  13.153  12.649   5.402  0.1708 -0.2126 -0.0121
  945POPC   PO412474  13.241  12.934   5.814 -0.6071 -0.0557  0.0098
  945POPC   GL112475  13.357  12.845   6.220 -0.2222 -0.0353 -0.3751
  945POPC   GL212476  13.772  12.825   6.434  0.2409  0.1555  0.0246
  945POPC   C1A12477  13.384  13.204   6.569  0.2327 -0.0995  0.0527
  945POPC   D2A12478  13.454  13.330   6.967 -0.0492 -0.1584 -0.1190
  945POPC   C3A12479  13.581  13.203   7.348  0.2227 -0.0966  0.0616
  945POPC   C4A12480  13.720  13.091   7.728 -0.0808 -0.0466 -0.2604
  945POPC   C1B12481  13.857  13.158   6.699 -0.4077 -0.0753  0.0149
  945POPC   C2B12482  13.967  13.352   7.087 -0.0071 -0.0588  0.0138
  945POPC   C3B12483  14.039  13.379   7.443  0.0758  0.0398 -0.0057
  945POPC   C4B12484  14.215  13.340   7.898 -0.3491  0.3535 -0.1599
  946POPC   NC312485  17.050   5.673   5.466 -0.2932  0.2201 -0.3178
  946POPC   PO412486  16.964   6.028   5.399  0.2230 -0.2685 -0.1760
  946POPC   GL112487  16.983   5.905   5.877  0.0736 -0.0327 -0.1197
  946POPC   GL212488  17.223   5.870   6.001 -0.3352 -0.0318 -0.0324
  946POPC   C1A12489  16.872   5.966   6.322  0.1272 -0.1593  0.1734
  946POPC   D2A12490  16.732   5.888   6.686 -0.0094  0.1221 -0.1182
  946POPC   C3A12491  16.876   6.175   7.095 -0.1531  0.0272  0.0632
  946POPC   C4A12492  16.868   6.157   7.518  0.1946 -0.2910 -0.2987
  946POPC   C1B12493  17.339   6.346   5.885 -0.0449 -0.0514  0.1523
  946POPC   C2B12494  17.614   6.596   5.755  0.0849 -0.0868  0.1358
  946POPC   C3B12495  17.556   7.033   5.639  0.0155  0.0085  0.1910
  946POPC   C4B12496  17.950   7.322   5.695  0.1581 -0.0406  0.2741
  947POPC   NC312497   4.932   5.920   5.384 -0.0422  0.2000 -0.2294
  947POPC   PO412498   4.543   6.162   5.207  0.0955 -0.0371 -0.2946
  947POPC   GL112499   4.288   6.012   5.545  0.1219 -0.0003  0.0863
  947POPC   GL212500   4.527   5.990   5.746  0.0108  0.0708  0.1702
  947POPC   C1A12501   3.848   6.031   5.744 -0.0902  0.0843  0.4036
  947POPC   D2A12502   3.656   5.968   6.077 -0.1253  0.0123 -0.1371
  947POPC   C3A12503   3.516   6.374   6.035  0.1441 -0.1791  0.1850
  947POPC   C4A12504   3.205   6.648   5.884 -0.0158 -0.0150  0.0139
  947POPC   C1B12505   4.237   5.796   6.073 -0.3270  0.1693  0.3137
  947POPC   C2B12506   4.005   5.595   6.379  0.0379  0.1630 -0.1935
  947POPC   C3B12507   3.907   5.435   6.815 -0.1940 -0.3015  0.0954
  947POPC   C4B12508   3.885   5.347   7.205  0.2021  0.1046 -0.2724
  948POPC   NC312509   3.313   1.536   5.481  0.1261 -0.2133  0.2496
  948POPC   PO412510   3.003   1.684   5.396  0.1220  0.1279  0.1431
  948POPC   GL112511   2.981   1.876   5.704 -0.0069  0.2995 -0.2590
  948POPC   GL212512   3.121   1.658   5.925 -0.0320 -0.0660  0.0452
  948POPC   C1A12513   3.055   2.163   5.860 -0.0254 -0.2576 -0.0016
  948POPC   D2A12514   3.346   2.254   6.080  0.1434  0.4681  0.1065
  948POPC   C3A12515   3.495   2.534   6.080 -0.2535  0.0157  0.0535
  948POPC   C4A12516   3.474   2.747   6.374 -0.1833  0.0151 -0.0926
  948POPC   C1B12517   3.090   1.929   6.266  0.2691  0.0596 -0.2442
  948POPC   C2B12518   3.042   2.288   6.572 -0.0748 -0.2491 -0.0866
  948POPC   C3B12519   2.965   2.202   7.020  0.2002 -0.1968 -0.3625
  948POPC   C4B12520   2.955   2.208   7.331  0.2168 -0.0164  0.0831
  949POPC   NC312521  10.504   7.144   4.982  0.0365  0.1237 -0.0632
  949POPC   PO412522  10.618   6.861   5.412  0.2325 -0.0505  0.1679
  949POPC   GL112523  10.844   6.795   5.876  0.0925 -0.1123 -0.2968
  949POPC   GL212524  10.651   6.541   6.027 -0.2643 -0.3720 -0.0671
  949POPC   C1A12525  10.898   6.850   6.335 -0.1694 -0.1216 -0.4990
  949POPC   D2A12526  11.158   6.965   6.789  0.0060 -0.2293  0.3337
  949POPC   C3A12527  11.169   7.014   7.215  0.0851 -0.0796  0.2352
  949POPC   C4A12528  11.098   6.980   7.711 -0.1286 -0.3031  0.2199
  949POPC   C1B12529  10.460   6.692   6.412  0.1002  0.1090 -0.1782
  949POPC   C2B12530  10.604   6.871   6.696  0.5410 -0.0820 -0.1029
  949POPC   C3B12531  10.576   6.729   7.184 -0.0891  0.3110  0.0566
  949POPC   C4B12532  10.287   6.619   7.503  0.2292  0.3456 -0.2618
  950POPC   NC312533   7.822   6.686   5.488 -0.1247  0.2478 -0.0720
  950POPC   PO412534   7.447   7.041   5.560  0.1048  0.1454 -0.1946
  950POPC   GL112535   7.789   7.077   5.897  0.0424  0.2137 -0.3206
  950POPC   GL212536   8.066   6.862   5.932 -0.1119 -0.3320 -0.0231
  950POPC   C1A12537   7.755   6.975   6.304 -0.1212  0.1644  0.1507
  950POPC   D2A12538   7.642   6.960   6.661  0.2851  0.1425  0.1690
  950POPC   C3A12539   7.278   6.860   6.880 -0.2860 -0.0113  0.1400
  950POPC   C4A12540   6.910   6.893   6.749 -0.0310  0.3891 -0.2906
  950POPC   C1B12541   8.042   6.650   6.454  0.2043  0.1826  0.0412
  950POPC   C2B12542   7.974   6.599   6.865  0.0041  0.0956  0.0345
  950POPC   C3B12543   7.917   6.378   7.240 -0.0917  0.0378 -0.2340
  950POPC   C4B12544   7.806   6.483   7.719  0.1064 -0.2380  0.0258
  951POPC   NC312545   3.037   5.333   5.757 -0.0781 -0.1235 -0.2884
  951POPC   PO412546   3.539   5.146   5.696 -0.1082 -0.2647 -0.1162
  951POPC   GL112547   3.426   5.289   6.131  0.0674  0.1611 -0.0437
  951POPC   GL212548   3.247   5.032   6.227 -0.1827 -0.3797  0.2388
  951POPC   C1A12549   3.401   5.636   6.364 -0.0410 -0.0074 -0.1465
  951POPC   D2A12550   3.639   5.888   6.708 -0.0484 -0.1486  0.2421
  951POPC   C3A12551   3.716   5.852   7.174  0.1955 -0.1455 -0.0878
  951POPC   C4A12552   3.683   5.721   7.589 -0.3554  0.1556  0.2114
  951POPC   C1B12553   3.142   5.114   6.674  0.0878  0.0861 -0.0742
  951POPC   C2B12554   2.950   5.172   6.981 -0.0124  0.2958 -0.2301
  951POPC   C3B12555   2.730   5.375   7.227 -0.0959 -0.1086 -0.2813
  951POPC   C4B12556   2.638   5.242   7.619  0.2198 -0.2735  0.1668
  952POPC   NC312557  10.183  11.398   6.130  0.0649  0.1727 -0.1123
  952POPC   PO412558   9.858  11.491   6.260  0.0644 -0.2883  0.0118
  952POPC   GL112559   9.409  11.450   6.576 -0.0539 -0.0666 -0.1176
  952POPC   GL212560   9.117  11.665   6.526  0.1636  0.2746  0.1036
  952POPC   C1A12561   9.315  11.615   6.995  0.2477 -0.0871 -0.1556
  952POPC   D2A12562   9.235  11.727   7.377  0.0875  0.2308  0.0680
  952POPC   C3A12563   9.374  11.683   7.791  0.2700 -0.2012  0.2933
  952POPC   C4A12564   9.764  11.539   8.061 -0.0990  0.1500 -0.0072
  952POPC   C1B12565   8.695  11.822   6.596  0.1365  0.2971  0.1707
  952POPC   C2B12566   8.386  12.095   6.895 -0.0586 -0.3470 -0.0906
  952POPC   C3B12567   8.489  12.523   6.937  0.1225  0.0760  0.4124
  952POPC   C4B12568   8.315  12.842   7.085 -0.1376  0.3352  0.2205
  953POPC   NC312569  13.047  17.494   5.812 -0.1076 -0.1518  0.1687
  953POPC   PO412570  12.726  17.875   5.810  0.3565  0.4077  0.1957
  953POPC   GL112571  12.484  17.910   6.100  0.1612  0.2078  0.2520
  953POPC   GL212572  12.406  18.101   6.242 -0.2520  0.0516 -0.2188
  953POPC   C1A12573  12.674  17.706   6.531  0.2791 -0.1430  0.0282
  953POPC   D2A12574  12.865  17.640   6.938  0.1167 -0.3145 -0.1212
  953POPC   C3A12575  12.534  17.721   7.301 -0.0593 -0.0459  0.0690
  953POPC   C4A12576  12.179  17.674   7.316  0.1486  0.0627 -0.1776
  953POPC   C1B12577  12.476  18.323   6.505  0.2894  0.2604  0.4231
  953POPC   C2B12578  12.422  18.567   6.644 -0.1861  0.2158  0.3193
  953POPC   C3B12579  12.438  18.662   7.045  0.1670  0.2855  0.0784
  953POPC   C4B12580  12.712  18.762   7.343  0.1112  0.2048  0.2495
  954POPC   NC312581   1.666  10.925   5.460  0.3819  0.1611 -0.1736
  954POPC   PO412582   1.203  10.807   5.506  0.2913  0.0662  0.1207
  954POPC   GL112583   1.341  11.196   5.781 -0.0895  0.1884 -0.0638
  954POPC   GL212584   1.183  11.362   5.759  0.2100  0.1243  0.4129
  954POPC   C1A12585   1.668  11.529   5.972 -0.3133  0.2186  0.1325
  954POPC   D2A12586   1.697  11.621   6.325 -0.4265  0.2927 -0.0069
  954POPC   C3A12587   2.023  11.796   6.519 -0.1780 -0.2407 -0.0277
  954POPC   C4A12588   2.194  12.215   6.488 -0.1829  0.0491 -0.0619
  954POPC   C1B12589   1.242  11.403   6.266  0.0007 -0.2482  0.0537
  954POPC   C2B12590   1.543  11.158   6.578  0.2781 -0.3379  0.1524
  954POPC   C3B12591   1.513  11.199   6.981  0.3817 -0.2458  0.1530
  954POPC   C4B12592   1.581  11.321   7.387  0.0082  0.1681 -0.0294
  955POPC   NC312593   9.151   8.407   5.656  0.1209 -0.2195 -0.3807
  955POPC   PO412594   9.263   8.754   6.044  0.2675  0.0087 -0.1400
  955POPC   GL112595   9.028   8.673   6.427 -0.2026 -0.0601 -0.2663
  955POPC   GL212596   9.309   8.589   6.611 -0.0442  0.2373 -0.2884
  955POPC   C1A12597   8.826   8.550   6.845 -0.0898  0.1574 -0.1357
  955POPC   D2A12598   8.733   8.190   6.981 -0.4540 -0.0932  0.0806
  955POPC   C3A12599   8.534   8.114   7.328  0.0200 -0.1398  0.0411
  955POPC   C4A12600   8.442   7.971   7.733 -0.0570 -0.0890 -0.1022
  955POPC   C1B12601   9.261   8.329   6.959 -0.1614 -0.1726 -0.1536
  955POPC   C2B12602   9.217   8.440   7.450 -0.1042 -0.2443 -0.2550
  955POPC   C3B12603   9.137   8.425   7.876 -0.0715  0.1000 -0.0568
  955POPC   C4B12604   9.208   8.429   8.266 -0.0271 -0.0852 -0.2336
  956POPC   NC312605   9.340   0.907   6.019  0.1745  0.1078 -0.1389
  956POPC   PO412606   9.550   1.283   6.029 -0.3427  0.0935 -0.0046
  956POPC   GL112607   9.895   1.167   6.442 -0.0442  0.2876 -0.0584
  956POPC   GL212608   9.906   1.498   6.460 -0.0221 -0.3289 -0.1684
  956POPC   C1A12609   9.924   1.003   6.892 -0.1770 -0.0824  0.0747
  956POPC   D2A12610  10.025   1.027   7.334 -0.0554  0.1033  0.0912
  956POPC   C3A12611  10.123   1.269   7.613 -0.3050  0.0505  0.1530
  956POPC   C4A12612  10.485   1.469   7.767 -0.1328  0.1195  0.2166
  956POPC   C1B12613   9.880   1.524   6.815  0.0656 -0.0330 -0.0241
  956POPC   C2B12614   9.674   1.397   7.197 -0.0796  0.0554 -0.1440
  956POPC   C3B12615   9.603   1.358   7.680 -0.0879  0.1372  0.1483
  956POPC   C4B12616   9.502   0.859   7.854  0.0399  0.1161  0.2502
  957POPC   NC312617   3.781  11.989   5.151  0.0872 -0.3296  0.1094
  957POPC   PO412618   3.985  12.006   5.604  0.1067 -0.1260 -0.0839
  957POPC   GL112619   3.971  12.202   6.003 -0.3634 -0.1310 -0.2172
  957POPC   GL212620   4.112  12.460   6.177  0.2567  0.3992  0.0279
  957POPC   C1A12621   3.827  12.106   6.415  0.1005 -0.0230 -0.1884
  957POPC   D2A12622   3.399  12.192   6.549 -0.2792  0.3255  0.3590
  957POPC   C3A12623   3.326  12.210   6.990  0.0728 -0.2255  0.5503
  957POPC   C4A12624   3.289  11.973   7.350  0.0674  0.1214  0.1126
  957POPC   C1B12625   4.114  12.420   6.647  0.0736 -0.1125  0.3214
  957POPC   C2B12626   4.151  12.318   7.124 -0.0274 -0.1165 -0.0876
  957POPC   C3B12627   4.006  12.163   7.435  0.2994  0.0121 -0.0216
  957POPC   C4B12628   3.701  12.018   7.653 -0.3716  0.1780  0.0698
  958POPC   NC312629   5.015   1.918   5.423 -0.1886 -0.3139  0.0343
  958POPC   PO412630   5.358   2.116   5.363 -0.3460  0.2874  0.0855
  958POPC   GL112631   5.408   2.117   5.783 -0.0095 -0.3585 -0.0896
  958POPC   GL212632   5.172   2.251   5.905  0.0133  0.2211 -0.1856
  958POPC   C1A12633   5.675   2.188   6.135 -0.1237  0.1577 -0.1871
  958POPC   D2A12634   5.809   2.101   6.505  0.1328  0.0314 -0.1235
  958POPC   C3A12635   5.812   2.388   6.752  0.1773  0.3977  0.0524
  958POPC   C4A12636   6.067   2.299   6.957  0.1603  0.0400  0.0973
  958POPC   C1B12637   5.215   2.251   6.384  0.3471 -0.0405  0.1838
  958POPC   C2B12638   5.374   2.168   6.775  0.4095  0.1263  0.2609
  958POPC   C3B12639   5.576   2.320   7.154  0.0806  0.1355 -0.0912
  958POPC   C4B12640   5.348   2.576   7.444  0.0009  0.0920  0.0057
  959POPC   NC312641   6.344   3.383   5.278 -0.2622 -0.1295  0.0713
  959POPC   PO412642   6.192   3.670   5.627  0.1121  0.1417  0.0427
  959POPC   GL112643   6.234   3.788   5.999 -0.2720 -0.1256 -0.3781
  959POPC   GL212644   5.955   3.746   6.130 -0.2613  0.4454 -0.0806
  959POPC   C1A12645   6.254   3.947   6.456 -0.2658  0.2750  0.2330
  959POPC   D2A12646   6.254   4.130   6.818 -0.0683 -0.1055  0.1331
  959POPC   C3A12647   5.825   4.220   6.908  0.1139  0.2883  0.2336
  959POPC   C4A12648   5.373   4.280   6.957  0.2502 -0.0519 -0.2798
  959POPC   C1B12649   5.897   3.445   6.244  0.0944  0.0534 -0.3602
  959POPC   C2B12650   5.899   3.115   6.381 -0.3261 -0.0101 -0.0434
  959POPC   C3B12651   6.128   2.891   6.680  0.2708 -0.1153 -0.2378
  959POPC   C4B12652   6.249   2.792   7.037 -0.1720 -0.0740 -0.0225
  960POPC   NC312653   4.552   6.979   5.247  0.2018 -0.0421 -0.0276
  960POPC   PO412654   4.730   7.245   5.412 -0.1851  0.1185  0.1747
  960POPC   GL112655   4.497   7.240   5.792 -0.0668  0.0140 -0.1651
  960POPC   GL212656   4.437   7.519   6.030 -0.0249 -0.0669 -0.2008
  960POPC   C1A12657   4.467   6.869   6.034 -0.0870  0.0875 -0.3142
  960POPC   D2A12658   4.293   6.609   6.412  0.2087  0.1026  0.1848
  960POPC   C3A12659   4.074   6.674   6.849  0.2115  0.0129  0.1333
  960POPC   C4A12660   4.006   7.011   6.976  0.0628 -0.0638  0.2193
  960POPC   C1B12661   4.450   7.355   6.354 -0.4840 -0.0656 -0.1359
  960POPC   C2B12662   4.406   7.085   6.699  0.0210 -0.1400 -0.0472
  960POPC   C3B12663   4.490   6.923   7.148 -0.4275  0.1471 -0.4780
  960POPC   C4B12664   4.135   6.980   7.455 -0.0837 -0.0090 -0.1002
  961POPC   NC312665   3.938  13.554   5.639  0.1674 -0.4200  0.0111
  961POPC   PO412666   3.730  13.944   5.514 -0.1324 -0.0591  0.0493
  961POPC   GL112667   3.665  13.889   5.959  0.0200 -0.2442  0.0263
  961POPC   GL212668   3.334  14.041   6.061 -0.1367 -0.2226 -0.1116
  961POPC   C1A12669   3.671  13.913   6.392  0.1045  0.2105  0.0696
  961POPC   D2A12670   3.498  14.100   6.688 -0.0516 -0.1413  0.2469
  961POPC   C3A12671   3.439  14.541   6.792 -0.2807  0.1738 -0.3338
  961POPC   C4A12672   3.413  14.757   7.246 -0.1135  0.1444  0.2661
  961POPC   C1B12673   3.186  14.316   6.348 -0.2069 -0.1142  0.0891
  961POPC   C2B12674   2.960  14.351   6.715  0.0222 -0.1036  0.2493
  961POPC   C3B12675   2.892  14.406   7.156 -0.0876  0.0695  0.0958
  961POPC   C4B12676   2.669  14.545   7.404  0.0134 -0.1149  0.1796
  962POPC   NC312677   8.723  16.635   5.608 -0.0798  0.0876  0.0369
  962POPC   PO412678   8.770  16.953   5.810 -0.1453  0.2627  0.0570
  962POPC   GL112679   8.915  17.068   6.214 -0.0608  0.0948 -0.2491
  962POPC   GL212680   8.779  16.870   6.459 -0.0959 -0.0409  0.2066
  962POPC   C1A12681   9.211  17.203   6.567 -0.1544  0.3194 -0.1648
  962POPC   D2A12682   9.340  17.309   6.958 -0.0269 -0.0505 -0.0606
  962POPC   C3A12683   9.521  16.984   7.359  0.0425 -0.1987  0.4348
  962POPC   C4A12684   9.701  16.642   7.538  0.3581 -0.3305 -0.0049
  962POPC   C1B12685   8.577  16.749   6.849 -0.1372  0.0792  0.5408
  962POPC   C2B12686   8.529  16.508   7.199  0.1092 -0.1279 -0.1548
  962POPC   C3B12687   8.706  16.531   7.635  0.1880 -0.1012  0.0203
  962POPC   C4B12688   8.882  16.631   7.953 -0.0122 -0.0422  0.0285
  963POPC   NC312689   3.865   4.299   5.908 -0.2855  0.0760  0.0145
  963POPC   PO412690   3.538   4.034   5.667 -0.0871  0.2643 -0.1261
  963POPC   GL112691   3.497   4.089   6.085  0.1497  0.1980  0.0829
  963POPC   GL212692   3.362   3.860   6.204 -0.2036  0.1217  0.2707
  963POPC   C1A12693   3.321   4.110   6.569  0.2352 -0.1083  0.1293
  963POPC   D2A12694   3.384   4.097   6.912 -0.2990 -0.2127 -0.2084
  963POPC   C3A12695   3.115   4.294   7.292 -0.0417  0.1424  0.0560
  963POPC   C4A12696   3.067   4.166   7.734 -0.1907 -0.1743 -0.0488
  963POPC   C1B12697   3.548   3.668   6.538  0.1446 -0.0844  0.1483
  963POPC   C2B12698   3.586   3.450   7.052 -0.0917 -0.2307  0.1320
  963POPC   C3B12699   3.700   3.070   7.333 -0.2145 -0.1357  0.0187
  963POPC   C4B12700   3.640   2.697   7.333  0.1727  0.0133 -0.2914
  964POPC   NC312701   8.278   8.186   5.918 -0.1658  0.1121 -0.0917
  964POPC   PO412702   8.062   8.595   5.960  0.1540  0.0143  0.0526
  964POPC   GL112703   8.206   8.830   6.438 -0.1849  0.0636 -0.0872
  964POPC   GL212704   8.442   8.647   6.528 -0.4120 -0.2884  0.2492
  964POPC   C1A12705   8.070   8.904   6.827 -0.0299 -0.1694 -0.0309
  964POPC   D2A12706   7.844   8.966   7.157  0.1971 -0.0284 -0.0669
  964POPC   C3A12707   7.704   8.738   7.580 -0.2682 -0.0909  0.2059
  964POPC   C4A12708   7.508   8.537   7.717  0.1738 -0.0137 -0.1907
  964POPC   C1B12709   8.288   8.526   7.027  0.0283  0.2209 -0.2816
  964POPC   C2B12710   8.222   8.473   7.462  0.1005  0.0050  0.1466
  964POPC   C3B12711   7.953   8.350   7.832 -0.0573  0.0215  0.1282
  964POPC   C4B12712   7.605   8.020   7.894 -0.2339 -0.1714 -0.1140
  965POPC   NC312713   2.011   4.454   4.907 -0.0344  0.0268  0.0546
  965POPC   PO412714   1.711   4.437   5.331  0.0454 -0.0598 -0.0106
  965POPC   GL112715   1.654   4.098   5.555 -0.0313 -0.0040  0.0805
  965POPC   GL212716   1.861   3.788   5.735 -0.0056 -0.2053 -0.0412
  965POPC   C1A12717   1.326   4.120   5.991  0.3873  0.1162 -0.0004
  965POPC   D2A12718   1.068   4.079   6.414  0.3973  0.0137  0.1751
  965POPC   C3A12719   0.619   3.760   6.493  0.1925  0.0629 -0.2295
  965POPC   C4A12720   0.401   3.672   6.862 -0.0138  0.0460  0.1270
  965POPC   C1B12721   1.894   3.674   6.198  0.2661  0.0208 -0.2870
  965POPC   C2B12722   1.897   3.732   6.614 -0.0404  0.0163 -0.0746
  965POPC   C3B12723   1.964   3.866   7.055 -0.1685 -0.0490  0.1479
  965POPC   C4B12724   2.234   4.040   7.377 -0.0165  0.0851 -0.3207
  966POPC   NC312725  11.882   8.132   5.943  0.0304 -0.2856 -0.1926
  966POPC   PO412726  12.348   8.128   6.049 -0.0422  0.1510  0.2879
  966POPC   GL112727  12.514   8.032   6.484 -0.2279 -0.3801 -0.1675
  966POPC   GL212728  12.329   7.718   6.523  0.1307  0.0210  0.1065
  966POPC   C1A12729  12.504   7.984   6.879  0.1088 -0.2544 -0.0677
  966POPC   D2A12730  12.559   8.230   7.188 -0.0380 -0.1071  0.1292
  966POPC   C3A12731  12.586   8.210   7.637 -0.1126 -0.3237  0.2589
  966POPC   C4A12732  12.300   8.074   7.941  0.1874 -0.2965  0.1818
  966POPC   C1B12733  12.159   7.647   6.911 -0.0638  0.0364  0.1678
  966POPC   C2B12734  11.905   7.526   7.149 -0.1038 -0.1687  0.0578
  966POPC   C3B12735  11.992   7.273   7.540  0.1101  0.3709  0.1960
  966POPC   C4B12736  12.248   7.153   7.874 -0.2147  0.0267 -0.2069
  967POPC   NC312737   5.225   4.432   5.747 -0.0552  0.1255  0.0244
  967POPC   PO412738   5.277   4.174   5.837 -0.0182 -0.4041  0.3095
  967POPC   GL112739   5.503   4.342   6.140  0.1517  0.0122 -0.1502
  967POPC   GL212740   5.733   4.198   6.347 -0.4659  0.1514  0.1759
  967POPC   C1A12741   5.429   4.603   6.486 -0.0129 -0.3555  0.0147
  967POPC   D2A12742   5.655   4.756   6.831  0.2675  0.1213  0.1789
  967POPC   C3A12743   5.687   4.594   7.261 -0.0603  0.0132  0.1206
  967POPC   C4A12744   5.705   4.364   7.648 -0.0301 -0.1048  0.1738
  967POPC   C1B12745   5.615   3.843   6.519  0.0818  0.1463 -0.0410
  967POPC   C2B12746   5.590   3.736   6.991 -0.0643  0.1329  0.2685
  967POPC   C3B12747   5.462   4.038   7.332 -0.1271  0.2538 -0.0077
  967POPC   C4B12748   5.251   4.408   7.419 -0.0202 -0.1839 -0.4293
  968POPC   NC312749  16.507  10.630   5.417  0.1820 -0.1385 -0.1943
  968POPC   PO412750  16.594  10.207   5.402 -0.0913 -0.1608 -0.0705
  968POPC   GL112751  16.644   9.829   5.659  0.1669  0.1992  0.0303
  968POPC   GL212752  16.677   9.922   5.960  0.0495  0.2760  0.0422
  968POPC   C1A12753  16.603   9.437   5.821  0.0743  0.0279 -0.1737
  968POPC   D2A12754  16.586   8.906   5.959 -0.1518 -0.3938  0.1633
  968POPC   C3A12755  16.549   8.505   5.939 -0.0675 -0.2332  0.1615
  968POPC   C4A12756  16.212   8.398   6.208 -0.0829  0.0087 -0.2190
  968POPC   C1B12757  16.712  10.056   6.384 -0.1694 -0.1821 -0.0118
  968POPC   C2B12758  16.687  10.177   6.850  0.1912  0.2777 -0.1563
  968POPC   C3B12759  16.634   9.967   7.235  0.1148 -0.0397  0.0917
  968POPC   C4B12760  16.706   9.870   7.674  0.0406 -0.0807  0.3711
  969POPC   NC312761  11.199  10.899   6.454  0.2287 -0.3116  0.0480
  969POPC   PO412762  11.446  11.270   6.603  0.3806  0.2523 -0.0937
  969POPC   GL112763  11.640  11.302   7.026 -0.1004 -0.1580 -0.0953
  969POPC   GL212764  11.416  11.255   7.225  0.3888 -0.5284 -0.0249
  969POPC   C1A12765  11.834  11.510   7.399  0.1762  0.1073 -0.2158
  969POPC   D2A12766  11.970  11.299   7.772  0.1029  0.2430 -0.1197
  969POPC   C3A12767  12.151  11.614   8.078 -0.2736  0.0411 -0.1120
  969POPC   C4A12768  12.472  11.874   8.294  0.0329  0.0882 -0.2370
  969POPC   C1B12769  11.418  11.347   7.630 -0.3381 -0.4306 -0.0706
  969POPC   C2B12770  11.350  11.313   7.991 -0.0184  0.1373 -0.2911
  969POPC   C3B12771  11.506  11.495   8.333 -0.1051  0.0828 -0.0409
  969POPC   C4B12772  11.572  11.108   8.604 -0.0110 -0.0355  0.2050
  970POPC   NC312773  13.066   3.790   5.602 -0.0463 -0.0205  0.0796
  970POPC   PO412774  13.021   3.497   5.763 -0.2308  0.1647 -0.0518
  970POPC   GL112775  13.030   3.376   6.188 -0.3103  0.0724  0.0383
  970POPC   GL212776  12.959   3.701   6.331 -0.1518  0.2644 -0.0452
  970POPC   C1A12777  12.915   3.296   6.712 -0.4173 -0.0417 -0.1665
  970POPC   D2A12778  12.865   3.369   7.032 -0.0466 -0.3135 -0.1532
  970POPC   C3A12779  12.859   3.611   7.419  0.4645  0.1341 -0.3005
  970POPC   C4A12780  13.212   3.868   7.517 -0.2525  0.1405  0.0841
  970POPC   C1B12781  13.266   4.103   6.367  0.1884 -0.1855  0.0300
  970POPC   C2B12782  13.189   4.515   6.553 -0.1372  0.0402 -0.1004
  970POPC   C3B12783  13.207   4.594   6.974 -0.3698 -0.0034  0.1785
  970POPC   C4B12784  12.903   4.356   7.396 -0.0351  0.1605 -0.0377
  971POPC   NC312785  11.328   8.611   6.578 -0.2195 -0.0839  0.3180
  971POPC   PO412786  11.634   8.447   6.312  0.4403 -0.0348 -0.1208
  971POPC   GL112787  11.522   8.106   6.505 -0.2149 -0.2803  0.2108
  971POPC   GL212788  11.909   8.069   6.455  0.0303  0.1337  0.0945
  971POPC   C1A12789  11.590   7.968   6.899 -0.1615  0.0572  0.1220
  971POPC   D2A12790  11.540   7.896   7.324  0.0256  0.2267 -0.1389
  971POPC   C3A12791  11.533   8.107   7.803  0.0166 -0.0935  0.1847
  971POPC   C4A12792  11.333   8.055   8.122 -0.0321 -0.4140 -0.4761
  971POPC   C1B12793  11.817   7.601   6.563  0.4485  0.2577  0.1024
  971POPC   C2B12794  11.568   7.316   6.872  0.1761 -0.2211  0.0261
  971POPC   C3B12795  11.546   7.338   7.392 -0.1812  0.3248  0.4845
  971POPC   C4B12796  11.580   7.235   7.739  0.2206  0.0306  0.3003
  972POPC   NC312797  15.838  11.283   5.396  0.0885  0.1103  0.0432
  972POPC   PO412798  15.571  10.979   5.740  0.0008 -0.0367  0.1558
  972POPC   GL112799  15.667  10.970   6.149  0.2889  0.1892 -0.2183
  972POPC   GL212800  15.583  11.246   6.248  0.1001  0.4042  0.0668
  972POPC   C1A12801  15.640  10.683   6.443  0.1986  0.0624  0.1772
  972POPC   D2A12802  15.759  10.647   6.909  0.1638 -0.0629  0.0893
  972POPC   C3A12803  15.821  10.989   7.101 -0.0280  0.1950 -0.1070
  972POPC   C4A12804  15.956  11.104   7.510 -0.4390  0.2061  0.0883
  972POPC   C1B12805  15.693  11.217   6.709 -0.2648  0.1567  0.2263
  972POPC   C2B12806  15.830  11.472   7.107 -0.0774  0.0380  0.1347
  972POPC   C3B12807  15.896  11.619   7.549  0.0872 -0.0904  0.0949
  972POPC   C4B12808  16.217  11.520   7.631 -0.2427 -0.1075 -0.2539
  973POPC   NC312809  10.867   2.472   5.862  0.3113 -0.1371  0.0724
  973POPC   PO412810  11.009   2.022   5.614  0.2354  0.1047  0.1663
  973POPC   GL112811  10.963   2.049   6.100  0.1396  0.0229  0.0474
  973POPC   GL212812  10.883   2.123   6.384 -0.1560 -0.0185  0.1378
  973POPC   C1A12813  11.148   1.772   6.539  0.2024 -0.1733 -0.0347
  973POPC   D2A12814  11.330   1.552   6.934 -0.0158 -0.3422  0.1154
  973POPC   C3A12815  11.048   1.434   7.203  0.1487  0.0571 -0.3266
  973POPC   C4A12816  11.136   1.524   7.646 -0.0112  0.2204 -0.0743
  973POPC   C1B12817  10.654   2.266   6.828 -0.0450 -0.1229  0.4288
  973POPC   C2B12818  10.814   2.319   7.279  0.2038 -0.1843  0.5761
  973POPC   C3B12819  11.041   2.427   7.664  0.1665  0.1303  0.1300
  973POPC   C4B12820  11.366   2.615   7.846  0.3533 -0.1614  0.0367
  974POPC   NC312821   2.903  17.361   5.726 -0.1068 -0.3837 -0.0585
  974POPC   PO412822   2.469  17.289   5.513  0.1476  0.1533  0.3544
  974POPC   GL112823   2.522  17.194   5.959 -0.1339 -0.0483  0.1015
  974POPC   GL212824   2.588  16.903   5.970 -0.0019  0.0799 -0.1657
  974POPC   C1A12825   2.257  17.056   6.300 -0.0581  0.0439  0.3215
  974POPC   D2A12826   2.067  16.758   6.446  0.1733 -0.0151  0.0079
  974POPC   C3A12827   1.966  16.369   6.074 -0.1708  0.1424 -0.2067
  974POPC   C4A12828   1.894  15.957   5.940  0.4806 -0.0743 -0.0893
  974POPC   C1B12829   2.549  16.547   6.378 -0.0485 -0.3182 -0.0971
  974POPC   C2B12830   2.422  16.216   6.459  0.0811 -0.0415  0.0687
  974POPC   C3B12831   2.096  15.948   6.415  0.0016 -0.3053 -0.0282
  974POPC   C4B12832   1.860  15.574   6.573  0.1895 -0.1222  0.3276
  975POPC   NC312833  13.092   5.807   5.031 -0.0848 -0.2594 -0.0606
  975POPC   PO412834  12.905   5.472   5.131 -0.0829 -0.0152 -0.1185
  975POPC   GL112835  12.947   5.421   5.544 -0.1781  0.1372  0.0633
  975POPC   GL212836  12.684   5.564   5.741  0.1040  0.0679 -0.1994
  975POPC   C1A12837  12.913   5.163   5.928 -0.2122  0.4357 -0.1149
  975POPC   D2A12838  12.863   5.433   6.231  0.2179 -0.0670  0.0322
  975POPC   C3A12839  12.482   5.339   6.418  0.1033 -0.0945 -0.0272
  975POPC   C4A12840  12.057   5.393   6.310 -0.0919  0.2290 -0.1306
  975POPC   C1B12841  12.528   5.769   6.092 -0.2668  0.3117 -0.3724
  975POPC   C2B12842  12.409   5.835   6.418 -0.1112  0.0910  0.1092
  975POPC   C3B12843  12.475   6.021   6.838 -0.0200 -0.2074  0.0222
  975POPC   C4B12844  12.622   6.267   7.061  0.3402  0.3409 -0.1826
  976POPC   NC312845   1.812  18.166   5.210  0.1591 -0.1265 -0.1683
  976POPC   PO412846   2.067  18.599   5.454  0.0093 -0.0375 -0.0089
  976POPC   GL112847   2.144  18.787   5.841  0.0007  0.0711  0.4074
  976POPC   GL212848   2.214  18.614   6.257  0.1404 -0.1913  0.2616
  976POPC   C1A12849   2.507  19.033   6.099 -0.1281  0.0366 -0.3344
  976POPC   D2A12850   2.660  19.341   6.405 -0.3147 -0.1873  0.0313
  976POPC   C3A12851   2.820  19.132   6.769  0.0253  0.0169  0.0590
  976POPC   C4A12852   2.658  19.173   7.161 -0.2071  0.0125  0.0009
  976POPC   C1B12853   2.240  18.352   6.514 -0.0470 -0.0322 -0.2548
  976POPC   C2B12854   2.644  18.080   6.746 -0.0617 -0.3818 -0.1746
  976POPC   C3B12855   2.827  17.796   7.109 -0.0019  0.3807  0.0985
  976POPC   C4B12856   2.989  17.582   7.409 -0.1897  0.2228 -0.1932
  977POPC   NC312857  18.069   5.066   5.286  0.1991  0.2991 -0.0348
  977POPC   PO412858  17.989   5.553   5.410  0.1494 -0.1364 -0.0175
  977POPC   GL112859  18.306   5.503   5.692  0.2002 -0.3415 -0.0211
  977POPC   GL212860  18.445   5.303   5.882  0.0247 -0.1612  0.0344
  977POPC   C1A12861  18.242   5.727   6.128  0.0967 -0.1059  0.0523
  977POPC   D2A12862  18.084   5.820   6.469  0.2337  0.0542 -0.0476
  977POPC   C3A12863  18.243   5.924   6.836 -0.4859 -0.1462 -0.0121
  977POPC   C4A12864  18.428   5.977   7.288 -0.0141  0.0105 -0.2129
  977POPC   C1B12865  18.517   5.361   6.407  0.1602  0.4310 -0.1015
  977POPC   C2B12866  18.426   5.478   6.743  0.1601  0.1917  0.2799
  977POPC   C3B12867  18.189   5.279   7.100 -0.2184 -0.2463  0.0235
  977POPC   C4B12868  17.999   4.914   7.310  0.1419  0.2428 -0.2340
  978POPC   NC312869   2.322  15.098   5.325  0.3206 -0.0549  0.2914
  978POPC   PO412870   2.179  15.487   5.535 -0.1201  0.3878 -0.0254
  978POPC   GL112871   2.499  15.342   5.683 -0.1319  0.1702 -0.1844
  978POPC   GL212872   2.732  15.629   5.688 -0.2978  0.0119  0.0799
  978POPC   C1A12873   2.591  15.228   6.039  0.1225  0.0840  0.0535
  978POPC   D2A12874   2.941  15.283   6.437 -0.0971 -0.0331  0.1524
  978POPC   C3A12875   2.896  15.063   6.838  0.1760  0.0021  0.0404
  978POPC   C4A12876   2.965  14.943   7.226  0.0770  0.1662 -0.0969
  978POPC   C1B12877   2.913  15.685   6.110  0.1146 -0.1607  0.1972
  978POPC   C2B12878   3.269  15.906   6.376  0.3648  0.0642  0.0757
  978POPC   C3B12879   3.618  15.761   6.602  0.0012  0.3129  0.1368
  978POPC   C4B12880   3.778  15.881   7.000 -0.1328  0.2657  0.0773
  979POPC   NC312881   0.201   4.222   4.867 -0.0033 -0.1265 -0.1815
  979POPC   PO412882   0.060   4.357   5.331  0.1418 -0.3340 -0.1913
  979POPC   GL112883   0.067   4.169   5.774  0.2961 -0.1815  0.1768
  979POPC   GL212884  -0.347   4.195   5.848 -0.1668  0.0062  0.0512
  979POPC   C1A12885   0.141   3.964   6.286 -0.2719 -0.0644  0.2597
  979POPC   D2A12886   0.216   4.165   6.653 -0.1302  0.3100 -0.0572
  979POPC   C3A12887   0.519   4.176   6.954 -0.0738  0.0153 -0.0778
  979POPC   C4A12888   0.643   4.443   7.334 -0.0510 -0.2564  0.1416
  979POPC   C1B12889  -0.130   4.352   6.301  0.2380 -0.0362 -0.2647
  979POPC   C2B12890  -0.340   4.246   6.706  0.1598  0.1025 -0.3787
  979POPC   C3B12891  -0.497   4.048   7.056 -0.1426  0.0995  0.1711
  979POPC   C4B12892  -0.584   4.058   7.535  0.1606 -0.0196  0.0271
  980POPC   NC312893   6.372  12.032   6.011  0.2643 -0.2730  0.2219
  980POPC   PO412894   5.989  12.105   5.833  0.1038  0.0965 -0.1004
  980POPC   GL112895   5.962  12.259   6.307  0.1207 -0.2302  0.0099
  980POPC   GL212896   6.309  12.279   6.465 -0.2786  0.2241 -0.1499
  980POPC   C1A12897   5.841  12.302   6.772 -0.0531  0.2126 -0.3053
  980POPC   D2A12898   6.132  12.360   7.142 -0.2432  0.0442 -0.0403
  980POPC   C3A12899   5.894  12.289   7.517 -0.0222 -0.3983  0.1883
  980POPC   C4A12900   5.472  12.202   7.630  0.0530 -0.1929  0.2061
  980POPC   C1B12901   6.569  12.488   6.673  0.0103 -0.5239 -0.0197
  980POPC   C2B12902   6.618  12.506   7.059 -0.1192 -0.0969  0.0219
  980POPC   C3B12903   6.845  12.623   7.491  0.1301  0.0871 -0.2626
  980POPC   C4B12904   7.256  12.653   7.634  0.2940  0.3062  0.1289
  981POPC   NC312905  10.923   4.937   5.554  0.0307 -0.0215 -0.0079
  981POPC   PO412906  11.007   4.831   5.994 -0.0879 -0.0107 -0.2200
  981POPC   GL112907  10.713   4.885   6.273  0.0278 -0.0593 -0.4167
  981POPC   GL212908  10.432   4.778   6.316  0.0458 -0.0830 -0.1237
  981POPC   C1A12909  10.776   4.982   6.714 -0.0747  0.0603 -0.0600
  981POPC   D2A12910  10.378   5.196   6.806  0.0068  0.0697 -0.2266
  981POPC   C3A12911  10.345   5.407   7.174  0.0418  0.0005  0.0697
  981POPC   C4A12912  10.418   5.533   7.560 -0.1660  0.0017 -0.1491
  981POPC   C1B12913  10.182   4.784   6.604 -0.4039  0.1965 -0.4384
  981POPC   C2B12914  10.172   4.780   7.117  0.2444 -0.0170  0.0384
  981POPC   C3B12915   9.984   4.595   7.438 -0.4641 -0.0628 -0.0870
  981POPC   C4B12916   9.867   4.391   7.771 -0.2159  0.0421  0.0463
  982YOPC   NC312917  15.718  18.172   6.032 -0.0511  0.1464  0.0416
  982YOPC   PO412918  15.857  17.740   6.186  0.0166  0.1551 -0.2019
  982YOPC   GL112919  15.942  17.629   6.595  0.2378  0.1747 -0.0513
  982YOPC   GL212920  15.956  17.327   6.543  0.1957 -0.0115 -0.0218
  982YOPC   C1A12921  16.122  17.591   6.997 -0.1300 -0.1268 -0.0868
  982YOPC   D2A12922  16.569  17.646   7.056  0.2599  0.1188 -0.0412
  982YOPC   C3A12923  16.856  17.584   7.395 -0.2908  0.5623 -0.1019
  982YOPC   C4A12924  16.971  17.573   7.766  0.1105  0.1749 -0.1402
  982YOPC   C1B12925  15.722  16.988   6.794  0.1019 -0.0858 -0.3339
  982YOPC   C2B12926  15.563  16.752   7.158 -0.2028 -0.0127  0.2817
  982YOPC   D3B12927  15.626  16.964   7.510 -0.1412  0.0180 -0.1553
  982YOPC   C4B12928  15.610  17.244   7.794 -0.2462  0.0705  0.1117
  983YOPC   NC312929  13.757  15.325   5.611 -0.2675 -0.0565 -0.1287
  983YOPC   PO412930  13.414  15.221   5.576  0.1021 -0.1920 -0.2517
  983YOPC   GL112931  13.407  15.236   6.068  0.0271 -0.2272  0.1300
  983YOPC   GL212932  13.324  15.528   6.125  0.0351 -0.0678 -0.4769
  983YOPC   C1A12933  13.213  15.237   6.493  0.3074  0.0375 -0.0336
  983YOPC   D2A12934  13.058  15.114   6.914 -0.1412  0.1047  0.3592
  983YOPC   C3A12935  13.023  15.453   7.256 -0.1871 -0.0549  0.2051
  983YOPC   C4A12936  12.842  15.754   7.535 -0.0601  0.0410  0.0695
  983YOPC   C1B12937  13.385  15.759   6.539  0.0326 -0.1663 -0.2565
  983YOPC   C2B12938  13.240  15.905   6.884  0.1567  0.0977  0.0702
  983YOPC   D3B12939  13.196  16.034   7.295 -0.2335  0.1049 -0.0544
  983YOPC   C4B12940  13.287  15.724   7.650 -0.2437  0.0452  0.0055
  984YOPC   NC312941   7.051  11.376   6.084  0.0505  0.0020  0.1936
  984YOPC   PO412942   6.770  10.957   5.913  0.1782  0.0776  0.2570
  984YOPC   GL112943   6.841  10.997   6.323 -0.0418 -0.1280  0.2670
  984YOPC   GL212944   6.791  10.758   6.567 -0.3392  0.0842  0.1873
  984YOPC   C1A12945   6.712  11.234   6.710  0.3460  0.0210 -0.0358
  984YOPC   D2A12946   6.717  11.489   6.998 -0.0506  0.0879  0.1491
  984YOPC   C3A12947   6.988  11.830   6.908 -0.0268 -0.0413  0.1621
  984YOPC   C4A12948   7.016  12.162   6.718  0.2130 -0.0767 -0.0967
  984YOPC   C1B12949   6.573  10.685   6.892  0.1252 -0.0210  0.2678
  984YOPC   C2B12950   6.559  10.981   7.145  0.1476 -0.0531 -0.1687
  984YOPC   D3B12951   6.189  11.010   7.342  0.0339  0.2357 -0.2967
  984YOPC   C4B12952   6.023  10.972   7.663  0.1622  0.3763 -0.0990
  985YOPC   NC312953  17.685  11.125   5.308  0.1791  0.4115 -0.2278
  985YOPC   PO412954  17.307  10.881   5.173 -0.0282 -0.0560 -0.0507
  985YOPC   GL112955  17.236  10.751   5.632  0.3129 -0.2194 -0.1145
  985YOPC   GL212956  16.963  10.858   5.923 -0.3488  0.0052 -0.0452
  985YOPC   C1A12957  17.296  10.478   6.040  0.1536 -0.0368 -0.0426
  985YOPC   D2A12958  17.098  10.382   6.410 -0.1712  0.4956  0.0361
  985YOPC   C3A12959  17.210  10.677   6.776 -0.1437  0.3543 -0.0488
  985YOPC   C4A12960  17.084  10.956   6.946  0.1639 -0.0383  0.0323
  985YOPC   C1B12961  16.885  10.832   6.394  0.2473 -0.2628  0.4505
  985YOPC   C2B12962  16.654  10.734   6.743  0.0883  0.2314 -0.2902
  985YOPC   D3B12963  16.720  10.625   7.199 -0.0246  0.0828 -0.1033
  985YOPC   C4B12964  16.507  10.389   7.521  0.0159 -0.2286  0.4200
  986YOPC   NC312965   2.541  15.519   5.139  0.3667 -0.0986  0.0928
  986YOPC   PO412966   2.740  15.082   5.034  0.2587 -0.3193 -0.0096
  986YOPC   GL112967   2.886  15.244   5.370  0.3578 -0.1623 -0.1516
  986YOPC   GL212968   2.931  15.068   5.631 -0.2042  0.3461 -0.1747
  986YOPC   C1A12969   3.228  15.475   5.705 -0.1533 -0.1024 -0.0182
  986YOPC   D2A12970   3.333  15.824   5.794 -0.1035  0.1158 -0.0212
  986YOPC   C3A12971   3.759  15.767   6.138  0.1198 -0.2767  0.2590
  986YOPC   C4A12972   4.016  16.017   6.474  0.0800 -0.2651 -0.0110
  986YOPC   C1B12973   3.034  14.954   6.051 -0.4744 -0.1692  0.3197
  986YOPC   C2B12974   3.186  14.786   6.432 -0.3023  0.2985  0.4259
  986YOPC   D3B12975   3.582  14.571   6.302 -0.0392  0.2625  0.3130
  986YOPC   C4B12976   3.924  14.496   6.403  0.0581 -0.0081 -0.3052
  987YOPC   NC312977   5.905  17.294   5.129 -0.0178 -0.3988  0.2501
  987YOPC   PO412978   6.126  17.373   5.547  0.2509  0.0043  0.1765
  987YOPC   GL112979   6.101  17.587   5.930  0.2501 -0.0657  0.0674
  987YOPC   GL212980   5.943  17.860   5.894 -0.3019  0.1453  0.2224
  987YOPC   C1A12981   6.324  17.603   6.302  0.1108  0.1424 -0.0276
  987YOPC   D2A12982   6.183  17.623   6.775 -0.1219  0.0121 -0.1880
  987YOPC   C3A12983   6.262  17.463   7.057 -0.0410 -0.0438 -0.6026
  987YOPC   C4A12984   6.251  17.416   7.453  0.0311  0.0772  0.1348
  987YOPC   C1B12985   5.966  17.918   6.315 -0.1390 -0.1171 -0.1154
  987YOPC   C2B12986   5.836  17.965   6.701  0.0296  0.3491 -0.1794
  987YOPC   D3B12987   5.902  17.894   7.178 -0.0432 -0.2130 -0.1495
  987YOPC   C4B12988   6.163  18.098   7.499 -0.0199 -0.0175  0.1146
  988YOPC   NC312989  15.468   1.394   6.024 -0.0878 -0.1094  0.0734
  988YOPC   PO412990  15.147   1.286   6.305  0.0508  0.2103 -0.0706
  988YOPC   GL112991  14.858   1.154   6.461 -0.2214 -0.0234 -0.1194
  988YOPC   GL212992  14.492   1.305   6.384 -0.0969 -0.1554 -0.2355
  988YOPC   C1A12993  14.672   1.050   6.739  0.0461  0.0695 -0.0650
  988YOPC   D2A12994  14.760   1.215   7.120 -0.2218  0.3373  0.0522
  988YOPC   C3A12995  14.706   1.035   7.496  0.2029 -0.1498 -0.1275
  988YOPC   C4A12996  14.714   0.833   7.832  0.1474  0.1041 -0.0612
  988YOPC   C1B12997  14.538   1.635   6.703  0.2154  0.0666 -0.0489
  988YOPC   C2B12998  14.559   1.700   7.114 -0.0489 -0.0558 -0.0365
  988YOPC   D3B12999  14.507   1.527   7.505  0.4050 -0.0817  0.1776
  988YOPC   C4B13000  14.799   1.619   7.824 -0.0778 -0.0688  0.1174
  989YOPC   NC313001   5.256  10.151   5.573 -0.1160 -0.0471  0.1336
  989YOPC   PO413002   5.125   9.761   5.415  0.0029  0.0592  0.1703
  989YOPC   GL113003   4.948   9.940   5.843  0.3714  0.3709  0.1757
  989YOPC   GL213004   5.029  10.295   6.006  0.0541 -0.0971  0.0167
  989YOPC   C1A13005   4.710   9.985   6.188 -0.0483  0.1172 -0.0621
  989YOPC   D2A13006   4.830   9.968   6.704  0.0676 -0.1460  0.0875
  989YOPC   C3A13007   5.189  10.025   6.989  0.1019 -0.0685 -0.2363
  989YOPC   C4A13008   5.360  10.370   6.894  0.0046 -0.1568  0.1374
  989YOPC   C1B13009   4.707  10.534   6.260 -0.1688  0.1044 -0.2276
  989YOPC   C2B13010   4.463  10.803   6.572  0.5212  0.1895 -0.0999
  989YOPC   D3B13011   4.587  10.909   7.007  0.0443  0.0121  0.1372
  989YOPC   C4B13012   4.723  10.854   7.339  0.1961  0.1969  0.1814
  990YOPC   NC313013   3.392   9.593   5.531 -0.1681  0.2569  0.2384
  990YOPC   PO413014   3.118   9.219   5.610  0.1814 -0.1153 -0.1198
  990YOPC   GL113015   3.047   9.120   6.011 -0.1937 -0.1057  0.1268
  990YOPC   GL213016   2.931   8.807   6.064 -0.3559  0.3446  0.1643
  990YOPC   C1A13017   3.016   9.062   6.487  0.0920  0.0828 -0.0149
  990YOPC   D2A13018   2.897   9.114   6.848 -0.3322 -0.0034  0.1403
  990YOPC   C3A13019   3.145   9.265   7.203 -0.0061 -0.0174 -0.0260
  990YOPC   C4A13020   3.107   9.564   7.498  0.1601 -0.0242  0.3753
  990YOPC   C1B13021   2.863   8.624   6.527 -0.1276 -0.2008  0.2077
  990YOPC   C2B13022   2.859   8.569   6.940  0.2282  0.1328 -0.4641
  990YOPC   D3B13023   2.743   8.926   7.283 -0.2004 -0.0678  0.3195
  990YOPC   C4B13024   2.663   9.450   7.400  0.2608 -0.3089  0.1049
  991YOPC   NC313025   9.391   9.117   6.320 -0.2384  0.1988  0.0557
  991YOPC   PO413026   9.053   9.461   6.343 -0.0305 -0.0510  0.1557
  991YOPC   GL113027   9.066   9.118   6.675 -0.2047 -0.1881 -0.2777
  991YOPC   GL213028   9.330   9.219   6.847 -0.1297  0.0695 -0.2270
  991YOPC   C1A13029   9.097   8.825   7.092  0.1237  0.1201  0.3462
  991YOPC   D2A13030   9.127   8.995   7.390  0.1859  0.1759 -0.0008
  991YOPC   C3A13031   9.166   9.375   7.245 -0.1321 -0.0541  0.1107
  991YOPC   C4A13032   9.220   9.794   7.129  0.0851 -0.2626 -0.0787
  991YOPC   C1B13033   9.618   8.895   7.089  0.3389  0.0601 -0.1123
  991YOPC   C2B13034   9.751   8.828   7.470 -0.1124  0.1650 -0.0601
  991YOPC   D3B13035   9.511   9.023   7.724  0.0495  0.0798  0.2564
  991YOPC   C4B13036   9.492   9.115   8.186  0.1692 -0.1967 -0.3153
  992YOPC   NC313037  13.620   8.929   5.882 -0.0218  0.0871 -0.0376
  992YOPC   PO413038  13.486   9.319   6.090 -0.3052 -0.0404 -0.1025
  992YOPC   GL113039  13.706   9.151   6.429 -0.1419 -0.0746 -0.1768
  992YOPC   GL213040  13.918   8.943   6.492 -0.1440  0.4424  0.0054
  992YOPC   C1A13041  13.665   9.107   6.887 -0.0650 -0.1312 -0.0408
  992YOPC   D2A13042  13.493   8.852   7.191 -0.0626  0.0589 -0.1424
  992YOPC   C3A13043  13.322   8.653   7.572  0.1396 -0.1306  0.0106
  992YOPC   C4A13044  13.429   8.412   7.855 -0.2846  0.1005  0.2166
  992YOPC   C1B13045  13.742   8.604   6.704 -0.0336  0.0639  0.0030
  992YOPC   C2B13046  13.888   8.445   7.103  0.1046 -0.1171  0.0673
  992YOPC   D3B13047  13.806   8.604   7.559 -0.0252 -0.1449 -0.3113
  992YOPC   C4B13048  14.050   8.390   7.845 -0.3347 -0.3300 -0.3143
  993YOPC   NC313049  14.654  13.478   5.744  0.0338  0.0095 -0.1758
  993YOPC   PO413050  14.812  13.924   5.815 -0.2228  0.4043 -0.2818
  993YOPC   GL113051  14.813  14.164   6.206  0.3169 -0.1606  0.0634
  993YOPC   GL213052  14.501  14.092   6.271  0.0004 -0.0362 -0.0791
  993YOPC   C1A13053  15.018  14.372   6.622  0.2754 -0.1343 -0.1532
  993YOPC   D2A13054  15.094  14.485   7.017  0.2411 -0.1223 -0.0284
  993YOPC   C3A13055  15.037  14.262   7.435 -0.1145  0.0789  0.0535
  993YOPC   C4A13056  14.831  13.889   7.579 -0.4220  0.2077  0.0018
  993YOPC   C1B13057  14.581  14.122   6.664  0.3228  0.2490  0.3021
  993YOPC   C2B13058  14.416  14.108   7.132 -0.0619  0.0868 -0.1277
  993YOPC   D3B13059  14.149  13.899   7.379  0.1642 -0.1284 -0.0173
  993YOPC   C4B13060  13.893  13.759   7.692 -0.0931  0.4056 -0.3616
  994YOPC   NC313061  14.006  17.741   6.192  0.0340 -0.3813  0.2554
  994YOPC   PO413062  14.116  17.497   6.410  0.0223  0.1507 -0.0240
  994YOPC   GL113063  14.059  17.592   6.849  0.2275 -0.0810  0.0446
  994YOPC   GL213064  13.985  17.900   6.779 -0.1991 -0.5469  0.0309
  994YOPC   C1A13065  14.181  17.598   7.323 -0.0692  0.1801  0.0767
  994YOPC   D2A13066  14.074  17.514   7.735  0.3115  0.1215  0.1738
  994YOPC   C3A13067  13.886  17.158   7.821  0.0689  0.0955  0.0868
  994YOPC   C4A13068  14.104  16.816   8.110 -0.0487 -0.0439  0.0261
  994YOPC   C1B13069  13.780  17.841   7.176 -0.1822 -0.0536  0.0134
  994YOPC   C2B13070  13.778  17.890   7.610 -0.1219 -0.1568  0.2402
  994YOPC   D3B13071  13.612  17.637   7.875 -0.2853 -0.2988  0.1753
  994YOPC   C4B13072  13.392  17.271   7.767  0.0368 -0.1032 -0.1333
  995YOPC   NC313073   6.061  15.417   4.899 -0.1832  0.0545 -0.0667
  995YOPC   PO413074   5.634  15.358   4.997 -0.0636  0.0242 -0.1479
  995YOPC   GL113075   5.541  15.704   5.401 -0.0115  0.0088 -0.3896
  995YOPC   GL213076   5.849  15.933   5.270  0.1071 -0.2680  0.1775
  995YOPC   C1A13077   5.423  15.690   5.861  0.3242  0.1171 -0.0244
  995YOPC   D2A13078   5.666  15.563   6.162  0.3544 -0.4811 -0.3299
  995YOPC   C3A13079   5.640  15.645   6.603  0.1874  0.0770 -0.1066
  995YOPC   C4A13080   5.860  15.668   7.024  0.0727  0.1594 -0.1778
  995YOPC   C1B13081   5.925  15.743   5.719 -0.2133 -0.1504  0.1877
  995YOPC   C2B13082   6.146  15.278   5.875  0.0137  0.0280  0.0364
  995YOPC   D3B13083   6.029  15.269   6.231 -0.1101  0.6731 -0.1612
  995YOPC   C4B13084   6.106  15.319   6.644 -0.2134 -0.3697 -0.2466
  996YOPC   NC313085   4.851  11.013   5.461  0.1253 -0.2497  0.0437
  996YOPC   PO413086   4.476  10.880   5.665 -0.4524  0.0668 -0.0261
  996YOPC   GL113087   4.313  11.098   6.033  0.3028  0.2715 -0.3391
  996YOPC   GL213088   4.012  11.121   6.082  0.0886  0.0278 -0.0793
  996YOPC   C1A13089   4.434  11.341   6.392  0.0731  0.0487 -0.0379
  996YOPC   D2A13090   4.559  11.400   6.779  0.1087 -0.1212  0.0437
  996YOPC   C3A13091   4.575  11.331   7.317  0.2773 -0.0899 -0.0317
  996YOPC   C4A13092   4.792  11.490   7.734  0.0859 -0.0017  0.1090
  996YOPC   C1B13093   3.984  10.929   6.429  0.1902 -0.0552 -0.1824
  996YOPC   C2B13094   3.968  10.720   6.776  0.0157  0.0224 -0.1123
  996YOPC   D3B13095   4.019  10.733   7.234  0.2291 -0.1785 -0.0255
  996YOPC   C4B13096   4.168  10.766   7.697  0.1403 -0.2201 -0.1972
  997YOPC   NC313097   4.779  17.862   4.965  0.0346 -0.1846  0.1761
  997YOPC   PO413098   4.575  18.121   5.302  0.0059 -0.0332  0.1512
  997YOPC   GL113099   4.570  18.055   5.702  0.2718 -0.0841  0.0648
  997YOPC   GL213100   4.952  18.002   5.825 -0.3651  0.1431 -0.1201
  997YOPC   C1A13101   4.505  18.173   6.248  0.0417 -0.1023 -0.0901
  997YOPC   D2A13102   4.376  18.339   6.648  0.1886 -0.0705  0.0347
  997YOPC   C3A13103   4.369  18.253   7.129  0.2623  0.2511 -0.2934
  997YOPC   C4A13104   4.491  18.096   7.523 -0.2096  0.1279  0.3339
  997YOPC   C1B13105   4.998  18.043   6.275  0.1357 -0.0125  0.0595
  997YOPC   C2B13106   4.940  18.231   6.731  0.0912 -0.1083  0.2683
  997YOPC   D3B13107   4.835  18.047   7.049 -0.2740 -0.0572  0.1733
  997YOPC   C4B13108   4.803  17.725   7.296  0.0760  0.4648 -0.0444
  998YOPC   NC313109   7.015   1.374   5.674  0.1240  0.2977 -0.0688
  998YOPC   PO413110   6.796   1.016   5.710  0.0579  0.4657 -0.1268
  998YOPC   GL113111   6.747   1.294   6.120 -0.1256 -0.0686  0.1416
  998YOPC   GL213112   6.476   1.376   6.217  0.0968 -0.2705 -0.3080
  998YOPC   C1A13113   6.908   1.487   6.496 -0.0228  0.4597  0.1167
  998YOPC   D2A13114   7.009   1.559   6.977 -0.2178  0.0538 -0.1818
  998YOPC   C3A13115   7.343   1.825   7.002  0.3588 -0.0349  0.0335
  998YOPC   C4A13116   7.619   2.080   7.199  0.2720 -0.1970  0.0260
  998YOPC   C1B13117   6.378   1.475   6.649 -0.4213  0.0951  0.2109
  998YOPC   C2B13118   6.402   1.823   6.888 -0.3452  0.0202  0.1452
  998YOPC   D3B13119   6.349   1.892   7.259  0.1488  0.3020 -0.1567
  998YOPC   C4B13120   6.222   1.991   7.725 -0.0867  0.0821 -0.1456
  999YOPC   NC313121   9.200  13.847   5.707 -0.3096  0.0002 -0.3452
  999YOPC   PO413122   8.766  13.767   5.916  0.0780  0.0572 -0.0314
  999YOPC   GL113123   8.823  13.639   6.421  0.3837  0.0256 -0.0359
  999YOPC   GL213124   8.951  13.300   6.554  0.1630 -0.0071  0.0636
  999YOPC   C1A13125   8.525  13.683   6.736 -0.1401  0.2580  0.2475
  999YOPC   D2A13126   8.389  13.717   7.115  0.1647 -0.1324 -0.0106
  999YOPC   C3A13127   8.119  13.883   7.275  0.3971 -0.1785  0.2078
  999YOPC   C4A13128   7.891  14.092   7.572 -0.3888  0.1894 -0.0350
  999YOPC   C1B13129   8.807  13.358   6.930  0.1701  0.1247 -0.2833
  999YOPC   C2B13130   8.595  13.305   7.360 -0.0911 -0.1298  0.1829
  999YOPC   D3B13131   8.352  13.647   7.641 -0.2565  0.1050  0.2264
  999YOPC   C4B13132   8.125  13.936   7.944  0.0028  0.1534  0.1593
 1000YOPC   NC313133  15.155   5.953   5.138  0.0429 -0.2147  0.1443
 1000YOPC   PO413134  14.939   5.884   5.504 -0.0139 -0.1224 -0.0907
 1000YOPC   GL113135  14.936   6.022   5.901  0.2200  0.1144 -0.2018
 1000YOPC   GL213136  14.997   5.864   6.190  0.0685 -0.0336  0.3091
 1000YOPC   C1A13137  14.627   6.228   6.175 -0.1268 -0.3353  0.0739
 1000YOPC   D2A13138  14.208   6.315   6.412 -0.0321 -0.1204 -0.2429
 1000YOPC   C3A13139  14.144   6.739   6.576 -0.1410  0.0174 -0.1137
 1000YOPC   C4A13140  14.377   7.121   6.723  0.2143  0.1696 -0.0415
 1000YOPC   C1B13141  14.771   5.949   6.555  0.0648  0.2360 -0.2016
 1000YOPC   C2B13142  14.605   6.206   6.859 -0.2403 -0.1703  0.0700
 1000YOPC   D3B13143  14.175   6.338   7.004 -0.2348  0.1789 -0.2506
 1000YOPC   C4B13144  13.872   6.487   7.389 -0.0359  0.1247  0.2004
 1001YOPC   NC313145  14.262   9.214   5.407  0.1569 -0.1726 -0.0263
 1001YOPC   PO413146  14.424   9.563   5.755  0.0802 -0.1975 -0.0951
 1001YOPC   GL113147  14.607   9.614   6.197  0.0311  0.1531  0.3816
 1001YOPC   GL213148  14.795   9.373   6.213  0.1684 -0.0075  0.2704
 1001YOPC   C1A13149  14.698   9.812   6.550  0.1059  0.0794 -0.0748
 1001YOPC   D2A13150  14.805  10.165   6.767  0.1705 -0.1275  0.0284
 1001YOPC   C3A13151  14.895  10.281   7.070 -0.0022 -0.2574 -0.4545
 1001YOPC   C4A13152  15.173  10.302   7.458 -0.0763  0.2343 -0.0254
 1001YOPC   C1B13153  14.779   9.297   6.642  0.0767  0.0496 -0.2085
 1001YOPC   C2B13154  14.943   9.314   7.047 -0.0110  0.2874  0.1101
 1001YOPC   D3B13155  14.758   9.486   7.414  0.0412  0.4132  0.0410
 1001YOPC   C4B13156  14.415   9.614   7.678 -0.2619 -0.3480 -0.3978
 1002YOPC   NC313157  15.896  13.298   5.685 -0.0273 -0.0900 -0.4036
 1002YOPC   PO413158  16.122  12.919   5.927 -0.3630  0.1605  0.0382
 1002YOPC   GL113159  16.066  12.618   6.202  0.0328 -0.0381  0.2902
 1002YOPC   GL213160  15.836  12.508   6.260  0.3538 -0.3087 -0.1943
 1002YOPC   C1A13161  16.188  12.460   6.635  0.3874 -0.1209  0.1452
 1002YOPC   D2A13162  16.260  12.334   7.090 -0.1160  0.1540  0.3390
 1002YOPC   C3A13163  15.990  12.427   7.508 -0.1099  0.2839  0.1192
 1002YOPC   C4A13164  16.165  12.670   7.780  0.1033 -0.0139  0.0233
 1002YOPC   C1B13165  15.737  12.288   6.559  0.2563 -0.1946 -0.1931
 1002YOPC   C2B13166  15.330  12.332   6.810  0.1532 -0.1371  0.3465
 1002YOPC   D3B13167  15.148  12.091   7.210 -0.0770 -0.0239  0.2527
 1002YOPC   C4B13168  15.202  12.047   7.609 -0.1751  0.1037  0.2506
 1003YOPC   NC313169  16.326  14.939   6.270 -0.1337  0.1201  0.2944
 1003YOPC   PO413170  16.279  14.484   6.261  0.4782  0.1300  0.2364
 1003YOPC   GL113171  16.190  14.593   6.632 -0.3791  0.0425 -0.0057
 1003YOPC   GL213172  15.995  14.823   6.817 -0.1204  0.0329 -0.0158
 1003YOPC   C1A13173  16.314  14.660   7.137 -0.2333  0.2253  0.3247
 1003YOPC   D2A13174  15.971  14.446   7.401  0.3022 -0.0631 -0.1159
 1003YOPC   C3A13175  15.915  14.488   7.761  0.0245  0.0722  0.2097
 1003YOPC   C4A13176  15.659  14.592   8.162 -0.2200  0.0241 -0.1887
 1003YOPC   C1B13177  15.698  14.742   7.003 -0.1773 -0.1545 -0.0595
 1003YOPC   C2B13178  15.496  14.661   7.460  0.0114 -0.0803  0.0476
 1003YOPC   D3B13179  15.433  14.282   7.770 -0.2047 -0.1090  0.1226
 1003YOPC   C4B13180  15.173  14.041   8.045 -0.2509  0.0399 -0.0071
 1004YOPC   NC313181  11.483  17.154   5.693 -0.0889 -0.0190  0.0817
 1004YOPC   PO413182  11.616  17.629   5.573  0.3525 -0.2818  0.1711
 1004YOPC   GL113183  11.795  17.593   5.962  0.1074  0.0184 -0.2819
 1004YOPC   GL213184  12.077  17.507   6.012 -0.2477 -0.3519 -0.0162
 1004YOPC   C1A13185  11.708  17.433   6.346 -0.2407 -0.1234 -0.3464
 1004YOPC   D2A13186  11.897  17.153   6.562 -0.1034 -0.0122  0.0853
 1004YOPC   C3A13187  11.930  17.316   6.935  0.0688  0.3651  0.0486
 1004YOPC   C4A13188  11.725  17.459   7.336  0.1887  0.2468  0.2089
 1004YOPC   C1B13189  12.143  17.689   6.432  0.1960 -0.2328  0.0631
 1004YOPC   C2B13190  12.291  17.671   6.837  0.0228  0.0452 -0.1699
 1004YOPC   D3B13191  12.210  18.072   6.936 -0.0344 -0.0068  0.4036
 1004YOPC   C4B13192  12.167  18.339   7.331  0.3310 -0.1386 -0.0982
 1005YOPC   NC313193  11.858   5.845   5.524  0.0399 -0.2684  0.1654
 1005YOPC   PO413194  11.614   5.654   5.877 -0.1451  0.1757  0.1468
 1005YOPC   GL113195  11.550   5.406   6.354  0.2437 -0.0814  0.0754
 1005YOPC   GL213196  11.202   5.510   6.391  0.2932  0.1541  0.1075
 1005YOPC   C1A13197  11.842   5.056   6.581 -0.0888 -0.0723 -0.2366
 1005YOPC   D2A13198  12.075   5.066   6.936  0.1101  0.2208  0.0033
 1005YOPC   C3A13199  12.256   4.854   7.249 -0.0588 -0.2414 -0.1023
 1005YOPC   C4A13200  12.393   4.702   7.662 -0.1241 -0.1742 -0.0248
 1005YOPC   C1B13201  11.273   5.700   6.706 -0.3110 -0.3097 -0.0642
 1005YOPC   C2B13202  11.024   5.969   6.990 -0.0035 -0.0763  0.0472
 1005YOPC   D3B13203  11.091   6.126   7.406 -0.0711  0.1996 -0.1236
 1005YOPC   C4B13204  11.273   5.862   7.688 -0.1334 -0.1147  0.0810
 1006YOPC   NC313205   9.126   2.177   5.692 -0.1696  0.0906  0.2371
 1006YOPC   PO413206   9.139   2.611   5.855 -0.3335 -0.4195  0.0530
 1006YOPC   GL113207   9.156   2.400   6.281  0.2680 -0.0982 -0.2649
 1006YOPC   GL213208   9.340   2.087   6.181 -0.3279 -0.0445  0.0064
 1006YOPC   C1A13209   9.277   2.059   6.644 -0.0862 -0.3165 -0.0088
 1006YOPC   D2A13210   9.149   2.019   7.129  0.0560 -0.0588 -0.0890
 1006YOPC   C3A13211   8.787   2.197   7.381  0.0534 -0.2035  0.2879
 1006YOPC   C4A13212   8.521   2.207   7.748  0.1207 -0.0421  0.1067
 1006YOPC   C1B13213   9.653   2.348   6.477  0.3560  0.1468 -0.1563
 1006YOPC   C2B13214   9.797   2.521   6.786  0.0940 -0.1158  0.0031
 1006YOPC   D3B13215   9.587   2.395   7.095 -0.1356  0.0753 -0.0479
 1006YOPC   C4B13216   9.297   2.337   7.496 -0.1601 -0.0059 -0.1063
 1007YOPC   NC313217   0.813  14.700   5.887  0.0640 -0.4313  0.0171
 1007YOPC   PO413218   1.137  14.743   6.088 -0.2177  0.0443 -0.1189
 1007YOPC   GL113219   1.348  14.848   6.552  0.0430  0.4142 -0.0233
 1007YOPC   GL213220   1.106  14.942   6.620 -0.2581 -0.3923 -0.0217
 1007YOPC   C1A13221   1.589  14.728   6.903 -0.0432 -0.2633  0.1950
 1007YOPC   D2A13222   1.902  14.867   7.141  0.0838  0.0906 -0.0082
 1007YOPC   C3A13223   2.146  14.715   7.601  0.1573 -0.2913 -0.0645
 1007YOPC   C4A13224   2.315  14.699   8.049  0.3197 -0.2693  0.3591
 1007YOPC   C1B13225   1.087  14.871   7.111  0.0955 -0.0284  0.1343
 1007YOPC   C2B13226   1.066  15.021   7.641  0.1608 -0.0667 -0.3025
 1007YOPC   D3B13227   0.716  15.166   7.835 -0.2404 -0.0979 -0.0168
 1007YOPC   C4B13228   0.269  15.239   7.807  0.1785  0.2366 -0.0144
 1008YOPC   NC313229   8.890   2.850   5.483  0.0069 -0.1842 -0.0333
 1008YOPC   PO413230   9.223   3.242   5.647  0.0739  0.1059  0.1439
 1008YOPC   GL113231   8.854   3.000   5.935 -0.1274 -0.1428 -0.1523
 1008YOPC   GL213232   9.159   2.961   6.189  0.0884 -0.0298 -0.2474
 1008YOPC   C1A13233   8.509   2.938   6.182  0.1711 -0.2363 -0.5570
 1008YOPC   D2A13234   8.495   2.955   6.719 -0.0923  0.0145 -0.0619
 1008YOPC   C3A13235   8.540   2.715   7.041  0.2513 -0.0992 -0.0101
 1008YOPC   C4A13236   8.368   2.576   7.375 -0.2613  0.0505  0.3568
 1008YOPC   C1B13237   8.920   2.815   6.517 -0.0417 -0.0746  0.1361
 1008YOPC   C2B13238   8.751   2.449   6.622  0.1575 -0.1804 -0.0267
 1008YOPC   D3B13239   8.575   2.217   6.912  0.2803 -0.0795  0.0849
 1008YOPC   C4B13240   8.284   2.039   7.202 -0.2501  0.0183  0.0704
 1009YOPC   NC313241   0.686   6.879   4.893  0.1340  0.2740 -0.0190
 1009YOPC   PO413242   0.475   6.891   5.311  0.2670 -0.0204 -0.0236
 1009YOPC   GL113243   0.281   7.209   5.607  0.1036 -0.0529  0.0068
 1009YOPC   GL213244   0.376   7.502   5.464 -0.4386  0.0388  0.1540
 1009YOPC   C1A13245   0.121   7.137   6.058  0.3669  0.3398  0.0402
 1009YOPC   D2A13246   0.147   7.209   6.448  0.0514 -0.3177  0.3461
 1009YOPC   C3A13247   0.008   7.452   6.737  0.2272 -0.1429  0.0460
 1009YOPC   C4A13248   0.170   7.921   6.786 -0.0041  0.2835 -0.0888
 1009YOPC   C1B13249   0.417   7.531   5.946  0.3412 -0.1237 -0.0606
 1009YOPC   C2B13250   0.371   7.651   6.386 -0.0324  0.0760  0.3321
 1009YOPC   D3B13251   0.519   7.438   6.717  0.2121  0.1350 -0.1942
 1009YOPC   C4B13252   0.317   7.647   7.170  0.0113 -0.0318  0.1052
 1010YOPC   NC313253   1.726   9.963   5.017 -0.0494 -0.1260  0.0133
 1010YOPC   PO413254   1.528   9.637   5.339 -0.1863 -0.4634 -0.2066
 1010YOPC   GL113255   1.398   9.698   5.811 -0.0551  0.2278 -0.1013
 1010YOPC   GL213256   1.306   9.949   5.880  0.0046 -0.1735 -0.1797
 1010YOPC   C1A13257   1.389   9.511   6.164 -0.1922 -0.0218  0.0250
 1010YOPC   D2A13258   1.323   9.363   6.658  0.1368 -0.1570 -0.0946
 1010YOPC   C3A13259   1.464   9.527   7.068 -0.0038 -0.2992 -0.2060
 1010YOPC   C4A13260   1.457   9.652   7.529  0.0198 -0.0253 -0.0128
 1010YOPC   C1B13261   1.542  10.002   6.273 -0.2236 -0.1838  0.0323
 1010YOPC   C2B13262   1.697   9.810   6.686  0.0996  0.0714  0.0312
 1010YOPC   D3B13263   1.832   9.863   7.170 -0.0283 -0.0325  0.0820
 1010YOPC   C4B13264   1.959   9.655   7.629 -0.2640  0.1180  0.0334
 1011YOPC   NC313265   9.086  16.318   5.577  0.1160 -0.1584  0.1650
 1011YOPC   PO413266   9.262  16.719   5.747 -0.0262 -0.1857 -0.1743
 1011YOPC   GL113267   9.461  16.345   5.942  0.0083  0.1148  0.1853
 1011YOPC   GL213268   9.876  16.226   6.008  0.0123  0.0243 -0.2140
 1011YOPC   C1A13269   9.609  16.258   6.394  0.2916 -0.3276  0.0070
 1011YOPC   D2A13270   9.633  16.189   6.837 -0.1003  0.1759 -0.1776
 1011YOPC   C3A13271   9.616  16.157   7.289 -0.3884  0.0423  0.0951
 1011YOPC   C4A13272   9.472  15.889   7.519  0.0018  0.1559  0.0196
 1011YOPC   C1B13273   9.808  16.597   6.149  0.0797 -0.2313  0.3280
 1011YOPC   C2B13274   9.672  17.108   6.323 -0.0230 -0.0306 -0.0907
 1011YOPC   D3B13275   9.763  17.181   6.757 -0.1420 -0.1705  0.0956
 1011YOPC   C4B13276  10.069  17.534   6.858 -0.0201 -0.2962  0.0324
 1012YOPC   NC313277   4.245  11.455   5.581  0.0798  0.0209 -0.0399
 1012YOPC   PO413278   4.555  11.388   5.757 -0.0693  0.2443  0.1322
 1012YOPC   GL113279   4.882  11.378   6.172 -0.2346 -0.0446  0.0865
 1012YOPC   GL213280   4.842  11.617   6.355  0.1207  0.0807  0.0395
 1012YOPC   C1A13281   4.967  11.089   6.449  0.0796  0.1162  0.2017
 1012YOPC   D2A13282   5.028  10.796   6.681  0.3334  0.0911 -0.1503
 1012YOPC   C3A13283   4.875  10.485   6.981 -0.0219  0.0194 -0.3695
 1012YOPC   C4A13284   5.017  10.386   7.311  0.1511  0.0371 -0.0538
 1012YOPC   C1B13285   5.148  11.552   6.624 -0.2693 -0.0108 -0.1826
 1012YOPC   C2B13286   5.400  11.461   6.941  0.6944 -0.1849 -0.1222
 1012YOPC   D3B13287   5.129  11.303   7.387 -0.2807 -0.1545  0.1459
 1012YOPC   C4B13288   5.155  11.050   7.740 -0.1238 -0.0093 -0.0141
 1013YOPC   NC313289   0.254   1.092   5.722 -0.2238  0.3332  0.1271
 1013YOPC   PO413290   0.599   0.869   5.794  0.5024 -0.0910  0.0960
 1013YOPC   GL113291   0.301   0.906   6.188 -0.1767  0.2015  0.0039
 1013YOPC   GL213292   0.249   0.722   6.439  0.2386 -0.2364 -0.2521
 1013YOPC   C1A13293   0.177   1.309   6.453 -0.2964  0.0078  0.1612
 1013YOPC   D2A13294  -0.089   1.659   6.474 -0.0987 -0.0379  0.1050
 1013YOPC   C3A13295   0.047   1.860   6.747 -0.1766 -0.0333  0.2179
 1013YOPC   C4A13296   0.317   1.859   6.915 -0.0457 -0.1149 -0.4516
 1013YOPC   C1B13297   0.246   0.878   6.825  0.3025 -0.0235 -0.0841
 1013YOPC   C2B13298   0.255   1.025   7.323  0.0841  0.0016  0.3261
 1013YOPC   D3B13299   0.098   1.135   7.670 -0.0957 -0.2147 -0.1276
 1013YOPC   C4B13300  -0.332   1.118   7.804 -0.1370  0.0971  0.1803
 1014YOPC   NC313301  10.796   7.293   5.705 -0.1255 -0.2054  0.0158
 1014YOPC   PO413302  11.079   7.505   6.040  0.2715 -0.0849 -0.1877
 1014YOPC   GL113303  11.097   7.804   6.348 -0.1405 -0.3012 -0.0762
 1014YOPC   GL213304  10.783   7.840   6.454 -0.0134  0.2247  0.2000
 1014YOPC   C1A13305  11.268   7.697   6.701  0.0005 -0.0137 -0.0497
 1014YOPC   D2A13306  11.167   7.573   7.128  0.0508 -0.4717  0.0638
 1014YOPC   C3A13307  11.038   7.846   7.359  0.5562  0.0931 -0.2272
 1014YOPC   C4A13308  11.021   8.128   7.667  0.2470 -0.1396  0.0452
 1014YOPC   C1B13309  10.700   7.822   6.922 -0.1835 -0.4017  0.2190
 1014YOPC   C2B13310  10.531   7.860   7.370  0.0264  0.1148  0.2479
 1014YOPC   D3B13311  10.816   7.595   7.677  0.0795  0.0609  0.3863
 1014YOPC   C4B13312  10.927   7.821   8.066  0.2065 -0.0386 -0.0370
 1015YOPC   NC313313   8.737  10.256   5.828  0.1356  0.0730 -0.1983
 1015YOPC   PO413314   8.918  10.036   6.127  0.0606  0.0328 -0.0312
 1015YOPC   GL113315   8.721   9.830   6.503  0.1792 -0.5055 -0.1592
 1015YOPC   GL213316   8.762  10.108   6.765 -0.0886  0.3163  0.1395
 1015YOPC   C1A13317   8.762   9.588   6.991  0.1833  0.4133 -0.0653
 1015YOPC   D2A13318   8.763   9.495   7.423  0.1905  0.3583 -0.0792
 1015YOPC   C3A13319   8.382   9.613   7.675  0.0162 -0.0459  0.2424
 1015YOPC   C4A13320   7.908   9.735   7.888  0.0038  0.2542 -0.0605
 1015YOPC   C1B13321   8.791  10.103   7.105 -0.1446  0.0301 -0.0811
 1015YOPC   C2B13322   9.096  10.142   7.433 -0.2094 -0.4340  0.0953
 1015YOPC   D3B13323   9.170   9.765   7.637  0.0723  0.0641  0.1233
 1015YOPC   C4B13324   9.462   9.636   7.908  0.1521  0.2192  0.0583
 1016YOPC   NC313325   8.433   6.096   5.575  0.0527 -0.1477 -0.2992
 1016YOPC   PO413326   8.403   5.639   5.589 -0.0797  0.0604  0.1062
 1016YOPC   GL113327   8.629   5.854   6.003 -0.1042 -0.1225  0.1087
 1016YOPC   GL213328   8.380   6.005   6.144 -0.1127  0.3669  0.4317
 1016YOPC   C1A13329   8.864   5.787   6.363  0.1991  0.0535 -0.2056
 1016YOPC   D2A13330   8.595   5.747   6.791  0.2502 -0.0721  0.0829
 1016YOPC   C3A13331   8.635   5.592   7.167  0.0473 -0.4221  0.1575
 1016YOPC   C4A13332   9.046   5.517   7.411 -0.1037 -0.0707 -0.2519
 1016YOPC   C1B13333   8.278   6.110   6.539 -0.1151  0.0680 -0.0523
 1016YOPC   C2B13334   8.187   6.091   6.918 -0.0731 -0.0526 -0.0238
 1016YOPC   D3B13335   8.451   6.101   7.282  0.1236  0.0126 -0.1148
 1016YOPC   C4B13336   8.630   5.866   7.614  0.3368 -0.0756 -0.3066
 1017YOPC   NC313337   2.647   9.020   5.576  0.2352 -0.2504 -0.4655
 1017YOPC   PO413338   2.128   9.184   5.590 -0.2066  0.3450 -0.1895
 1017YOPC   GL113339   2.321   8.949   5.979  0.0202 -0.3559  0.0802
 1017YOPC   GL213340   2.580   9.103   6.193  0.2438  0.0796 -0.1006
 1017YOPC   C1A13341   2.389   8.615   6.171 -0.0774  0.1506  0.1296
 1017YOPC   D2A13342   2.587   8.231   6.360  0.2072  0.0107  0.1466
 1017YOPC   C3A13343   2.405   8.238   6.777  0.1365  0.0749 -0.0391
 1017YOPC   C4A13344   2.479   8.400   7.198 -0.1497 -0.3592  0.0934
 1017YOPC   C1B13345   2.497   8.918   6.568 -0.2017 -0.0310 -0.1357
 1017YOPC   C2B13346   2.378   8.834   6.919 -0.3846  0.3858 -0.0459
 1017YOPC   D3B13347   2.319   9.044   7.381 -0.2994 -0.1233 -0.0218
 1017YOPC   C4B13348   2.038   8.909   7.774 -0.2963 -0.0589  0.3092
 1018YOPC   NC313349   0.674  17.086   5.994 -0.0147 -0.2485  0.1697
 1018YOPC   PO413350   0.784  17.477   5.965  0.0490  0.0477  0.0210
 1018YOPC   GL113351   0.749  17.389   6.463  0.1410  0.1984  0.2882
 1018YOPC   GL213352   0.912  17.676   6.513  0.1693 -0.1624  0.0997
 1018YOPC   C1A13353   0.693  17.569   6.899  0.4277 -0.1762 -0.1011
 1018YOPC   D2A13354   0.841  17.891   7.003  0.2221 -0.4695 -0.1683
 1018YOPC   C3A13355   0.825  18.096   7.433 -0.0685  0.1477 -0.3710
 1018YOPC   C4A13356   1.158  18.294   7.734  0.1438  0.3580 -0.1453
 1018YOPC   C1B13357   1.279  17.804   6.817 -0.0489  0.0222 -0.1716
 1018YOPC   C2B13358   1.276  17.898   7.329 -0.1178 -0.0795  0.0006
 1018YOPC   D3B13359   1.515  17.748   7.674 -0.2404 -0.3270 -0.0647
 1018YOPC   C4B13360   1.749  17.448   8.054  0.1931 -0.1376 -0.2192
 1019YOPC   NC313361  15.265  10.178   5.094  0.2226 -0.1235 -0.0184
 1019YOPC   PO413362  15.593  10.020   5.421 -0.0440  0.0004  0.0240
 1019YOPC   GL113363  15.811   9.990   5.804 -0.2001  0.0335 -0.1725
 1019YOPC   GL213364  15.757   9.688   5.801  0.3071 -0.0203  0.3527
 1019YOPC   C1A13365  15.621  10.133   6.218  0.1017  0.0320  0.2467
 1019YOPC   D2A13366  15.723  10.014   6.586 -0.0155  0.4764  0.2459
 1019YOPC   C3A13367  15.879  10.221   6.847 -0.1756  0.1932  0.1227
 1019YOPC   C4A13368  16.209  10.262   7.123 -0.1380 -0.1188 -0.0893
 1019YOPC   C1B13369  15.704   9.640   6.177  0.4476  0.0056 -0.2836
 1019YOPC   C2B13370  15.823   9.428   6.487 -0.0124 -0.0389 -0.1569
 1019YOPC   D3B13371  15.876   9.609   6.897  0.3818  0.2246 -0.2129
 1019YOPC   C4B13372  15.702   9.810   7.163 -0.0094 -0.2255  0.6579
 1020YOPC   NC313373   1.404  14.017   5.568 -0.1803  0.0092 -0.0887
 1020YOPC   PO413374   1.469  13.508   5.727  0.0841 -0.0650 -0.0507
 1020YOPC   GL113375   1.737  13.515   6.108 -0.0244 -0.0827  0.0190
 1020YOPC   GL213376   1.962  13.279   5.951 -0.1177  0.0693  0.1026
 1020YOPC   C1A13377   1.996  13.393   6.428  0.0186  0.1306  0.0002
 1020YOPC   D2A13378   1.951  13.055   6.777 -0.0645  0.1260  0.2743
 1020YOPC   C3A13379   1.890  13.219   7.081  0.0290  0.0533  0.3041
 1020YOPC   C4A13380   2.009  13.148   7.441  0.1227 -0.1209  0.3067
 1020YOPC   C1B13381   1.640  13.045   6.273 -0.2701 -0.3516  0.0321
 1020YOPC   C2B13382   1.382  12.748   6.415  0.0897 -0.1968  0.0067
 1020YOPC   D3B13383   1.530  12.773   6.883  0.1319  0.0962 -0.2461
 1020YOPC   C4B13384   1.416  12.592   7.263  0.1055 -0.0636 -0.2058
 1021YOPC   NC313385  17.861  11.942   5.774  0.4703  0.0990 -0.1140
 1021YOPC   PO413386  17.609  11.705   5.407 -0.0928 -0.0535 -0.1531
 1021YOPC   GL113387  17.344  11.656   5.817 -0.0719 -0.0086  0.0622
 1021YOPC   GL213388  17.583  11.704   6.160 -0.1931 -0.0346  0.0776
 1021YOPC   C1A13389  17.087  11.855   6.158 -0.1231 -0.4149 -0.0440
 1021YOPC   D2A13390  17.335  11.895   6.556 -0.0608 -0.1671 -0.1399
 1021YOPC   C3A13391  17.542  11.970   6.937 -0.0511 -0.0126 -0.4105
 1021YOPC   C4A13392  17.629  12.251   7.279  0.1301  0.1462  0.0576
 1021YOPC   C1B13393  17.808  11.620   6.592  0.1745  0.0841 -0.2112
 1021YOPC   C2B13394  17.921  11.290   6.961  0.0506  0.0132  0.0178
 1021YOPC   D3B13395  18.128  11.400   7.338  0.0973  0.0781 -0.1915
 1021YOPC   C4B13396  18.183  11.234   7.735  0.1390 -0.1329 -0.0019
 1022YOPC   NC313397  11.270  16.683   5.591 -0.0269 -0.2030 -0.0712
 1022YOPC   PO413398  10.978  17.057   5.537 -0.0103  0.1364 -0.2493
 1022YOPC   GL113399  11.068  17.070   5.987 -0.1222  0.2172 -0.2404
 1022YOPC   GL213400  11.233  17.370   6.052 -0.1909 -0.1196  0.0303
 1022YOPC   C1A13401  11.166  17.122   6.474  0.0858  0.2827  0.0966
 1022YOPC   D2A13402  11.404  17.175   6.730 -0.0206 -0.2814 -0.3210
 1022YOPC   C3A13403  11.263  17.121   7.012  0.0327  0.0220  0.0021
 1022YOPC   C4A13404  11.278  17.141   7.408 -0.1224 -0.4903 -0.1624
 1022YOPC   C1B13405  11.204  17.666   6.422 -0.1897 -0.2237  0.5042
 1022YOPC   C2B13406  11.274  17.680   6.848 -0.2618  0.1224 -0.1493
 1022YOPC   D3B13407  11.256  17.645   7.239  0.0156  0.1923  0.2330
 1022YOPC   C4B13408  11.333  17.637   7.665 -0.0065  0.0087 -0.1526
 1023YOPC   NC313409   5.603   6.073   4.927 -0.1290  0.1208  0.3619
 1023YOPC   PO413410   5.381   6.182   5.309  0.0018  0.1170  0.0219
 1023YOPC   GL113411   5.316   6.039   5.718  0.2252 -0.1627 -0.0725
 1023YOPC   GL213412   5.430   5.908   5.813  0.0852 -0.2206 -0.1511
 1023YOPC   C1A13413   5.156   6.259   6.060  0.2586  0.0117 -0.6196
 1023YOPC   D2A13414   5.091   6.227   6.469 -0.1223  0.3984  0.0421
 1023YOPC   C3A13415   4.894   6.359   6.796 -0.1452 -0.2047 -0.0604
 1023YOPC   C4A13416   4.504   6.361   7.063  0.1144  0.1736 -0.2537
 1023YOPC   C1B13417   5.438   5.769   6.263  0.1188 -0.2990 -0.1006
 1023YOPC   C2B13418   5.388   5.989   6.753 -0.4480  0.1231 -0.1823
 1023YOPC   D3B13419   5.066   5.985   7.080 -0.1586  0.1256 -0.1544
 1023YOPC   C4B13420   4.723   5.859   7.075 -0.0097  0.2660 -0.0955
 1024YOPC   NC313421   0.848   7.547   5.436  0.2823 -0.2513  0.0513
 1024YOPC   PO413422   1.173   7.227   5.261 -0.3374  0.1076  0.0214
 1024YOPC   GL113423   0.805   7.083   5.612 -0.1952  0.1266  0.1677
 1024YOPC   GL213424   0.994   6.936   5.718  0.1045 -0.1127  0.5187
 1024YOPC   C1A13425   0.608   7.077   5.958 -0.1113  0.5056 -0.0381
 1024YOPC   D2A13426   0.635   7.091   6.379 -0.3224 -0.3645  0.0682
 1024YOPC   C3A13427   0.893   6.951   6.675  0.5119  0.1386  0.2979
 1024YOPC   C4A13428   0.786   6.640   7.032  0.2581  0.1521  0.1039
 1024YOPC   C1B13429   0.995   6.847   6.137  0.3493  0.1379  0.0428
 1024YOPC   C2B13430   1.208   6.682   6.344 -0.3735 -0.1384 -0.0592
 1024YOPC   D3B13431   1.426   6.836   6.694 -0.1210 -0.3084 -0.1930
 1024YOPC   C4B13432   1.740   7.212   6.835  0.2041 -0.0541 -0.0493
 1025YOPC   NC313433  13.448  13.304   5.475  0.1109  0.0171 -0.3194
 1025YOPC   PO413434  13.692  13.622   5.819  0.2927  0.1042  0.0918
 1025YOPC   GL113435  13.501  13.835   6.205 -0.0840  0.1167  0.0144
 1025YOPC   GL213436  13.182  13.822   6.298  0.1568  0.1560 -0.3159
 1025YOPC   C1A13437  13.535  13.769   6.631 -0.0826  0.3916  0.0112
 1025YOPC   D2A13438  13.764  13.734   6.840  0.0739  0.0511 -0.1148
 1025YOPC   C3A13439  13.634  13.746   7.292  0.0290 -0.0021  0.0235
 1025YOPC   C4A13440  13.455  13.907   7.618 -0.0450  0.2828  0.1172
 1025YOPC   C1B13441  12.927  14.148   6.592 -0.1822 -0.2217  0.3642
 1025YOPC   C2B13442  12.963  14.206   7.031 -0.2241 -0.1455  0.0406
 1025YOPC   D3B13443  12.633  14.359   7.242 -0.1115  0.3358  0.1088
 1025YOPC   C4B13444  12.431  14.353   7.698 -0.1020  0.0515 -0.1703
 1026YOPC   NC313445   3.123   8.639   5.628  0.1757 -0.0014  0.0115
 1026YOPC   PO413446   3.113   8.198   5.749  0.2030 -0.0350 -0.0425
 1026YOPC   GL113447   3.416   7.965   6.033 -0.2703 -0.1795  0.3120
 1026YOPC   GL213448   3.644   8.200   6.125 -0.1186  0.1798 -0.4014
 1026YOPC   C1A13449   3.518   7.719   6.382  0.4344 -0.1503  0.1472
 1026YOPC   D2A13450   3.358   7.602   6.814 -0.2652  0.2138  0.1699
 1026YOPC   C3A13451   3.386   7.713   7.191 -0.4915 -0.2590  0.1425
 1026YOPC   C4A13452   3.707   7.807   7.400  0.1093  0.1900 -0.0580
 1026YOPC   C1B13453   3.733   8.496   6.486  0.1124  0.2076  0.2935
 1026YOPC   C2B13454   3.372   8.656   6.670  0.0959 -0.0222  0.1331
 1026YOPC   D3B13455   3.387   8.712   7.051 -0.0173  0.0797  0.0471
 1026YOPC   C4B13456   3.668   8.709   7.455 -0.0588 -0.0379 -0.4020
 1027YOPC   NC313457  16.638   7.566   5.076  0.0651  0.0353  0.0659
 1027YOPC   PO413458  16.939   7.696   4.958 -0.0003 -0.1475  0.0735
 1027YOPC   GL113459  16.916   7.760   5.463  0.1276  0.1167  0.1463
 1027YOPC   GL213460  16.584   7.697   5.530  0.0506  0.1688 -0.2822
 1027YOPC   C1A13461  17.033   7.666   5.969  0.0800 -0.1987 -0.1207
 1027YOPC   D2A13462  16.916   7.440   6.280  0.0569 -0.0110 -0.0646
 1027YOPC   C3A13463  17.131   7.497   6.726  0.0007  0.0762 -0.0041
 1027YOPC   C4A13464  16.953   7.593   7.053  0.1403  0.0904  0.1433
 1027YOPC   C1B13465  16.628   7.822   5.946  0.0110 -0.1747  0.0096
 1027YOPC   C2B13466  16.718   7.800   6.488  0.2179  0.0600  0.1205
 1027YOPC   D3B13467  16.553   7.803   6.859  0.1000 -0.0307  0.0329
 1027YOPC   C4B13468  16.650   7.978   7.307 -0.0318 -0.0467 -0.0976
 1028YOPC   NC313469  15.881  16.192   5.643 -0.0243  0.1965 -0.4449
 1028YOPC   PO413470  15.663  16.197   5.921 -0.1598  0.0026  0.0042
 1028YOPC   GL113471  15.822  16.360   6.319  0.3500 -0.2957 -0.0966
 1028YOPC   GL213472  16.099  16.314   6.407 -0.1084  0.0049  0.1497
 1028YOPC   C1A13473  15.834  16.536   6.763  0.1164 -0.4323 -0.1188
 1028YOPC   D2A13474  16.056  16.480   7.107 -0.3208  0.1750  0.0392
 1028YOPC   C3A13475  15.941  16.505   7.397 -0.4167 -0.2557  0.0748
 1028YOPC   C4A13476  15.528  16.415   7.479  0.1843 -0.0151 -0.0085
 1028YOPC   C1B13477  16.148  15.869   6.498  0.0176  0.0390  0.1281
 1028YOPC   C2B13478  16.060  15.439   6.766 -0.0819 -0.4351  0.3082
 1028YOPC   D3B13479  16.326  15.583   7.177 -0.2793 -0.0688  0.0228
 1028YOPC   C4B13480  16.380  15.678   7.619  0.2392  0.0929 -0.0328
 1029YOPC   NC313481  16.106  12.081   5.958 -0.0460  0.1528 -0.3157
 1029YOPC   PO413482  16.372  12.369   5.819 -0.4210  0.4157  0.1052
 1029YOPC   GL113483  16.492  12.256   6.250  0.0199 -0.1823 -0.0127
 1029YOPC   GL213484  16.740  12.304   6.360 -0.0066 -0.0923 -0.4273
 1029YOPC   C1A13485  16.137  11.985   6.606 -0.1993 -0.1767  0.3986
 1029YOPC   D2A13486  15.999  11.915   7.030 -0.2552 -0.0295  0.2524
 1029YOPC   C3A13487  16.241  11.966   7.391  0.0675  0.1801 -0.0995
 1029YOPC   C4A13488  16.394  11.943   7.806 -0.1368 -0.2139 -0.0438
 1029YOPC   C1B13489  16.628  12.189   6.717  0.1056  0.1733 -0.0768
 1029YOPC   C2B13490  16.726  12.146   7.134  0.2403  0.0196  0.1848
 1029YOPC   D3B13491  17.092  11.904   7.214  0.0888  0.0157  0.1067
 1029YOPC   C4B13492  17.380  11.886   7.605  0.3521  0.1297 -0.0673
 1030YOPC   NC313493   7.019  15.661   4.868  0.0695  0.0418  0.0323
 1030YOPC   PO413494   7.224  15.876   5.234 -0.1263  0.1236 -0.1332
 1030YOPC   GL113495   6.986  16.064   5.579 -0.2326 -0.3362 -0.1042
 1030YOPC   GL213496   7.018  16.279   5.857  0.1959 -0.0888 -0.1992
 1030YOPC   C1A13497   6.638  16.313   5.586 -0.1905 -0.3027 -0.1015
 1030YOPC   D2A13498   6.243  16.338   5.734 -0.0203 -0.2170 -0.1335
 1030YOPC   C3A13499   6.102  16.149   5.976 -0.1509 -0.1538  0.1413
 1030YOPC   C4A13500   6.090  15.806   6.209 -0.3023 -0.2301 -0.2120
 1030YOPC   C1B13501   7.230  16.605   6.100  0.1317  0.1990 -0.1425
 1030YOPC   C2B13502   7.348  16.773   6.477  0.0167  0.0581  0.1227
 1030YOPC   D3B13503   7.185  16.899   6.856 -0.1326 -0.0721 -0.1657
 1030YOPC   C4B13504   7.195  17.364   6.956 -0.0774 -0.0543 -0.1109
 1031YOPC   NC313505  15.729   5.393   5.644  0.2877  0.0994 -0.1497
 1031YOPC   PO413506  15.483   5.659   5.457  0.1290 -0.0926  0.1418
 1031YOPC   GL113507  15.469   5.812   5.903 -0.1902  0.1476 -0.0710
 1031YOPC   GL213508  15.401   5.607   6.081  0.0972 -0.2096 -0.0065
 1031YOPC   C1A13509  15.522   6.025   6.352  0.2065  0.0221 -0.2109
 1031YOPC   D2A13510  15.459   6.157   6.688 -0.4809 -0.5336 -0.0145
 1031YOPC   C3A13511  15.834   6.089   7.003  0.1507  0.0674 -0.2428
 1031YOPC   C4A13512  15.892   5.988   7.469 -0.1884  0.0256  0.2304
 1031YOPC   C1B13513  15.237   5.740   6.565  0.3491  0.1139 -0.1439
 1031YOPC   C2B13514  15.267   5.910   7.093 -0.0459  0.0878 -0.0734
 1031YOPC   D3B13515  14.862   6.265   7.291  0.0038  0.0957 -0.2544
 1031YOPC   C4B13516  14.473   6.267   7.351  0.0423  0.3137  0.0821
 1032YOPC   NC313517   8.463  17.295   6.059  0.0665 -0.2286 -0.1124
 1032YOPC   PO413518   8.619  17.642   6.014  0.0747 -0.0725  0.0809
 1032YOPC   GL113519   8.798  17.942   6.339 -0.2162  0.1009 -0.2004
 1032YOPC   GL213520   8.734  18.403   6.299  0.2494  0.3200  0.0595
 1032YOPC   C1A13521   8.935  17.796   6.654 -0.3124  0.0468 -0.4383
 1032YOPC   D2A13522   9.072  17.751   7.169 -0.2011  0.0323  0.0094
 1032YOPC   C3A13523   9.279  17.546   7.427 -0.0185  0.1071  0.0126
 1032YOPC   C4A13524   9.530  17.327   7.668 -0.1486 -0.0727 -0.1987
 1032YOPC   C1B13525   8.775  18.270   6.759  0.2782 -0.3443 -0.1637
 1032YOPC   C2B13526   8.760  18.121   7.210  0.0063  0.0113  0.3242
 1032YOPC   D3B13527   8.962  18.459   7.457  0.1559  0.0315 -0.1431
 1032YOPC   C4B13528   8.914  18.808   7.714 -0.2949 -0.0339 -0.0923
 1033YOPC   NC313529   0.180   3.360   5.380  0.0356  0.3532  0.0304
 1033YOPC   PO413530  -0.025   3.271   5.687  0.1575  0.2036  0.1182
 1033YOPC   GL113531   0.050   3.333   6.104 -0.3116  0.2636 -0.0745
 1033YOPC   GL213532  -0.238   3.215   6.427 -0.0356  0.2556  0.0867
 1033YOPC   C1A13533   0.218   3.418   6.457  0.1231 -0.1746 -0.3675
 1033YOPC   D2A13534   0.542   3.199   6.579  0.0653 -0.1136 -0.0966
 1033YOPC   C3A13535   0.514   3.232   6.972  0.0097 -0.0236  0.0748
 1033YOPC   C4A13536   0.711   3.153   7.327  0.0240  0.5086  0.3858
 1033YOPC   C1B13537  -0.485   3.279   6.712  0.0002 -0.1321 -0.1156
 1033YOPC   C2B13538  -0.436   3.452   7.151 -0.1801 -0.0475  0.0276
 1033YOPC   D3B13539  -0.671   3.388   7.566  0.1138 -0.1032 -0.2040
 1033YOPC   C4B13540  -1.016   3.374   7.906 -0.0676 -0.1723  0.2154
 1034YOPC   NC313541  14.444  12.515   5.718 -0.3752 -0.0221  0.0081
 1034YOPC   PO413542  14.322  12.144   5.919  0.5380 -0.0525 -0.0725
 1034YOPC   GL113543  14.225  12.241   6.242  0.0018 -0.2135  0.1403
 1034YOPC   GL213544  13.986  12.115   6.358  0.1191  0.3207 -0.4133
 1034YOPC   C1A13545  14.201  12.543   6.543 -0.1513  0.2492 -0.0593
 1034YOPC   D2A13546  14.425  12.779   6.861  0.4099  0.0775 -0.0029
 1034YOPC   C3A13547  14.533  13.129   7.130 -0.0372  0.3895  0.0601
 1034YOPC   C4A13548  14.577  13.247   7.580  0.0895  0.0325 -0.1322
 1034YOPC   C1B13549  13.809  12.392   6.770 -0.0262 -0.0616  0.0050
 1034YOPC   C2B13550  13.941  12.691   6.942 -0.0250 -0.1512  0.0646
 1034YOPC   D3B13551  14.037  12.895   7.354 -0.3327 -0.2110 -0.0554
 1034YOPC   C4B13552  14.142  12.848   7.714  0.1518  0.2363 -0.1898
 1035YOPC   NC313553   0.540   9.465   5.784 -0.1940  0.2004 -0.1440
 1035YOPC   PO413554   0.296   9.633   6.003  0.0541  0.0806 -0.0878
 1035YOPC   GL113555   0.187   9.362   6.208  0.0024 -0.0119 -0.0852
 1035YOPC   GL213556   0.296   9.015   6.186  0.0564 -0.1508 -0.0335
 1035YOPC   C1A13557  -0.022   9.425   6.615  0.2567  0.1068 -0.0333
 1035YOPC   D2A13558   0.033   9.162   7.010  0.0351 -0.0822 -0.2226
 1035YOPC   C3A13559   0.063   9.517   7.400  0.0754 -0.0035  0.3442
 1035YOPC   C4A13560  -0.126   9.726   7.669  0.1863  0.0147 -0.2657
 1035YOPC   C1B13561   0.289   8.995   6.546  0.3330  0.1179  0.3401
 1035YOPC   C2B13562   0.522   9.048   6.859  0.0703 -0.1243 -0.1681
 1035YOPC   D3B13563   0.467   8.787   7.237 -0.0040 -0.1464  0.0034
 1035YOPC   C4B13564   0.614   8.523   7.567  0.1522 -0.1420 -0.0324
 1036YOPC   NC313565   3.050   3.182   5.487 -0.3224  0.2495 -0.0534
 1036YOPC   PO413566   2.853   2.851   5.326  0.1963 -0.1404 -0.1316
 1036YOPC   GL113567   2.756   2.837   5.828  0.1244  0.2229  0.1751
 1036YOPC   GL213568   2.440   2.663   5.771 -0.0347  0.1553  0.0649
 1036YOPC   C1A13569   2.994   2.619   6.185 -0.2293 -0.0929  0.3841
 1036YOPC   D2A13570   2.883   2.739   6.578 -0.4162  0.1600  0.3809
 1036YOPC   C3A13571   2.888   2.684   6.908 -0.1258 -0.3775  0.1606
 1036YOPC   C4A13572   3.040   2.672   7.298  0.0238 -0.0135  0.0294
 1036YOPC   C1B13573   2.484   2.613   6.266  0.0121  0.0027 -0.2236
 1036YOPC   C2B13574   2.515   2.386   6.721  0.1871  0.0777 -0.1656
 1036YOPC   D3B13575   2.102   2.185   6.856 -0.0830 -0.3272 -0.0567
 1036YOPC   C4B13576   2.134   1.770   7.143  0.1096  0.1686  0.5183
 1037YOPC   NC313577   6.640  10.006   5.711  0.0812  0.1442 -0.4735
 1037YOPC   PO413578   7.006   9.817   6.020  0.0817 -0.1500  0.0949
 1037YOPC   GL113579   6.816   9.773   6.501  0.0272  0.1226 -0.2061
 1037YOPC   GL213580   6.671   9.430   6.549 -0.1652 -0.5345 -0.2061
 1037YOPC   C1A13581   6.596   9.797   6.963 -0.0840 -0.0110 -0.2847
 1037YOPC   D2A13582   6.309   9.770   7.317 -0.0122 -0.0988  0.1260
 1037YOPC   C3A13583   6.634   9.974   7.481 -0.0261 -0.0522  0.2026
 1037YOPC   C4A13584   6.785  10.255   7.683 -0.2102 -0.2815  0.0364
 1037YOPC   C1B13585   6.422   9.317   6.930 -0.0417 -0.1205  0.0014
 1037YOPC   C2B13586   6.301   9.199   7.403  0.2182  0.1602  0.0353
 1037YOPC   D3B13587   6.460   9.553   7.715 -0.0848 -0.0314 -0.2703
 1037YOPC   C4B13588   6.569   9.499   8.207  0.2483 -0.1916  0.1657
 1038YOPC   NC313589   1.987  17.186   5.287 -0.2808 -0.0602  0.1328
 1038YOPC   PO413590   1.674  17.217   5.568  0.5200 -0.3927  0.0828
 1038YOPC   GL113591   1.600  17.359   5.993  0.0362  0.2419 -0.1247
 1038YOPC   GL213592   1.670  17.099   6.184 -0.1010 -0.0077 -0.1245
 1038YOPC   C1A13593   1.514  17.448   6.452  0.2035 -0.0506 -0.1811
 1038YOPC   D2A13594   1.681  17.543   6.826 -0.3423  0.1028 -0.3880
 1038YOPC   C3A13595   1.460  17.444   7.245 -0.1172  0.1639 -0.0145
 1038YOPC   C4A13596   1.566  17.058   7.417 -0.1588  0.1347  0.0401
 1038YOPC   C1B13597   1.705  16.991   6.674  0.0153  0.0501 -0.0198
 1038YOPC   C2B13598   1.830  16.685   7.014 -0.0917  0.2153 -0.2893
 1038YOPC   D3B13599   2.202  16.823   7.333  0.2004 -0.1024  0.1827
 1038YOPC   C4B13600   2.050  16.957   7.736  0.5506  0.0748 -0.1104
 1039YOPC   NC313601   2.820  11.633   5.162  0.0801  0.0926  0.3046
 1039YOPC   PO413602   3.314  11.855   5.300 -0.0573  0.0707  0.1495
 1039YOPC   GL113603   3.447  11.805   5.718  0.5043 -0.3119  0.2169
 1039YOPC   GL213604   3.541  12.134   5.808 -0.3073  0.3384 -0.0107
 1039YOPC   C1A13605   3.335  11.630   6.076 -0.1868  0.2409 -0.2974
 1039YOPC   D2A13606   3.480  11.502   6.444 -0.0158 -0.0169 -0.0952
 1039YOPC   C3A13607   3.513  11.759   6.770  0.2998  0.1007 -0.4869
 1039YOPC   C4A13608   3.802  12.067   6.915  0.0132 -0.0774 -0.0102
 1039YOPC   C1B13609   3.211  12.121   6.044  0.1290 -0.1384 -0.2680
 1039YOPC   C2B13610   2.904  12.244   6.312  0.0599 -0.2214 -0.0287
 1039YOPC   D3B13611   2.572  11.889   6.401  0.2110  0.4373  0.1454
 1039YOPC   C4B13612   2.372  11.500   6.416  0.1571 -0.2153  0.1110
 1040YOPC   NC313613  15.967  15.452   5.082  0.1942 -0.0778 -0.0387
 1040YOPC   PO413614  15.627  15.558   5.301  0.2782  0.0671  0.0631
 1040YOPC   GL113615  15.656  15.690   5.651  0.5780  0.0566 -0.2908
 1040YOPC   GL213616  15.843  15.770   5.953 -0.1588 -0.1420  0.1482
 1040YOPC   C1A13617  15.424  15.484   6.008  0.1033 -0.0582  0.2070
 1040YOPC   D2A13618  15.119  15.248   6.298 -0.0602  0.0981  0.2155
 1040YOPC   C3A13619  15.084  15.334   6.797 -0.0135 -0.0589 -0.2567
 1040YOPC   C4A13620  15.222  15.440   7.163 -0.1113  0.0309  0.2464
 1040YOPC   C1B13621  15.847  15.417   6.303 -0.1372  0.0205  0.3218
 1040YOPC   C2B13622  15.569  15.378   6.604  0.1568  0.0494  0.1542
 1040YOPC   D3B13623  15.801  15.453   7.143  0.0972  0.0226 -0.5792
 1040YOPC   C4B13624  15.891  15.419   7.592  0.0757  0.1778  0.1454
 1041YOPC   NC313625  14.360   4.963   5.419  0.2284  0.2603 -0.1558
 1041YOPC   PO413626  14.135   5.290   5.539 -0.2844  0.0644 -0.1330
 1041YOPC   GL113627  14.027   5.105   5.833 -0.3530  0.0312  0.0325
 1041YOPC   GL213628  14.130   4.763   5.829  0.1270  0.1075 -0.2204
 1041YOPC   C1A13629  14.215   5.168   6.341  0.0803 -0.0575  0.0099
 1041YOPC   D2A13630  14.241   5.118   6.697 -0.0463 -0.2323  0.3933
 1041YOPC   C3A13631  14.078   5.138   7.126  0.2420 -0.0340 -0.1135
 1041YOPC   C4A13632  13.998   5.109   7.597 -0.1897 -0.1917 -0.0003
 1041YOPC   C1B13633  13.811   4.449   6.126  0.0395  0.2877 -0.0228
 1041YOPC   C2B13634  13.761   4.008   6.402 -0.1148 -0.0620  0.1650
 1041YOPC   D3B13635  13.849   3.948   6.823 -0.1180  0.2990  0.0966
 1041YOPC   C4B13636  14.039   4.192   7.170 -0.1439  0.2163  0.0717
 1042YOPC   NC313637  13.767  16.787   5.665  0.0185 -0.0844 -0.3003
 1042YOPC   PO413638  13.725  16.796   6.098 -0.1971  0.0266  0.4014
 1042YOPC   GL113639  14.150  16.742   6.138  0.2342  0.2365  0.2504
 1042YOPC   GL213640  14.326  17.043   6.277  0.0486  0.1621  0.1223
 1042YOPC   C1A13641  14.442  16.559   6.509 -0.0398 -0.0741 -0.0353
 1042YOPC   D2A13642  14.298  16.523   6.951  0.0166 -0.1469  0.0278
 1042YOPC   C3A13643  14.213  16.161   7.008  0.1754 -0.0750  0.3296
 1042YOPC   C4A13644  14.239  15.821   7.215 -0.0834  0.3052  0.2777
 1042YOPC   C1B13645  14.131  16.937   6.657 -0.0336 -0.1202 -0.0151
 1042YOPC   C2B13646  14.172  17.140   7.053 -0.3321 -0.0718  0.0022
 1042YOPC   D3B13647  14.251  17.143   7.422  0.0647 -0.1409  0.1188
 1042YOPC   C4B13648  14.447  17.144   7.763  0.0091  0.0639 -0.0102
 1043YOPC   NC313649   3.806   6.824   5.141 -0.1504  0.0503  0.2031
 1043YOPC   PO413650   4.142   7.118   5.047 -0.0513  0.1085  0.2839
 1043YOPC   GL113651   4.164   6.998   5.578 -0.0089 -0.2124 -0.2338
 1043YOPC   GL213652   4.089   7.206   6.003  0.0659  0.2259 -0.0573
 1043YOPC   C1A13653   4.028   6.692   5.954  0.3744  0.0667 -0.0234
 1043YOPC   D2A13654   4.074   6.293   6.039 -0.1579 -0.3385 -0.2073
 1043YOPC   C3A13655   3.878   6.243   6.465  0.0240 -0.1115 -0.3262
 1043YOPC   C4A13656   4.114   6.025   6.803  0.2206  0.2155 -0.1405
 1043YOPC   C1B13657   4.017   7.034   6.283 -0.1753  0.0118 -0.0451
 1043YOPC   C2B13658   3.659   6.678   6.364 -0.0035 -0.0953 -0.2477
 1043YOPC   D3B13659   3.152   6.812   6.476  0.0340  0.1143 -0.0738
 1043YOPC   C4B13660   2.727   6.668   6.311 -0.1132  0.1635 -0.3856
 1044YOPC   NC313661  17.299  15.138   5.990 -0.0047 -0.1774  0.1667
 1044YOPC   PO413662  17.499  15.576   5.976 -0.0558 -0.2490  0.1195
 1044YOPC   GL113663  17.673  15.761   6.384 -0.1593 -0.1835 -0.0168
 1044YOPC   GL213664  18.006  15.884   6.426  0.1727  0.0693  0.0917
 1044YOPC   C1A13665  17.544  15.811   6.853  0.1037 -0.0012 -0.3852
 1044YOPC   D2A13666  17.381  16.230   7.190  0.2631  0.1468 -0.5474
 1044YOPC   C3A13667  17.490  16.350   7.577 -0.1811 -0.0883  0.0949
 1044YOPC   C4A13668  17.570  16.161   7.924  0.1033  0.3306 -0.1904
 1044YOPC   C1B13669  17.959  15.571   6.743  0.1592  0.3070 -0.0238
 1044YOPC   C2B13670  18.053  15.086   6.832 -0.1764 -0.0173  0.1607
 1044YOPC   D3B13671  17.778  14.951   7.083 -0.2179 -0.1601 -0.2727
 1044YOPC   C4B13672  17.691  14.625   7.258  0.1500 -0.1277  0.0587
 1045YOPC   NC313673   7.877   4.308   5.145  0.1117  0.3148 -0.0338
 1045YOPC   PO413674   8.014   4.746   5.165  0.2587  0.2311 -0.1790
 1045YOPC   GL113675   7.901   4.664   5.526 -0.0706 -0.0884  0.1203
 1045YOPC   GL213676   7.595   4.772   5.572  0.0741 -0.5036 -0.5654
 1045YOPC   C1A13677   7.848   4.470   5.872 -0.1544 -0.0141 -0.0519
 1045YOPC   D2A13678   7.639   4.282   6.295 -0.1732  0.3265 -0.0606
 1045YOPC   C3A13679   7.928   4.106   6.602 -0.1933 -0.0929 -0.0304
 1045YOPC   C4A13680   8.042   4.216   6.999 -0.0069 -0.1353  0.0266
 1045YOPC   C1B13681   7.442   4.912   6.016 -0.2801  0.0165  0.1947
 1045YOPC   C2B13682   7.546   4.997   6.418 -0.1090 -0.0838 -0.1401
 1045YOPC   D3B13683   7.654   4.600   6.699 -0.0802 -0.1915  0.0485
 1045YOPC   C4B13684   7.531   4.465   7.139  0.3431 -0.2986  0.2891
 1046YOPC   NC313685  12.883   2.250   6.004  0.0207 -0.0272  0.0603
 1046YOPC   PO413686  13.329   2.305   6.008 -0.1974 -0.0195  0.1461
 1046YOPC   GL113687  13.203   2.054   6.333 -0.2445 -0.3298 -0.3541
 1046YOPC   GL213688  12.970   2.336   6.467  0.0940  0.0234 -0.0956
 1046YOPC   C1A13689  13.000   1.993   6.786 -0.1550 -0.4395 -0.0962
 1046YOPC   D2A13690  13.206   1.849   7.220  0.2694  0.3038  0.0668
 1046YOPC   C3A13691  13.135   1.940   7.607  0.3376 -0.1831  0.0854
 1046YOPC   C4A13692  13.036   2.285   7.860  0.2273 -0.0997  0.1459
 1046YOPC   C1B13693  13.143   2.556   6.876  0.1078 -0.0388  0.2375
 1046YOPC   C2B13694  13.068   2.510   7.248  0.0718 -0.1234  0.0840
 1046YOPC   D3B13695  12.767   2.646   7.451  0.2904  0.2055  0.1601
 1046YOPC   C4B13696  12.548   2.791   7.778 -0.1028 -0.0232  0.0976
 1047YOPC   NC313697  10.988   9.818   6.367  0.1493 -0.2802  0.2157
 1047YOPC   PO413698  10.620   9.910   6.701 -0.2392  0.3192  0.0491
 1047YOPC   GL113699  10.505  10.192   6.970 -0.0613 -0.2965  0.2220
 1047YOPC   GL213700  10.630  10.422   6.850 -0.0886  0.0703 -0.0948
 1047YOPC   C1A13701  10.347  10.243   7.373  0.1457  0.0945 -0.4950
 1047YOPC   D2A13702  10.367   9.870   7.726 -0.1523 -0.1277 -0.2545
 1047YOPC   C3A13703  10.291  10.066   8.200 -0.1225  0.2578  0.1669
 1047YOPC   C4A13704  10.585   9.884   8.593  0.1565  0.2347  0.2838
 1047YOPC   C1B13705  10.744  10.616   7.266  0.0833  0.3141  0.0910
 1047YOPC   C2B13706  10.596  10.816   7.636 -0.1353 -0.0707  0.1876
 1047YOPC   D3B13707  10.468  11.210   7.665  0.0920 -0.0946  0.1422
 1047YOPC   C4B13708  10.345  11.688   7.393  0.0185 -0.1177 -0.0364
 1048YOPC   NC313709  12.692  10.806   6.439  0.0292  0.0008  0.0329
 1048YOPC   PO413710  13.090  10.792   6.424 -0.4358 -0.0984 -0.0480
 1048YOPC   GL113711  13.166  10.546   6.803 -0.0053 -0.3448 -0.5526
 1048YOPC   GL213712  13.588  10.585   6.806  0.2273  0.0215  0.2483
 1048YOPC   C1A13713  13.237  10.542   7.230 -0.2590  0.1661  0.0329
 1048YOPC   D2A13714  13.125  10.619   7.668 -0.1710 -0.0995 -0.0522
 1048YOPC   C3A13715  13.327  10.413   8.003  0.2084 -0.2633 -0.1871
 1048YOPC   C4A13716  13.336  10.399   8.520 -0.0454 -0.2498 -0.2419
 1048YOPC   C1B13717  13.797  10.699   7.113  0.0698  0.0646  0.0580
 1048YOPC   C2B13718  13.715  11.046   7.433  0.1065  0.1345 -0.2391
 1048YOPC   D3B13719  13.653  11.015   7.852 -0.4079  0.0427  0.5045
 1048YOPC   C4B13720  13.635  10.765   8.194  0.1015 -0.0601  0.0752
 1049YOPC   NC313721   4.054   1.995   5.282  0.2007 -0.0099 -0.5650
 1049YOPC   PO413722   3.586   1.897   5.249 -0.2562  0.1788 -0.0232
 1049YOPC   GL113723   3.560   1.934   5.749  0.2826  0.0968 -0.1935
 1049YOPC   GL213724   3.655   1.617   5.826  0.2912  0.5125 -0.0541
 1049YOPC   C1A13725   3.831   2.083   6.078  0.1407 -0.0689 -0.1801
 1049YOPC   D2A13726   4.197   2.374   6.200  0.0999  0.0401 -0.0385
 1049YOPC   C3A13727   4.202   2.730   6.474  0.1488  0.3165 -0.1430
 1049YOPC   C4A13728   4.292   3.144   6.538  0.0293 -0.1999 -0.1016
 1049YOPC   C1B13729   3.485   1.604   6.291  0.1573  0.2017  0.0070
 1049YOPC   C2B13730   3.636   1.535   6.739  0.0385  0.0232  0.1878
 1049YOPC   D3B13731   3.397   1.625   7.173 -0.0339 -0.2216 -0.0747
 1049YOPC   C4B13732   3.381   1.596   7.593  0.1222  0.0605 -0.0800
 1050YOPC   NC313733  13.853   1.440   6.030 -0.1507 -0.0315 -0.0715
 1050YOPC   PO413734  14.252   1.600   5.900 -0.1561  0.0679  0.0800
 1050YOPC   GL113735  14.101   1.627   6.421 -0.0595 -0.0924  0.1050
 1050YOPC   GL213736  13.769   1.509   6.515  0.1637 -0.3028  0.0662
 1050YOPC   C1A13737  14.067   1.781   6.874  0.1510  0.2715 -0.1382
 1050YOPC   D2A13738  14.079   1.853   7.198 -0.1216  0.1201 -0.1733
 1050YOPC   C3A13739  13.707   1.839   7.369 -0.0361 -0.0147 -0.1620
 1050YOPC   C4A13740  13.509   1.458   7.689  0.0083 -0.0683  0.2039
 1050YOPC   C1B13741  13.524   1.561   6.777 -0.0228 -0.1739  0.1721
 1050YOPC   C2B13742  13.544   1.425   7.137  0.1074 -0.0755 -0.1338
 1050YOPC   D3B13743  13.571   1.071   7.425  0.0976  0.3980 -0.2168
 1050YOPC   C4B13744  13.471   0.942   7.852  0.0666 -0.1729  0.1579
 1051YOPC   NC313745  17.375  13.079   5.752  0.0760  0.3245 -0.2594
 1051YOPC   PO413746  17.332  13.567   5.833 -0.0091  0.3145 -0.0668
 1051YOPC   GL113747  17.510  13.594   6.329  0.1294  0.2816  0.3347
 1051YOPC   GL213748  17.462  13.834   6.439 -0.1021  0.0434 -0.2130
 1051YOPC   C1A13749  17.573  13.354   6.675 -0.4471  0.0243 -0.1409
 1051YOPC   D2A13750  17.647  12.985   6.930 -0.1686  0.3832  0.1344
 1051YOPC   C3A13751  17.734  12.805   7.380 -0.0599  0.4801 -0.2170
 1051YOPC   C4A13752  17.819  12.545   7.847 -0.3456 -0.1775  0.0358
 1051YOPC   C1B13753  17.636  13.892   6.754  0.0439 -0.0946  0.3914
 1051YOPC   C2B13754  17.931  13.832   7.086 -0.2893  0.2612 -0.1147
 1051YOPC   D3B13755  17.737  13.826   7.536  0.0854  0.1549 -0.1195
 1051YOPC   C4B13756  17.531  14.208   7.689 -0.2729 -0.4626  0.3224
 1052YOPC   NC313757  16.353   6.387   4.842 -0.1548  0.1960  0.0781
 1052YOPC   PO413758  16.398   6.700   5.227 -0.5278 -0.1533  0.0017
 1052YOPC   GL113759  16.773   6.718   5.591  0.1099  0.2822  0.2010
 1052YOPC   GL213760  16.792   6.385   5.681 -0.0979  0.1826  0.0677
 1052YOPC   C1A13761  17.118   6.778   5.861  0.2670  0.2444 -0.0118
 1052YOPC   D2A13762  17.240   6.746   6.287 -0.0021  0.0960  0.3795
 1052YOPC   C3A13763  17.641   6.875   6.219  0.0365 -0.0083 -0.0089
 1052YOPC   C4A13764  17.886   7.273   6.199  0.0348  0.1781 -0.2619
 1052YOPC   C1B13765  16.780   6.448   6.125 -0.1060  0.0086 -0.1144
 1052YOPC   C2B13766  16.808   6.354   6.556 -0.0487 -0.0942  0.0583
 1052YOPC   D3B13767  17.256   6.036   6.706  0.0927  0.0096  0.4259
 1052YOPC   C4B13768  17.729   6.060   6.826 -0.1764 -0.0068 -0.0264
 1053YOPC   NC313769   5.099  12.610   5.507  0.0288 -0.1554 -0.0476
 1053YOPC   PO413770   4.899  12.231   5.475 -0.2452  0.0708  0.0928
 1053YOPC   GL113771   4.952  12.351   5.867  0.0564 -0.3156 -0.2046
 1053YOPC   GL213772   5.136  12.159   6.075 -0.5500 -0.1190  0.0032
 1053YOPC   C1A13773   4.612  12.416   6.183  0.2070  0.0219 -0.2720
 1053YOPC   D2A13774   4.620  12.568   6.484 -0.3142  0.0586  0.0234
 1053YOPC   C3A13775   4.591  12.379   6.880 -0.1175 -0.0158  0.0983
 1053YOPC   C4A13776   4.698  12.148   7.212 -0.2151  0.1289 -0.1769
 1053YOPC   C1B13777   4.858  12.108   6.440 -0.3468 -0.1989  0.2637
 1053YOPC   C2B13778   4.973  11.976   6.816  0.2912 -0.1889 -0.3498
 1053YOPC   D3B13779   4.881  11.627   7.067 -0.2305 -0.0650  0.0699
 1053YOPC   C4B13780   5.020  11.180   6.960  0.2240 -0.0653 -0.0920
 1054YOPC   NC313781   3.971  14.409   5.408 -0.0530 -0.2528 -0.0656
 1054YOPC   PO413782   4.192  14.770   5.276  0.1512  0.1338 -0.0174
 1054YOPC   GL113783   4.336  14.912   5.746  0.0529  0.3547 -0.1108
 1054YOPC   GL213784   4.032  14.992   5.748  0.1500 -0.0332  0.2124
 1054YOPC   C1A13785   4.139  14.939   6.254 -0.1681 -0.1299  0.1890
 1054YOPC   D2A13786   3.785  14.942   6.572 -0.2781  0.1519 -0.4091
 1054YOPC   C3A13787   3.831  14.938   6.938  0.1236 -0.0371 -0.0011
 1054YOPC   C4A13788   3.900  14.676   7.311  0.1752 -0.0262  0.0956
 1054YOPC   C1B13789   3.703  15.088   6.080 -0.0245  0.1104 -0.0636
 1054YOPC   C2B13790   3.478  15.353   6.299  0.3874  0.1731  0.6058
 1054YOPC   D3B13791   3.484  15.285   6.717  0.6948 -0.0557  0.2890
 1054YOPC   C4B13792   3.281  15.272   7.110 -0.0940  0.4092 -0.0694
 1055YOPC   NC313793   5.271   6.732   5.445  0.0001  0.2312  0.0579
 1055YOPC   PO413794   5.319   7.075   5.653 -0.1782 -0.1439  0.0820
 1055YOPC   GL113795   5.418   6.773   5.925 -0.1779  0.0941  0.0500
 1055YOPC   GL213796   5.527   6.503   5.843  0.1190 -0.0001  0.1258
 1055YOPC   C1A13797   5.384   6.651   6.316  0.1884  0.1883 -0.2018
 1055YOPC   D2A13798   5.592   6.439   6.597  0.3484  0.1066 -0.2430
 1055YOPC   C3A13799   5.770   6.643   6.999 -0.1068  0.1726  0.2576
 1055YOPC   C4A13800   5.992   6.765   7.425  0.0062  0.1748  0.1232
 1055YOPC   C1B13801   5.655   6.249   6.153 -0.1769 -0.0686 -0.1129
 1055YOPC   C2B13802   5.805   6.018   6.454 -0.0817  0.2918 -0.0220
 1055YOPC   D3B13803   5.844   6.161   6.938  0.0812  0.0415 -0.0784
 1055YOPC   C4B13804   6.042   6.315   7.267 -0.0079 -0.2449  0.0036
 1056YOPC   NC313805   8.215   1.576   5.747  0.0346  0.1924 -0.0248
 1056YOPC   PO413806   8.224   1.951   5.798 -0.0889 -0.0596 -0.0692
 1056YOPC   GL113807   7.916   2.232   5.846  0.0162 -0.1794  0.2403
 1056YOPC   GL213808   7.558   2.230   5.769  0.0361  0.0467 -0.3061
 1056YOPC   C1A13809   7.834   2.759   5.815 -0.0269 -0.2498 -0.1863
 1056YOPC   D2A13810   8.025   2.765   6.212  0.0652  0.0001  0.0947
 1056YOPC   C3A13811   7.783   2.902   6.565  0.1911 -0.1620  0.2733
 1056YOPC   C4A13812   7.772   3.024   6.933  0.1124 -0.1630 -0.4725
 1056YOPC   C1B13813   7.403   2.294   6.059 -0.1451  0.0999  0.1658
 1056YOPC   C2B13814   7.364   2.062   6.463 -0.0470 -0.0555  0.1159
 1056YOPC   D3B13815   7.053   2.349   6.787  0.1514  0.1067 -0.0145
 1056YOPC   C4B13816   7.148   2.388   7.209  0.0105 -0.1306  0.3609
 1057YOPC   NC313817   3.931  10.485   5.425  0.0918 -0.0253  0.1764
 1057YOPC   PO413818   4.072  10.180   5.669 -0.3445 -0.0418  0.0630
 1057YOPC   GL113819   3.861  10.388   5.930  0.1992  0.3649 -0.2287
 1057YOPC   GL213820   4.019  10.601   5.995 -0.2727 -0.4107  0.2218
 1057YOPC   C1A13821   3.644  10.553   6.374  0.0166 -0.1853 -0.2902
 1057YOPC   D2A13822   3.531  10.444   6.761 -0.1143 -0.0573 -0.1642
 1057YOPC   C3A13823   3.527  10.590   7.235  0.3635 -0.0406  0.1135
 1057YOPC   C4A13824   3.705  10.674   7.635 -0.3461  0.1423  0.0120
 1057YOPC   C1B13825   4.222  10.342   6.275  0.3770  0.0501 -0.0168
 1057YOPC   C2B13826   4.471  10.280   6.683 -0.1354  0.3753 -0.3260
 1057YOPC   D3B13827   4.387  10.392   7.132 -0.0935  0.1158  0.0160
 1057YOPC   C4B13828   4.564  10.458   7.608  0.1845  0.1303  0.2158
 1058YOPC   NC313829  16.625  17.014   6.382 -0.2142  0.0677 -0.2318
 1058YOPC   PO413830  17.171  16.926   6.215 -0.0592 -0.0425 -0.3163
 1058YOPC   GL113831  17.138  17.124   6.529  0.1888  0.0442  0.1002
 1058YOPC   GL213832  17.474  17.197   6.686  0.1341  0.0656 -0.1025
 1058YOPC   C1A13833  16.976  17.237   6.945 -0.0167 -0.1476  0.0857
 1058YOPC   D2A13834  16.591  17.135   7.144 -0.0328  0.0585  0.1327
 1058YOPC   C3A13835  16.586  17.187   7.544 -0.3320  0.0363 -0.1295
 1058YOPC   C4A13836  16.449  17.294   7.919 -0.1859  0.1921 -0.1582
 1058YOPC   C1B13837  17.697  17.062   7.148 -0.1182 -0.0093  0.0076
 1058YOPC   C2B13838  17.564  16.892   7.536 -0.0942  0.0425  0.0600
 1058YOPC   D3B13839  17.809  16.675   7.912  0.2288  0.1554  0.2217
 1058YOPC   C4B13840  17.889  16.838   8.255 -0.1048 -0.3339 -0.2391
 1059YOPC   NC313841   3.112   0.664   5.499  0.1711 -0.0801 -0.2075
 1059YOPC   PO413842   3.496   0.490   5.411  0.2284  0.4087 -0.1046
 1059YOPC   GL113843   3.439   0.563   5.851  0.0923 -0.2341 -0.0222
 1059YOPC   GL213844   3.666   0.722   5.980 -0.4148 -0.1865 -0.3730
 1059YOPC   C1A13845   3.501   0.401   6.339 -0.1989  0.1277  0.2291
 1059YOPC   D2A13846   3.586   0.578   6.725  0.0764 -0.2612 -0.0293
 1059YOPC   C3A13847   3.943   0.687   6.931 -0.2870 -0.3532 -0.1320
 1059YOPC   C4A13848   4.269   0.373   7.203  0.3284  0.0328  0.0852
 1059YOPC   C1B13849   3.938   0.740   6.394 -0.0759  0.0863  0.2778
 1059YOPC   C2B13850   4.382   0.503   6.502  0.1082 -0.0607 -0.0823
 1059YOPC   D3B13851   4.459   0.125   6.667 -0.1695 -0.0836 -0.0511
 1059YOPC   C4B13852   4.177  -0.103   6.931  0.0694  0.1203 -0.0719
 1060YOPC   NC313853   3.500   4.636   5.955  0.0141  0.3511 -0.0995
 1060YOPC   PO413854   3.213   4.485   5.875  0.0404 -0.1103 -0.1602
 1060YOPC   GL113855   3.031   4.574   6.189  0.2970 -0.1661  0.1344
 1060YOPC   GL213856   2.969   4.238   6.255  0.0244 -0.0001 -0.0331
 1060YOPC   C1A13857   2.758   4.681   6.442 -0.2732 -0.1605 -0.3057
 1060YOPC   D2A13858   2.415   4.688   6.721 -0.0763 -0.0167  0.2936
 1060YOPC   C3A13859   2.136   4.945   6.753 -0.1720 -0.1438  0.0774
 1060YOPC   C4A13860   2.040   5.228   6.513 -0.0668  0.1055 -0.0045
 1060YOPC   C1B13861   2.746   4.253   6.651 -0.0862  0.1112 -0.0179
 1060YOPC   C2B13862   2.658   4.365   7.019  0.0779 -0.1327  0.2269
 1060YOPC   D3B13863   2.400   4.533   7.224 -0.1802 -0.2012 -0.3662
 1060YOPC   C4B13864   2.506   4.957   7.139  0.1610 -0.2081  0.1728
 1061YOPC   NC313865   7.406   8.413   5.664 -0.3480  0.0920 -0.3750
 1061YOPC   PO413866   7.334   7.980   5.973  0.1090 -0.0045  0.3665
 1061YOPC   GL113867   7.500   7.778   6.239  0.0591  0.1401 -0.2432
 1061YOPC   GL213868   7.429   7.490   6.184 -0.2166  0.4777 -0.0755
 1061YOPC   C1A13869   7.706   7.521   6.576  0.2182 -0.1203  0.2059
 1061YOPC   D2A13870   7.626   7.366   6.930 -0.2246  0.3564  0.2110
 1061YOPC   C3A13871   7.674   6.874   7.152  0.0232  0.1553 -0.1557
 1061YOPC   C4A13872   7.436   6.767   7.498  0.1811 -0.0009  0.0455
 1061YOPC   C1B13873   7.271   7.261   6.487  0.0516 -0.0538  0.2495
 1061YOPC   C2B13874   7.116   7.468   6.823 -0.2239  0.1190 -0.1212
 1061YOPC   D3B13875   7.018   7.188   7.186  0.0957  0.2091 -0.2138
 1061YOPC   C4B13876   7.002   6.785   7.280 -0.0627  0.0841 -0.0206
 1062YOPC   NC313877  10.542  14.764   5.676 -0.0437  0.0022  0.3485
 1062YOPC   PO413878  10.187  14.865   5.817 -0.0093 -0.0935  0.1249
 1062YOPC   GL113879  10.282  14.860   6.232  0.2272  0.2256  0.1769
 1062YOPC   GL213880  10.576  14.925   6.188 -0.1757  0.1249 -0.2572
 1062YOPC   C1A13881  10.419  14.714   6.675 -0.0297 -0.0088 -0.0194
 1062YOPC   D2A13882  10.390  14.692   7.061  0.2195 -0.0314  0.1351
 1062YOPC   C3A13883  10.217  14.584   7.405 -0.1836 -0.0373  0.1019
 1062YOPC   C4A13884  10.121  14.219   7.549 -0.0890  0.1445 -0.1383
 1062YOPC   C1B13885  10.867  14.980   6.624 -0.2178  0.2138  0.2015
 1062YOPC   C2B13886  10.833  15.036   7.076 -0.1278 -0.2469 -0.1714
 1062YOPC   D3B13887  11.093  15.363   7.394  0.1951 -0.2296  0.0408
 1062YOPC   C4B13888  11.411  15.464   7.670 -0.2365  0.2118  0.0899
 1063YOPC   NC313889  11.966   6.819   5.527  0.1173 -0.1680 -0.2745
 1063YOPC   PO413890  12.005   6.351   5.680 -0.4073  0.1121  0.0990
 1063YOPC   GL113891  12.029   6.146   6.134  0.3498 -0.2241  0.1522
 1063YOPC   GL213892  11.910   5.854   6.232 -0.0954 -0.1664 -0.0127
 1063YOPC   C1A13893  12.054   6.119   6.573 -0.1078 -0.2787  0.1248
 1063YOPC   D2A13894  12.014   5.947   7.029  0.3196 -0.0524  0.0660
 1063YOPC   C3A13895  12.261   5.997   7.428  0.2390  0.0076  0.2140
 1063YOPC   C4A13896  12.175   6.032   7.860  0.3099  0.1612 -0.0564
 1063YOPC   C1B13897  11.777   5.706   6.653  0.1292  0.0809  0.1714
 1063YOPC   C2B13898  11.751   5.461   7.004  0.1290 -0.0476 -0.1400
 1063YOPC   D3B13899  11.894   5.188   7.356 -0.1909  0.2247 -0.1854
 1063YOPC   C4B13900  12.133   5.135   7.664  0.0895  0.0266 -0.0915
 1064YOPC   NC313901  17.025  16.469   6.030 -0.1140  0.0099 -0.0977
 1064YOPC   PO413902  16.519  16.515   6.195  0.0104  0.2138  0.0731
 1064YOPC   GL113903  16.439  16.639   6.665 -0.3108  0.0850  0.0809
 1064YOPC   GL213904  16.270  16.949   6.785 -0.2380 -0.1510  0.3011
 1064YOPC   C1A13905  16.501  16.637   7.056 -0.4725  0.2344  0.1338
 1064YOPC   D2A13906  16.538  16.659   7.469 -0.1444 -0.2239  0.1324
 1064YOPC   C3A13907  16.807  16.597   7.818 -0.0953 -0.1602 -0.2892
 1064YOPC   C4A13908  17.285  16.678   7.925  0.0118  0.2276 -0.1991
 1064YOPC   C1B13909  16.077  17.039   7.221  0.0737  0.1170  0.5079
 1064YOPC   C2B13910  16.079  17.022   7.597 -0.1465  0.0974  0.1000
 1064YOPC   D3B13911  16.375  16.757   7.947  0.1757  0.3862 -0.2432
 1064YOPC   C4B13912  16.634  16.615   8.328 -0.2135  0.1431 -0.1899
 1065YOPC   NC313913   5.561   2.888   5.741  0.0741 -0.2286 -0.2055
 1065YOPC   PO413914   5.355   3.238   5.514  0.0209 -0.5924 -0.1114
 1065YOPC   GL113915   5.235   3.234   5.877  0.0583 -0.2073 -0.1707
 1065YOPC   GL213916   5.401   3.203   6.052 -0.0711 -0.1028  0.1061
 1065YOPC   C1A13917   4.960   3.205   6.234 -0.2450  0.1722  0.0443
 1065YOPC   D2A13918   4.946   3.279   6.606  0.0917  0.4527 -0.0604
 1065YOPC   C3A13919   4.713   3.205   6.904  0.0425 -0.3509 -0.1702
 1065YOPC   C4A13920   4.394   2.848   6.961  0.4394 -0.0207 -0.2042
 1065YOPC   C1B13921   5.405   3.373   6.388 -0.0312  0.2922  0.0906
 1065YOPC   C2B13922   5.437   3.299   6.783 -0.0181  0.2279 -0.1113
 1065YOPC   D3B13923   5.082   3.399   7.167  0.2326  0.0783  0.0674
 1065YOPC   C4B13924   4.800   3.422   7.412  0.2892 -0.0620 -0.0407
 1066YOPC   NC313925   2.500   1.912   5.537  0.0476  0.1737 -0.4971
 1066YOPC   PO413926   2.570   1.559   5.729 -0.0773 -0.3022  0.3358
 1066YOPC   GL113927   2.662   1.613   6.090  0.1034 -0.0111  0.0246
 1066YOPC   GL213928   2.450   1.464   6.266  0.0311 -0.1915 -0.2093
 1066YOPC   C1A13929   2.921   1.425   6.440  0.0358  0.1815  0.2686
 1066YOPC   D2A13930   3.110   1.743   6.745  0.0022  0.2950  0.0286
 1066YOPC   C3A13931   3.475   1.985   6.645 -0.0555  0.0660  0.1808
 1066YOPC   C4A13932   3.639   2.267   6.506 -0.2720 -0.0203  0.2314
 1066YOPC   C1B13933   2.231   1.396   6.623 -0.1410  0.1458 -0.0700
 1066YOPC   C2B13934   2.110   1.118   6.925 -0.1137  0.1526  0.0092
 1066YOPC   D3B13935   2.129   1.270   7.285 -0.0889  0.0791  0.3555
 1066YOPC   C4B13936   2.430   1.569   7.502 -0.1404 -0.0710 -0.0635
 1067YOPC   NC313937   0.214  12.088   4.920 -0.2202  0.1271 -0.0702
 1067YOPC   PO413938   0.077  11.986   5.353 -0.0189 -0.2594 -0.0276
 1067YOPC   GL113939  -0.067  11.983   5.807  0.0634  0.3478 -0.0294
 1067YOPC   GL213940   0.138  11.675   5.892  0.1554 -0.0771  0.2241
 1067YOPC   C1A13941  -0.316  11.644   5.955 -0.0605  0.2488 -0.1967
 1067YOPC   D2A13942  -0.065  11.417   6.312  0.1565  0.2519  0.0460
 1067YOPC   C3A13943   0.108  11.624   6.672  0.0653 -0.4333 -0.2016
 1067YOPC   C4A13944   0.138  11.909   6.884  0.1201  0.2276  0.0787
 1067YOPC   C1B13945   0.021  11.940   6.287  0.0336  0.2609 -0.2113
 1067YOPC   C2B13946   0.028  12.298   6.636  0.0589 -0.1100  0.2736
 1067YOPC   D3B13947  -0.290  12.172   6.866  0.1433  0.1821  0.0694
 1067YOPC   C4B13948  -0.189  11.973   7.261 -0.2324  0.2517 -0.1629
 1068YOPC   NC313949   1.342  11.846   5.429  0.0111  0.0090  0.3203
 1068YOPC   PO413950   1.016  11.602   5.137 -0.1032  0.2585  0.0455
 1068YOPC   GL113951   0.883  11.737   5.656  0.2169  0.2179  0.1125
 1068YOPC   GL213952   0.572  11.864   5.829  0.1872 -0.1396  0.1493
 1068YOPC   C1A13953   0.873  11.723   6.160  0.0294  0.1126  0.1411
 1068YOPC   D2A13954   0.729  11.984   6.545 -0.0311  0.4078 -0.3918
 1068YOPC   C3A13955   0.739  11.942   6.968 -0.3065  0.0669  0.1215
 1068YOPC   C4A13956   1.130  12.080   7.253 -0.0404  0.3905 -0.0138
 1068YOPC   C1B13957   0.488  12.019   6.142  0.0915  0.1372 -0.2168
 1068YOPC   C2B13958   0.408  12.462   6.323 -0.1281  0.0468  0.3786
 1068YOPC   D3B13959   0.503  12.427   6.690  0.2300  0.0695 -0.0135
 1068YOPC   C4B13960   0.338  12.285   7.148  0.1419 -0.0458  0.1232
 1069YOPC   NC313961  10.930  14.559   6.124 -0.0527 -0.0879  0.0652
 1069YOPC   PO413962  10.467  14.400   5.986 -0.1968 -0.1697 -0.0874
 1069YOPC   GL113963  10.528  14.108   6.280 -0.3055 -0.2030 -0.1818
 1069YOPC   GL213964  10.732  14.278   6.463  0.1011 -0.1436  0.1826
 1069YOPC   C1A13965  10.481  13.723   6.613 -0.3378  0.0271  0.0081
 1069YOPC   D2A13966  10.674  13.583   7.036  0.1751 -0.2791  0.1757
 1069YOPC   C3A13967  11.208  13.572   6.959 -0.0627 -0.3442  0.2733
 1069YOPC   C4A13968  11.522  13.776   7.064  0.0068  0.1409  0.1907
 1069YOPC   C1B13969  10.831  14.494   6.825 -0.0771 -0.0409  0.1788
 1069YOPC   C2B13970  10.928  14.563   7.226  0.3455  0.1105  0.0116
 1069YOPC   D3B13971  10.850  14.292   7.674  0.0738 -0.0366  0.2177
 1069YOPC   C4B13972  10.440  14.164   7.922  0.4605  0.0472  0.0463
 1070YOPC   NC313973  17.093   8.812   5.077  0.4384 -0.0855 -0.2313
 1070YOPC   PO413974  17.521   8.982   5.389  0.0431  0.0108  0.0301
 1070YOPC   GL113975  17.322   9.117   5.807 -0.3082  0.1375 -0.4624
 1070YOPC   GL213976  17.548   9.196   5.974  0.1130 -0.3079  0.4584
 1070YOPC   C1A13977  17.090   8.872   6.065  0.0870  0.2115 -0.2717
 1070YOPC   D2A13978  16.888   8.677   6.333 -0.0552 -0.2020 -0.0004
 1070YOPC   C3A13979  16.765   8.702   6.728 -0.0797 -0.1880  0.0811
 1070YOPC   C4A13980  16.629   8.401   7.085  0.1286  0.1974  0.0726
 1070YOPC   C1B13981  17.633   9.060   6.438 -0.1698  0.1175  0.1020
 1070YOPC   C2B13982  17.294   8.755   6.782  0.1775  0.4370  0.3525
 1070YOPC   D3B13983  17.573   8.450   6.866 -0.1506  0.0485 -0.1961
 1070YOPC   C4B13984  17.639   8.044   6.873 -0.0392  0.1305  0.0287
 1071YOPC   NC313985   6.342   0.321   5.064  0.0649  0.0350  0.0204
 1071YOPC   PO413986   6.507   0.669   5.408 -0.1661 -0.0618  0.0368
 1071YOPC   GL113987   6.437   0.621   5.837  0.0021 -0.1917 -0.1609
 1071YOPC   GL213988   6.328   0.947   5.903 -0.0710 -0.3584  0.1667
 1071YOPC   C1A13989   6.337   0.546   6.181 -0.4091  0.1653  0.0858
 1071YOPC   D2A13990   6.564   0.529   6.570  0.1352 -0.2409  0.1989
 1071YOPC   C3A13991   6.386   0.486   6.873  0.3315 -0.1820  0.1053
 1071YOPC   C4A13992   6.249   0.253   7.182  0.0541 -0.0937  0.1097
 1071YOPC   C1B13993   6.230   0.994   6.311 -0.2266  0.0426  0.2533
 1071YOPC   C2B13994   6.006   0.981   6.654  0.2337  0.0406 -0.1818
 1071YOPC   D3B13995   6.162   0.918   7.104 -0.1975  0.2559 -0.0252
 1071YOPC   C4B13996   6.311   0.736   7.322 -0.0401  0.3588 -0.0799
 1072YOPC   NC313997  13.379  10.402   6.343  0.4291  0.1364 -0.2736
 1072YOPC   PO413998  13.699  10.168   6.115  0.0067 -0.0247 -0.2550
 1072YOPC   GL113999  13.758  10.038   6.619  0.0809  0.1730 -0.2868
 1072YOPC   GL214000  13.628   9.713   6.647  0.1013 -0.1479  0.2653
 1072YOPC   C1A14001  13.635  10.133   7.046 -0.0302  0.1919 -0.1093
 1072YOPC   D2A14002  13.643  10.252   7.499 -0.5649 -0.3835 -0.1973
 1072YOPC   C3A14003  14.022  10.457   7.573  0.1039 -0.0512 -0.0033
 1072YOPC   C4A14004  14.444  10.523   7.605 -0.0284  0.1455  0.2049
 1072YOPC   C1B14005  13.802   9.606   6.974  0.0795  0.0636  0.0531
 1072YOPC   C2B14006  13.996   9.624   7.342 -0.1078  0.0545  0.1867
 1072YOPC   D3B14007  13.928   9.860   7.532  0.1915  0.2540  0.2167
 1072YOPC   C4B14008  14.192  10.037   7.679 -0.0623 -0.0709 -0.0872
 1073YOPC   NC314009  11.888   9.304   6.531  0.2611 -0.0788  0.1411
 1073YOPC   PO414010  11.666   9.026   6.663  0.0248  0.2094  0.0460
 1073YOPC   GL114011  11.896   9.323   6.998  0.0005  0.3079 -0.1522
 1073YOPC   GL214012  12.208   9.314   7.075  0.1435  0.0540 -0.2484
 1073YOPC   C1A14013  11.939   9.395   7.470  0.2681  0.0357 -0.2936
 1073YOPC   D2A14014  11.947   9.500   7.960 -0.0975 -0.0721 -0.0180
 1073YOPC   C3A14015  12.075   9.089   8.242  0.2004  0.2627  0.0188
 1073YOPC   C4A14016  11.801   8.740   8.300 -0.0372  0.2909 -0.1365
 1073YOPC   C1B14017  12.556   9.222   7.346 -0.0360  0.1733  0.1370
 1073YOPC   C2B14018  12.916   9.029   7.468  0.2311  0.2131  0.2301
 1073YOPC   D3B14019  12.922   8.593   7.259  0.0907 -0.0059 -0.0413
 1073YOPC   C4B14020  12.808   8.497   6.889  0.1307  0.1496  0.1326
 1074YOPC   NC314021  18.046   1.064   5.899  0.3590 -0.2071 -0.1326
 1074YOPC   PO414022  17.932   1.463   5.809 -0.1023 -0.0451 -0.1470
 1074YOPC   GL114023  18.115   1.483   6.246 -0.1649  0.1022  0.0343
 1074YOPC   GL214024  18.423   1.336   6.275  0.1393  0.4204  0.1155
 1074YOPC   C1A14025  18.187   1.642   6.620 -0.0648 -0.1519 -0.1502
 1074YOPC   D2A14026  18.360   1.621   7.085  0.2107 -0.1275  0.1128
 1074YOPC   C3A14027  18.652   1.994   7.227  0.1095  0.2178  0.3097
 1074YOPC   C4A14028  19.074   2.068   7.382  0.1981  0.1797  0.0338
 1074YOPC   C1B14029  18.406   1.208   6.711 -0.1506  0.2796 -0.0678
 1074YOPC   C2B14030  18.767   1.377   6.942 -0.1929  0.0790 -0.1704
 1074YOPC   D3B14031  19.102   1.533   7.271 -0.1807 -0.0901 -0.0415
 1074YOPC   C4B14032  19.425   1.747   7.476  0.2460 -0.1421  0.3638
 1075YOPC   NC314033   1.016  13.139   5.598 -0.2432 -0.0571 -0.0201
 1075YOPC   PO414034   0.628  13.114   5.651  0.1222 -0.2090 -0.1831
 1075YOPC   GL114035   0.619  12.953   5.987 -0.2882  0.1442 -0.4784
 1075YOPC   GL214036   0.255  12.948   6.107 -0.3153  0.0541 -0.1652
 1075YOPC   C1A14037   0.864  12.788   6.402  0.1931  0.0202 -0.3294
 1075YOPC   D2A14038   0.817  12.760   6.854  0.0137 -0.0395  0.0398
 1075YOPC   C3A14039   0.864  12.455   7.167  0.1699  0.1849 -0.2893
 1075YOPC   C4A14040   0.679  12.144   7.509  0.0837 -0.0436  0.2344
 1075YOPC   C1B14041   0.509  13.196   6.424  0.1586  0.2911  0.3253
 1075YOPC   C2B14042   0.499  13.653   6.570 -0.3055  0.1498 -0.0994
 1075YOPC   D3B14043   0.662  13.672   6.885 -0.0454 -0.0837  0.4273
 1075YOPC   C4B14044   1.104  13.748   7.132 -0.0618 -0.0651 -0.0986
 1076YOPC   NC314045   4.371  15.870   5.508  0.0679  0.0476  0.1634
 1076YOPC   PO414046   4.058  16.234   5.574  0.2938  0.2650 -0.0071
 1076YOPC   GL114047   4.255  16.289   5.835 -0.2780 -0.1681  0.1073
 1076YOPC   GL214048   4.363  16.645   5.734 -0.0488 -0.1820 -0.1666
 1076YOPC   C1A14049   4.100  16.413   6.197 -0.1422  0.3012 -0.3283
 1076YOPC   D2A14050   3.905  16.776   6.499 -0.0961 -0.1957 -0.0429
 1076YOPC   C3A14051   4.109  16.804   6.937 -0.1079  0.0019  0.1696
 1076YOPC   C4A14052   4.311  16.801   7.325 -0.0797 -0.2562  0.1897
 1076YOPC   C1B14053   4.678  16.648   6.011  0.2925 -0.2440  0.2776
 1076YOPC   C2B14054   4.807  16.518   6.417 -0.2636 -0.1251 -0.1024
 1076YOPC   D3B14055   5.067  16.906   6.670  0.0568 -0.3200 -0.0288
 1076YOPC   C4B14056   5.290  17.155   6.896 -0.3900  0.0792  0.1107
 1077YOPC   NC314057   9.376  14.900   5.652 -0.0089 -0.0745  0.1394
 1077YOPC   PO414058   9.204  15.277   5.474 -0.1792  0.1005 -0.2266
 1077YOPC   GL114059   8.993  15.324   5.866  0.1537 -0.1573  0.1160
 1077YOPC   GL214060   9.005  15.012   6.020  0.1150  0.2857 -0.1413
 1077YOPC   C1A14061   8.678  15.440   6.120  0.1664  0.1026 -0.1753
 1077YOPC   D2A14062   8.512  15.433   6.564  0.0192  0.0195  0.0996
 1077YOPC   C3A14063   8.319  15.662   6.912  0.1989  0.1888 -0.0501
 1077YOPC   C4A14064   8.200  15.880   7.248 -0.0832 -0.0173  0.2262
 1077YOPC   C1B14065   8.794  15.014   6.344 -0.0922  0.0580  0.1815
 1077YOPC   C2B14066   8.560  14.835   6.693 -0.0265 -0.0597  0.0653
 1077YOPC   D3B14067   8.597  15.153   6.928  0.3049 -0.0056  0.1147
 1077YOPC   C4B14068   8.722  15.510   7.215 -0.2287 -0.1364 -0.1969
 1078YOPC   NC314069  18.365   7.483   4.887 -0.1737 -0.0902  0.0744
 1078YOPC   PO414070  18.089   7.132   4.900  0.0252 -0.6548 -0.3842
 1078YOPC   GL114071  18.216   7.104   5.308  0.0571 -0.0624 -0.0212
 1078YOPC   GL214072  17.997   6.865   5.506  0.2489  0.0208 -0.0173
 1078YOPC   C1A14073  18.468   7.269   5.746  0.1297 -0.0062 -0.2972
 1078YOPC   D2A14074  18.393   7.110   6.153  0.1297  0.1154  0.1364
 1078YOPC   C3A14075  18.222   7.277   6.685 -0.1866 -0.0656  0.2815
 1078YOPC   C4A14076  18.182   7.437   7.105 -0.1487 -0.0413 -0.3094
 1078YOPC   C1B14077  18.060   6.683   5.929 -0.2697 -0.2012 -0.1286
 1078YOPC   C2B14078  18.094   6.771   6.376  0.0366  0.0743  0.1052
 1078YOPC   D3B14079  17.786   6.973   6.713  0.0189  0.0526 -0.0618
 1078YOPC   C4B14080  17.500   7.020   6.954 -0.0485  0.2210 -0.2008
 1079YOPC   NC314081   7.277  17.624   5.850  0.0236  0.0403 -0.3026
 1079YOPC   PO414082   7.061  17.309   5.764 -0.0337  0.1261 -0.0308
 1079YOPC   GL114083   7.046  17.254   6.175 -0.0536  0.0931  0.5332
 1079YOPC   GL214084   6.858  17.020   6.143 -0.0837  0.0719 -0.0313
 1079YOPC   C1A14085   7.207  17.246   6.481 -0.2779 -0.1495 -0.4482
 1079YOPC   D2A14086   7.685  17.178   6.673  0.3291 -0.0328  0.1736
 1079YOPC   C3A14087   7.617  17.189   7.163  0.1786  0.1247 -0.0398
 1079YOPC   C4A14088   7.261  17.110   7.431  0.0208  0.2637 -0.0145
 1079YOPC   C1B14089   6.834  16.588   6.495 -0.2468  0.2036  0.1168
 1079YOPC   C2B14090   6.709  16.179   6.704  0.0627  0.2549 -0.1243
 1079YOPC   D3B14091   6.560  16.224   7.053 -0.0667  0.1238  0.0807
 1079YOPC   C4B14092   6.313  16.486   7.352  0.0402 -0.2830 -0.1347
 1080YOPC   NC314093  11.649  11.073   6.189  0.1365 -0.0021  0.2206
 1080YOPC   PO414094  11.620  10.736   6.544 -0.2492 -0.0241 -0.1198
 1080YOPC   GL114095  11.450  10.804   6.903 -0.1262 -0.0172 -0.3004
 1080YOPC   GL214096  11.268  10.606   6.879 -0.2264 -0.4759 -0.0758
 1080YOPC   C1A14097  11.151  10.890   7.336  0.2666  0.1432 -0.1849
 1080YOPC   D2A14098  11.084  10.962   7.838  0.1632  0.2082  0.0961
 1080YOPC   C3A14099  10.869  11.328   7.978 -0.0665 -0.0077 -0.2898
 1080YOPC   C4A14100  10.574  11.293   8.413  0.1274 -0.2088 -0.0306
 1080YOPC   C1B14101  11.253  10.372   7.291  0.2459  0.0029  0.1481
 1080YOPC   C2B14102  11.271  10.180   7.644  0.3239  0.1173  0.0680
 1080YOPC   D3B14103  11.039   9.887   7.900  0.1879 -0.2632  0.1311
 1080YOPC   C4B14104  10.729   9.577   7.808 -0.2567  0.0441  0.1337
 1081YOPC   NC314105  18.589  12.364   5.570 -0.1183  0.0203  0.2701
 1081YOPC   PO414106  18.668  12.612   5.994  0.2329  0.4167  0.1550
 1081YOPC   GL114107  18.318  12.615   6.161  0.2840  0.1279  0.1148
 1081YOPC   GL214108  18.159  12.919   6.141  0.1450  0.0803  0.1177
 1081YOPC   C1A14109  18.141  12.564   6.524  0.1327 -0.1044  0.0425
 1081YOPC   D2A14110  18.103  12.796   6.964  0.1763 -0.1914  0.0250
 1081YOPC   C3A14111  18.114  12.456   7.352  0.1635  0.1214  0.1485
 1081YOPC   C4A14112  18.206  12.174   7.513 -0.0261  0.1394  0.0368
 1081YOPC   C1B14113  18.049  13.091   6.536 -0.2548 -0.0408  0.1105
 1081YOPC   C2B14114  18.016  13.345   6.919  0.0873  0.3793  0.1900
 1081YOPC   D3B14115  18.143  13.221   7.344  0.0364 -0.0523  0.0319
 1081YOPC   C4B14116  18.384  13.348   7.672  0.3379  0.2050  0.0780
 1082YOPC   NC314117  16.386  18.186   5.882 -0.2466 -0.3379 -0.0263
 1082YOPC   PO414118  16.120  18.449   6.099  0.1322  0.2059 -0.0192
 1082YOPC   GL114119  16.120  18.642   6.535 -0.0887  0.0606  0.0878
 1082YOPC   GL214120  15.982  18.482   6.768  0.0887  0.0633 -0.0216
 1082YOPC   C1A14121  15.984  18.998   6.846 -0.2611 -0.1099  0.1820
 1082YOPC   D2A14122  16.042  18.878   7.222 -0.0875  0.2492 -0.0137
 1082YOPC   C3A14123  16.044  19.119   7.614 -0.1539  0.3445  0.1769
 1082YOPC   C4A14124  16.015  19.526   7.894 -0.1295  0.1600 -0.2269
 1082YOPC   C1B14125  15.792  18.462   7.168  0.0287 -0.1734  0.4334
 1082YOPC   C2B14126  15.821  18.402   7.570  0.2460 -0.1301  0.2668
 1082YOPC   D3B14127  16.202  18.661   7.666 -0.4804  0.0097 -0.1494
 1082YOPC   C4B14128  16.598  18.613   7.569  0.0294 -0.0736 -0.0241
 1083YOPC   NC314129  15.777   0.489   5.980 -0.0538 -0.0148  0.0846
 1083YOPC   PO414130  15.491   0.429   6.452 -0.1511 -0.1840 -0.3568
 1083YOPC   GL114131  15.378   0.519   6.829  0.0156  0.1252 -0.1762
 1083YOPC   GL214132  15.644   0.710   6.899 -0.0370  0.3045 -0.0325
 1083YOPC   C1A14133  15.276   0.695   7.252  0.4855  0.0743 -0.1047
 1083YOPC   D2A14134  15.174   0.666   7.716 -0.1266 -0.2721  0.1378
 1083YOPC   C3A14135  15.409   0.835   8.045  0.0722 -0.1024  0.3023
 1083YOPC   C4A14136  15.730   1.066   8.164 -0.0014  0.1286  0.2161
 1083YOPC   C1B14137  15.892   0.611   7.210 -0.3352 -0.1482 -0.4223
 1083YOPC   C2B14138  16.213   0.820   7.397  0.1766 -0.1061  0.4225
 1083YOPC   D3B14139  16.391   1.170   7.682  0.0019  0.4501  0.0404
 1083YOPC   C4B14140  16.623   1.446   7.929  0.1600 -0.0467 -0.1316
 1084YOPC   NC314141   5.203  11.837   5.466 -0.0368  0.1821  0.2313
 1084YOPC   PO414142   5.586  11.749   5.584  0.1364 -0.2028 -0.3462
 1084YOPC   GL114143   5.603  11.887   6.097  0.0200 -0.2177  0.0830
 1084YOPC   GL214144   5.414  11.587   6.157 -0.2299  0.0759 -0.1078
 1084YOPC   C1A14145   5.439  12.002   6.504 -0.1629 -0.1412 -0.3381
 1084YOPC   D2A14146   5.418  12.061   6.930 -0.3916 -0.2700 -0.2360
 1084YOPC   C3A14147   5.557  12.396   7.151  0.1129 -0.2968 -0.0110
 1084YOPC   C4A14148   5.408  12.722   7.532 -0.0036  0.0696  0.0807
 1084YOPC   C1B14149   5.495  11.256   6.486  0.4053  0.0663  0.0790
 1084YOPC   C2B14150   5.496  10.954   6.797  0.0939  0.1502 -0.4704
 1084YOPC   D3B14151   5.291  10.816   7.195  0.0445  0.0570  0.0246
 1084YOPC   C4B14152   5.430  10.620   7.644 -0.1387 -0.0459  0.2940
 1085YOPC   NC314153   6.233   1.075   5.452 -0.3066 -0.0378 -0.1393
 1085YOPC   PO414154   6.026   1.370   5.802 -0.0455 -0.1903  0.1926
 1085YOPC   GL114155   5.944   1.382   6.195  0.1532 -0.0577  0.1319
 1085YOPC   GL214156   5.639   1.646   6.115 -0.0916  0.0640 -0.0096
 1085YOPC   C1A14157   5.839   1.532   6.636  0.2154  0.3666 -0.0733
 1085YOPC   D2A14158   6.004   1.543   7.008 -0.3000  0.2233 -0.1261
 1085YOPC   C3A14159   6.288   1.362   7.255 -0.1369 -0.1946  0.2301
 1085YOPC   C4A14160   6.739   1.510   7.404 -0.1866  0.1730  0.0307
 1085YOPC   C1B14161   5.473   1.313   6.361  0.0137 -0.0503  0.0050
 1085YOPC   C2B14162   5.452   1.238   6.791  0.2267  0.3283 -0.1086
 1085YOPC   D3B14163   5.618   0.887   7.059 -0.0429  0.3239 -0.1222
 1085YOPC   C4B14164   5.810   0.589   7.365 -0.1493  0.2744 -0.0457
 1086YOPC   NC314165  14.769   7.265   4.764 -0.1957  0.1738  0.0126
 1086YOPC   PO414166  14.704   7.390   5.149 -0.1570 -0.2240 -0.0131
 1086YOPC   GL114167  15.092   7.368   5.359  0.1852 -0.0587  0.2631
 1086YOPC   GL214168  14.925   7.062   5.578  0.0487  0.0002 -0.0335
 1086YOPC   C1A14169  15.263   7.494   5.691  0.1841  0.1872 -0.0741
 1086YOPC   D2A14170  15.331   7.595   6.070  0.1829  0.2017 -0.3524
 1086YOPC   C3A14171  15.035   7.414   6.327  0.0342 -0.2850  0.1700
 1086YOPC   C4A14172  14.827   7.156   6.623 -0.1071 -0.0694 -0.3983
 1086YOPC   C1B14173  14.619   7.052   5.903  0.1986  0.0874 -0.1090
 1086YOPC   C2B14174  14.777   6.866   6.212  0.1723  0.0749 -0.0644
 1086YOPC   D3B14175  14.599   6.656   6.447 -0.1550  0.3058  0.0102
 1086YOPC   C4B14176  14.556   6.656   6.870  0.1685  0.1546 -0.0053
 1087YOPC   NC314177   7.512   1.657   4.920  0.0256  0.1494 -0.1533
 1087YOPC   PO414178   7.331   1.631   5.311 -0.0979 -0.0264 -0.1140
 1087YOPC   GL114179   7.439   1.640   5.821 -0.0260 -0.0019  0.2772
 1087YOPC   GL214180   7.736   1.367   6.041 -0.0477 -0.2594 -0.0669
 1087YOPC   C1A14181   7.703   1.866   6.111  0.2803  0.1606  0.2511
 1087YOPC   D2A14182   7.798   2.144   6.293  0.0090 -0.1262 -0.0398
 1087YOPC   C3A14183   7.579   2.487   6.490  0.0403  0.0776 -0.1520
 1087YOPC   C4A14184   7.521   2.485   6.903 -0.3093  0.0292  0.0158
 1087YOPC   C1B14185   7.998   1.607   6.398  0.2098 -0.1694  0.1562
 1087YOPC   C2B14186   8.361   1.883   6.529 -0.2553 -0.3779 -0.2587
 1087YOPC   D3B14187   8.663   1.702   6.912  0.2476  0.1466  0.0130
 1087YOPC   C4B14188   8.597   1.788   7.456 -0.0446 -0.0819 -0.2839
 1088YOPC   NC314189  11.930  12.868   6.246  0.2218 -0.1750  0.1879
 1088YOPC   PO414190  11.931  13.331   6.384 -0.0273 -0.0038 -0.2388
 1088YOPC   GL114191  11.936  13.492   6.828 -0.0996  0.2929 -0.0949
 1088YOPC   GL214192  12.066  13.824   6.673  0.1258 -0.1246 -0.1423
 1088YOPC   C1A14193  11.924  13.453   7.233 -0.0420 -0.1265 -0.3153
 1088YOPC   D2A14194  12.123  13.501   7.629 -0.1012 -0.0517 -0.0772
 1088YOPC   C3A14195  12.180  13.069   7.634  0.0841  0.1820  0.1227
 1088YOPC   C4A14196  12.356  12.814   7.901  0.1711 -0.0940 -0.0656
 1088YOPC   C1B14197  12.009  13.948   7.228 -0.1053  0.0251  0.0615
 1088YOPC   C2B14198  11.965  14.169   7.548 -0.2830  0.1503 -0.0565
 1088YOPC   D3B14199  12.138  13.992   7.925 -0.1773  0.1524 -0.1208
 1088YOPC   C4B14200  12.556  14.098   8.139  0.1930  0.0679 -0.1564
 1089YOPC   NC314201  16.366   1.595   5.969  0.0423 -0.1024 -0.1592
 1089YOPC   PO414202  16.098   1.971   5.977 -0.2038  0.0471 -0.1624
 1089YOPC   GL114203  16.037   1.941   6.364  0.3359  0.2700  0.0030
 1089YOPC   GL214204  16.315   2.006   6.484 -0.2957  0.2749  0.4116
 1089YOPC   C1A14205  15.850   2.055   6.837  0.0287  0.1255  0.1203
 1089YOPC   D2A14206  16.179   1.997   7.135  0.0700 -0.1920 -0.2631
 1089YOPC   C3A14207  15.938   1.992   7.567 -0.4024 -0.1820  0.2295
 1089YOPC   C4A14208  15.820   2.198   7.992 -0.1468 -0.0571 -0.0665
 1089YOPC   C1B14209  16.663   2.388   6.597  0.1272  0.2972  0.1169
 1089YOPC   C2B14210  16.895   2.715   6.773 -0.1865  0.0530  0.0822
 1089YOPC   D3B14211  16.827   2.741   7.224 -0.0736 -0.1132  0.2200
 1089YOPC   C4B14212  17.060   2.699   7.508  0.1022  0.4660 -0.1722
 1090YOPC   NC314213   7.821  16.962   5.605 -0.1843  0.0137  0.1334
 1090YOPC   PO414214   7.607  16.648   5.561  0.3361 -0.0211  0.0942
 1090YOPC   GL114215   7.775  16.550   5.971 -0.0942 -0.4850 -0.0756
 1090YOPC   GL214216   7.627  16.294   6.072 -0.1977  0.1873 -0.1534
 1090YOPC   C1A14217   7.863  16.683   6.439  0.4333  0.0807 -0.1455
 1090YOPC   D2A14218   7.703  16.708   6.834  0.0985 -0.2043 -0.0576
 1090YOPC   C3A14219   8.140  16.827   7.081 -0.0211  0.2786  0.1945
 1090YOPC   C4A14220   8.182  16.834   7.474  0.1934 -0.0854  0.1025
 1090YOPC   C1B14221   7.562  16.283   6.594  0.1269  0.2825 -0.0185
 1090YOPC   C2B14222   7.190  16.369   6.799 -0.2645  0.2728 -0.3829
 1090YOPC   D3B14223   7.098  16.007   7.172  0.0143  0.0926  0.1103
 1090YOPC   C4B14224   7.030  15.988   7.551 -0.1172 -0.0577 -0.2009
 1091YOPC   NC314225   2.016  17.495   5.822  0.1927 -0.1801  0.4228
 1091YOPC   PO414226   2.369  17.802   5.880  0.1288  0.0023  0.0727
 1091YOPC   GL114227   2.771  17.717   6.126  0.3048  0.0202 -0.0669
 1091YOPC   GL214228   2.519  17.588   6.328 -0.2449  0.1342 -0.0914
 1091YOPC   C1A14229   3.137  17.587   6.345  0.2803 -0.1228  0.2762
 1091YOPC   D2A14230   3.465  17.681   6.613 -0.1467 -0.1151  0.1203
 1091YOPC   C3A14231   3.283  17.607   7.007 -0.1282  0.1702 -0.0844
 1091YOPC   C4A14232   3.427  17.328   7.337  0.0239 -0.3187 -0.0903
 1091YOPC   C1B14233   2.715  17.576   6.666 -0.0427  0.0572  0.1780
 1091YOPC   C2B14234   2.827  17.255   7.007  0.0498 -0.1467 -0.1414
 1091YOPC   D3B14235   2.524  17.303   7.276 -0.1530  0.0672  0.2980
 1091YOPC   C4B14236   2.524  17.266   7.727  0.0559  0.0308  0.0317
 1092YOPC   NC314237   7.488  13.879   5.724  0.1966 -0.2291  0.1287
 1092YOPC   PO414238   7.411  14.360   5.531 -0.0579 -0.2275  0.3047
 1092YOPC   GL114239   7.610  14.457   5.952 -0.1492  0.0734 -0.0171
 1092YOPC   GL214240   8.022  14.511   5.974  0.0047  0.1842  0.0374
 1092YOPC   C1A14241   7.345  14.556   6.271 -0.0889  0.2977  0.0171
 1092YOPC   D2A14242   7.145  15.053   6.303 -0.2573 -0.2080 -0.1942
 1092YOPC   C3A14243   6.993  15.204   6.637 -0.2923  0.0666 -0.1193
 1092YOPC   C4A14244   6.648  15.293   6.779  0.3370 -0.0818  0.4063
 1092YOPC   C1B14245   7.771  14.399   6.453 -0.1686 -0.0862 -0.1539
 1092YOPC   C2B14246   7.402  14.313   6.768 -0.1124  0.3857  0.1645
 1092YOPC   D3B14247   7.487  14.107   7.052 -0.2464 -0.1783  0.0022
 1092YOPC   C4B14248   7.683  13.762   7.119 -0.3689 -0.1592  0.1385
 1093YOPC   NC314249  13.574   4.237   4.969  0.0468  0.0445  0.3196
 1093YOPC   PO414250  13.259   4.252   5.341  0.0950 -0.3471  0.0709
 1093YOPC   GL114251  13.225   4.641   5.570 -0.0391 -0.0376  0.3395
 1093YOPC   GL214252  13.143   4.896   5.466  0.3601  0.0576 -0.0149
 1093YOPC   C1A14253  13.287   4.626   5.970 -0.1270  0.0042  0.0899
 1093YOPC   D2A14254  12.994   4.856   6.265  0.0949  0.2068  0.1107
 1093YOPC   C3A14255  12.993   5.096   6.557 -0.1615 -0.0581  0.1601
 1093YOPC   C4A14256  12.662   5.100   6.856  0.1882 -0.1546  0.0884
 1093YOPC   C1B14257  12.810   4.680   5.836  0.1040 -0.2503  0.1029
 1093YOPC   C2B14258  12.769   4.416   6.111 -0.1053  0.2363  0.1720
 1093YOPC   D3B14259  12.751   4.188   6.519  0.5840 -0.0525 -0.0543
 1093YOPC   C4B14260  12.539   4.103   6.916  0.0736  0.2485 -0.0584
 1094YOPC   NC314261   6.962   0.595   5.547 -0.1407 -0.1848  0.0260
 1094YOPC   PO414262   7.241   0.563   5.949  0.2690  0.0298 -0.2336
 1094YOPC   GL114263   7.423   0.742   6.341  0.0732 -0.6208 -0.0615
 1094YOPC   GL214264   7.756   0.722   6.378 -0.1686 -0.0944  0.0251
 1094YOPC   C1A14265   7.302   0.850   6.716 -0.0845  0.0950  0.2724
 1094YOPC   D2A14266   7.301   1.184   6.950 -0.1347  0.1711 -0.1597
 1094YOPC   C3A14267   7.276   1.191   7.338 -0.2551 -0.0857  0.0157
 1094YOPC   C4A14268   7.143   1.234   7.746 -0.1077 -0.2160 -0.3606
 1094YOPC   C1B14269   7.927   0.650   6.685  0.1395 -0.0516 -0.1648
 1094YOPC   C2B14270   7.843   0.638   7.095  0.2906 -0.1054 -0.3337
 1094YOPC   D3B14271   7.397   0.765   7.217  0.2641  0.1401  0.0114
 1094YOPC   C4B14272   7.154   0.725   7.575 -0.1174  0.1800 -0.0440
 1095YOPC   NC314273  12.679   1.048   5.891 -0.0106  0.1128  0.0795
 1095YOPC   PO414274  12.970   0.603   6.053 -0.1441 -0.4424 -0.0033
 1095YOPC   GL114275  13.124   0.410   6.424 -0.0143  0.0736  0.4072
 1095YOPC   GL214276  13.076   0.092   6.227 -0.1336 -0.2537 -0.0441
 1095YOPC   C1A14277  13.204   0.295   6.755  0.1757 -0.0994  0.0592
 1095YOPC   D2A14278  12.972   0.357   7.184 -0.2843  0.1283  0.1207
 1095YOPC   C3A14279  12.956   0.369   7.559  0.1281  0.0992 -0.0647
 1095YOPC   C4A14280  12.882   0.133   7.951 -0.1392 -0.2533 -0.3741
 1095YOPC   C1B14281  12.966  -0.148   6.509 -0.4400  0.4004 -0.0464
 1095YOPC   C2B14282  12.985  -0.174   6.877 -0.1682 -0.2943  0.4303
 1095YOPC   D3B14283  13.106  -0.286   7.233 -0.1600  0.1564 -0.2497
 1095YOPC   C4B14284  13.125  -0.195   7.630  0.2225 -0.3007 -0.0219
 1096YOPC   NC314285  16.802   4.758   5.561 -0.0648 -0.0965 -0.0688
 1096YOPC   PO414286  17.126   5.139   5.555 -0.0551 -0.2138  0.2281
 1096YOPC   GL114287  17.321   5.174   5.922  0.4825  0.1483  0.3302
 1096YOPC   GL214288  17.475   5.432   5.827 -0.0889 -0.1655  0.4160
 1096YOPC   C1A14289  17.387   5.107   6.269 -0.1707  0.0646  0.1528
 1096YOPC   D2A14290  17.455   5.187   6.674 -0.4599  0.3521 -0.3784
 1096YOPC   C3A14291  17.237   5.147   6.973 -0.0937 -0.2227 -0.1272
 1096YOPC   C4A14292  16.985   5.134   7.255 -0.3298 -0.1229 -0.2368
 1096YOPC   C1B14293  17.621   5.487   6.108  0.0609  0.2672 -0.1732
 1096YOPC   C2B14294  17.566   5.669   6.480  0.2593 -0.0699  0.0884
 1096YOPC   D3B14295  17.455   5.602   6.893  0.1317  0.2496  0.0256
 1096YOPC   C4B14296  17.470   5.961   7.195 -0.0227  0.0216 -0.0322
 1097YOPC   NC314297  12.197   2.822   5.950  0.1659 -0.0640  0.1806
 1097YOPC   PO414298  12.562   2.566   5.770  0.3763  0.1859  0.1687
 1097YOPC   GL114299  12.531   2.554   6.209  0.0604 -0.2051 -0.1700
 1097YOPC   GL214300  12.193   2.381   6.243  0.0535 -0.0537 -0.1832
 1097YOPC   C1A14301  12.658   2.778   6.604  0.0457  0.2607  0.1846
 1097YOPC   D2A14302  12.777   2.830   6.988 -0.0664 -0.3354 -0.1364
 1097YOPC   C3A14303  12.537   3.039   7.262  0.5147  0.1819  0.2119
 1097YOPC   C4A14304  12.398   3.470   7.290  0.1485 -0.1569  0.2145
 1097YOPC   C1B14305  12.020   2.059   6.530  0.2801 -0.1063 -0.0847
 1097YOPC   C2B14306  11.576   2.004   6.625  0.0337 -0.1977 -0.1021
 1097YOPC   D3B14307  11.360   2.077   6.985 -0.1112  0.1753 -0.1401
 1097YOPC   C4B14308  11.174   2.018   7.362 -0.0958  0.3247  0.3140
 1098YOPC   NC314309  18.214   6.054   5.264  0.2527 -0.1941 -0.0427
 1098YOPC   PO414310  18.297   6.504   5.221  0.3625  0.1347  0.0659
 1098YOPC   GL114311  18.530   6.301   5.547 -0.0160 -0.3109 -0.2099
 1098YOPC   GL214312  18.347   6.230   5.842 -0.2430  0.1303  0.2838
 1098YOPC   C1A14313  18.537   6.726   5.915 -0.2334  0.3090 -0.0842
 1098YOPC   D2A14314  18.605   6.697   6.401 -0.0806 -0.3533 -0.0342
 1098YOPC   C3A14315  18.629   6.941   6.740  0.2838  0.2270 -0.3261
 1098YOPC   C4A14316  18.616   6.881   7.198  0.0290 -0.0486  0.3605
 1098YOPC   C1B14317  18.245   6.326   6.238  0.0559  0.0056 -0.0291
 1098YOPC   C2B14318  18.094   6.385   6.701  0.2441 -0.2510  0.2524
 1098YOPC   D3B14319  18.191   6.733   6.934 -0.1841  0.0341  0.1678
 1098YOPC   C4B14320  18.039   6.966   7.171 -0.0861 -0.0899  0.1857
 1099YOPC   NC314321   0.405  17.667   5.615 -0.0316  0.0008 -0.2938
 1099YOPC   PO414322   0.512  17.892   6.017 -0.1087 -0.1872 -0.1481
 1099YOPC   GL114323   0.534  18.108   6.412  0.1134 -0.4510 -0.1634
 1099YOPC   GL214324   0.827  18.167   6.438  0.1123 -0.3054 -0.2312
 1099YOPC   C1A14325   0.496  18.264   6.947 -0.2696 -0.1242  0.2398
 1099YOPC   D2A14326   0.526  18.472   7.309  0.0312 -0.1213 -0.0239
 1099YOPC   C3A14327   0.929  18.641   7.455 -0.0090  0.3825  0.0835
 1099YOPC   C4A14328   1.382  18.734   7.571 -0.0060 -0.0743 -0.0731
 1099YOPC   C1B14329   0.940  18.409   6.803  0.1595  0.0730  0.1584
 1099YOPC   C2B14330   1.262  18.443   7.131 -0.1657  0.0026  0.1216
 1099YOPC   D3B14331   1.354  18.822   7.107  0.0100 -0.0524 -0.4452
 1099YOPC   C4B14332   1.435  19.144   7.050 -0.1465 -0.0168 -0.0495
 1100YOPC   NC314333  18.681  11.087   5.673  0.0461 -0.0599  0.0175
 1100YOPC   PO414334  19.090  11.033   5.485 -0.1437 -0.1344  0.3105
 1100YOPC   GL114335  19.121  10.975   5.858 -0.3110 -0.0032  0.0395
 1100YOPC   GL214336  19.280  11.350   5.907 -0.0332  0.3081 -0.0286
 1100YOPC   C1A14337  19.123  11.016   6.425 -0.0065 -0.1994  0.1508
 1100YOPC   D2A14338  18.940  11.099   6.868  0.1345 -0.2741  0.0293
 1100YOPC   C3A14339  18.973  10.997   7.204 -0.1036  0.4567  0.0387
 1100YOPC   C4A14340  18.909  10.800   7.548 -0.2783 -0.3316 -0.0384
 1100YOPC   C1B14341  19.279  11.469   6.303 -0.2412  0.2572 -0.1924
 1100YOPC   C2B14342  19.323  11.497   6.785  0.5305  0.0602  0.1501
 1100YOPC   D3B14343  19.104  11.495   7.092 -0.1204 -0.0395  0.0545
 1100YOPC   C4B14344  19.079  11.843   7.383  0.2523 -0.1278 -0.0895
 1101YOPC   NC314345   8.250  14.975   4.568  0.1300  0.1387 -0.2040
 1101YOPC   PO414346   8.264  14.748   5.048  0.0576 -0.1907  0.1253
 1101YOPC   GL114347   8.162  15.025   5.346 -0.0861  0.4340 -0.2655
 1101YOPC   GL214348   8.083  15.372   5.401  0.0186 -0.1001  0.2720
 1101YOPC   C1A14349   7.891  14.973   5.695 -0.0889  0.1636 -0.0778
 1101YOPC   D2A14350   7.538  14.928   5.970  0.0378 -0.2653 -0.1861
 1101YOPC   C3A14351   7.121  14.792   5.847 -0.0388 -0.0164  0.1057
 1101YOPC   C4A14352   7.020  15.048   5.475  0.0528  0.2024 -0.1370
 1101YOPC   C1B14353   8.118  15.416   5.872 -0.1621  0.2135  0.1731
 1101YOPC   C2B14354   8.183  15.561   6.245  0.0482 -0.0587  0.0034
 1101YOPC   D3B14355   7.951  15.558   6.561  0.1054  0.1823 -0.2549
 1101YOPC   C4B14356   7.583  15.814   6.435  0.1774  0.0396 -0.2566
 1102YOPC   NC314357   8.129  17.710   5.928 -0.2564  0.2704 -0.3763
 1102YOPC   PO414358   7.750  17.407   5.756 -0.1717  0.4037  0.0522
 1102YOPC   GL114359   7.650  17.419   6.167  0.1885  0.1712  0.1677
 1102YOPC   GL214360   8.020  17.517   6.358  0.1514 -0.0115  0.1582
 1102YOPC   C1A14361   7.443  17.732   6.544 -0.1676 -0.0801  0.0122
 1102YOPC   D2A14362   7.392  17.889   6.948 -0.2666 -0.1157 -0.4369
 1102YOPC   C3A14363   6.932  18.034   7.113 -0.3771  0.0757  0.1217
 1102YOPC   C4A14364   6.658  18.307   7.347 -0.0637  0.4370  0.1346
 1102YOPC   C1B14365   7.868  17.630   6.768 -0.0359  0.1420  0.0993
 1102YOPC   C2B14366   7.774  17.716   7.122  0.0860  0.3040 -0.0332
 1102YOPC   D3B14367   7.846  17.605   7.528 -0.1144  0.1372  0.3382
 1102YOPC   C4B14368   8.167  17.339   7.547  0.2405  0.2658  0.1150
 1103YOPC   NC314369  17.663   8.541   5.167 -0.1729 -0.2806  0.1164
 1103YOPC   PO414370  17.852   8.042   5.134 -0.1337  0.0002 -0.0117
 1103YOPC   GL114371  17.713   8.069   5.455 -0.0422 -0.0314  0.2272
 1103YOPC   GL214372  17.792   8.287   5.640 -0.0648 -0.1392  0.2351
 1103YOPC   C1A14373  17.352   8.013   5.710 -0.1639 -0.0778 -0.0099
 1103YOPC   D2A14374  17.132   8.244   6.000 -0.1736 -0.1013 -0.2485
 1103YOPC   C3A14375  16.850   8.179   6.228  0.2378  0.0565 -0.2108
 1103YOPC   C4A14376  16.552   8.269   6.575 -0.0549 -0.1903  0.1527
 1103YOPC   C1B14377  17.747   8.384   6.044  0.0904  0.1694  0.2077
 1103YOPC   C2B14378  17.475   8.607   6.360  0.1921 -0.1638  0.3609
 1103YOPC   D3B14379  17.175   8.301   6.541  0.2208 -0.1234 -0.2555
 1103YOPC   C4B14380  16.949   8.106   6.756  0.0266  0.1471 -0.1685
 1104YOPC   NC314381  12.795  16.920   5.270 -0.2697  0.1403  0.1835
 1104YOPC   PO414382  12.763  16.658   5.648  0.0535  0.1346 -0.1485
 1104YOPC   GL114383  12.483  16.617   6.056 -0.2729 -0.0436 -0.0382
 1104YOPC   GL214384  12.654  16.782   6.415  0.0004  0.0080  0.2378
 1104YOPC   C1A14385  12.380  16.298   6.419 -0.1137  0.2619 -0.2267
 1104YOPC   D2A14386  12.029  16.174   6.702 -0.1064 -0.2450 -0.1872
 1104YOPC   C3A14387  12.049  16.375   7.164  0.0286  0.0539 -0.0523
 1104YOPC   C4A14388  11.724  16.369   7.506 -0.2506 -0.0416  0.0471
 1104YOPC   C1B14389  13.044  16.678   6.306  0.0575  0.2088 -0.2316
 1104YOPC   C2B14390  13.479  16.782   6.492  0.2200 -0.1173 -0.0966
 1104YOPC   D3B14391  13.528  16.871   6.993 -0.0665  0.1226  0.0516
 1104YOPC   C4B14392  13.836  16.872   7.246  0.3513  0.1936 -0.5599
 1105YOPC   NC314393   0.212   2.830   5.319 -0.1138  0.1213 -0.2366
 1105YOPC   PO414394   0.647   2.593   5.456 -0.1737  0.0952 -0.0289
 1105YOPC   GL114395   0.790   2.654   5.879  0.0059  0.1226  0.1361
 1105YOPC   GL214396   1.097   2.668   6.016  0.2644  0.0021  0.0383
 1105YOPC   C1A14397   0.634   2.700   6.247 -0.1614 -0.0323  0.0197
 1105YOPC   D2A14398   0.501   2.730   6.630  0.1971  0.2752 -0.1001
 1105YOPC   C3A14399   0.733   2.618   6.965  0.3085 -0.0213 -0.0253
 1105YOPC   C4A14400   0.663   2.484   7.412 -0.1306  0.1461 -0.2650
 1105YOPC   C1B14401   1.084   2.748   6.505 -0.1915  0.2163 -0.0135
 1105YOPC   C2B14402   1.205   3.004   6.994 -0.1517  0.2519 -0.0266
 1105YOPC   D3B14403   1.128   2.814   7.360 -0.1373 -0.0187 -0.0753
 1105YOPC   C4B14404   1.201   2.454   7.509 -0.2416  0.0283  0.1041
 1106YOPC   NC314405   6.900   7.606   5.958  0.1100 -0.0158  0.0002
 1106YOPC   PO414406   6.535   7.632   5.956  0.3595 -0.4751  0.1612
 1106YOPC   GL114407   6.496   7.462   6.312  0.2581 -0.0230 -0.1271
 1106YOPC   GL214408   6.814   7.381   6.374  0.0774 -0.0543 -0.3831
 1106YOPC   C1A14409   6.135   7.329   6.504 -0.6621 -0.0276  0.2715
 1106YOPC   D2A14410   5.846   7.476   6.514  0.1080 -0.2210  0.1054
 1106YOPC   C3A14411   5.693   7.785   6.722  0.0277  0.2337 -0.1103
 1106YOPC   C4A14412   5.374   8.025   7.045 -0.2630  0.0929  0.1592
 1106YOPC   C1B14413   6.608   7.376   6.782  0.2225 -0.2870  0.0615
 1106YOPC   C2B14414   6.467   7.190   7.163  0.0810 -0.1741 -0.1146
 1106YOPC   D3B14415   6.138   7.269   7.378 -0.4179 -0.1186  0.1758
 1106YOPC   C4B14416   5.804   7.385   7.677 -0.1995  0.0365 -0.2248
 1107YOPC   NC314417   6.217   7.352   5.662 -0.2262  0.3954 -0.1683
 1107YOPC   PO414418   6.267   6.842   5.762  0.0143  0.0654  0.2468
 1107YOPC   GL114419   5.918   6.730   6.061  0.1902  0.1005  0.1727
 1107YOPC   GL214420   6.052   6.512   6.268  0.2077  0.1498  0.2173
 1107YOPC   C1A14421   5.880   6.931   6.454  0.0105  0.0944  0.1617
 1107YOPC   D2A14422   5.939   7.109   6.934  0.0136 -0.1720 -0.1295
 1107YOPC   C3A14423   5.987   7.506   6.985  0.1286 -0.2169  0.1458
 1107YOPC   C4A14424   5.821   7.774   7.296  0.0189  0.2055  0.1387
 1107YOPC   C1B14425   6.227   6.313   6.597 -0.1300 -0.0495  0.3613
 1107YOPC   C2B14426   6.420   6.130   6.940  0.1836 -0.0689 -0.2576
 1107YOPC   D3B14427   6.426   5.881   7.220 -0.0185  0.0385  0.0962
 1107YOPC   C4B14428   6.187   6.010   7.625 -0.2260 -0.2818  0.1902
 1108YOPC   NC314429  14.870  12.161   5.627  0.1123 -0.1779 -0.0401
 1108YOPC   PO414430  15.084  11.881   5.873  0.0216 -0.0456 -0.0313
 1108YOPC   GL114431  15.228  11.705   6.241  0.0861  0.1662  0.0183
 1108YOPC   GL214432  15.069  11.952   6.557  0.0430  0.1361 -0.3510
 1108YOPC   C1A14433  15.249  11.451   6.584 -0.1880 -0.0250  0.0413
 1108YOPC   D2A14434  15.279  11.346   7.044  0.0513 -0.1497 -0.2622
 1108YOPC   C3A14435  15.518  11.265   7.390  0.1975 -0.0879 -0.2066
 1108YOPC   C4A14436  15.554  11.145   7.825  0.3849 -0.1041  0.0922
 1108YOPC   C1B14437  14.946  11.728   6.967 -0.0280 -0.2195  0.0567
 1108YOPC   C2B14438  15.031  11.609   7.378  0.0152  0.1493 -0.2351
 1108YOPC   D3B14439  14.919  11.670   7.778  0.0264 -0.0928  0.0267
 1108YOPC   C4B14440  14.699  11.695   8.262 -0.3388 -0.0739  0.0143
 1109YOPC   NC314441  13.250  16.209   5.504  0.0802  0.0010  0.5081
 1109YOPC   PO414442  13.651  16.322   5.515  0.1714 -0.1160  0.0932
 1109YOPC   GL114443  13.827  16.344   5.984 -0.0863  0.0382 -0.2482
 1109YOPC   GL214444  13.952  16.115   6.231  0.4566 -0.3939  0.3221
 1109YOPC   C1A14445  13.477  16.283   6.416  0.0936  0.0504  0.1726
 1109YOPC   D2A14446  13.249  16.423   6.790  0.2610  0.0107  0.2256
 1109YOPC   C3A14447  12.857  16.418   6.727  0.0903 -0.1580  0.0152
 1109YOPC   C4A14448  12.456  16.458   6.875 -0.1546  0.0941 -0.0778
 1109YOPC   C1B14449  13.962  16.452   6.566  0.0288  0.0703 -0.2326
 1109YOPC   C2B14450  13.699  16.413   6.979  0.3489  0.2043 -0.0599
 1109YOPC   D3B14451  13.849  16.387   7.379 -0.1473  0.1103 -0.3007
 1109YOPC   C4B14452  13.914  16.350   7.885  0.1277 -0.4086 -0.1468
 1110YOPC   NC314453   2.281   5.133   5.284  0.3852  0.0000  0.1199
 1110YOPC   PO414454   2.255   4.659   5.363  0.1709  0.1464 -0.1863
 1110YOPC   GL114455   2.238   4.515   5.825  0.0527 -0.0334  0.2099
 1110YOPC   GL214456   2.477   4.426   6.082 -0.1883 -0.1559  0.1978
 1110YOPC   C1A14457   1.874   4.239   6.077  0.1397  0.2233 -0.1077
 1110YOPC   D2A14458   1.628   4.149   6.389  0.0473 -0.3059 -0.0757
 1110YOPC   C3A14459   1.264   4.412   6.678 -0.1677 -0.0320 -0.2133
 1110YOPC   C4A14460   0.989   4.396   6.934  0.0752 -0.0799 -0.1004
 1110YOPC   C1B14461   2.315   4.343   6.389  0.0197 -0.0287  0.0493
 1110YOPC   C2B14462   2.099   4.280   6.827 -0.0171  0.2516 -0.2150
 1110YOPC   D3B14463   1.669   4.247   6.919  0.0172  0.2613 -0.2002
 1110YOPC   C4B14464   1.397   4.627   7.107  0.0222 -0.4026 -0.3168
 1111YOPC   NC314465  14.011   1.250   5.506  0.2182  0.0582 -0.1942
 1111YOPC   PO414466  13.721   1.017   5.854  0.0084  0.0968  0.1426
 1111YOPC   GL114467  13.515   0.772   6.228  0.2224 -0.2305  0.2093
 1111YOPC   GL214468  13.555   0.604   6.498  0.2524 -0.2385  0.1226
 1111YOPC   C1A14469  13.481   1.044   6.614  0.0220  0.4582  0.3468
 1111YOPC   D2A14470  13.323   0.864   7.066 -0.0271  0.1792 -0.0983
 1111YOPC   C3A14471  13.071   0.850   7.487 -0.0368  0.1403 -0.3870
 1111YOPC   C4A14472  12.639   0.637   7.829  0.1592  0.0023  0.1160
 1111YOPC   C1B14473  13.827   0.736   6.924  0.2553 -0.2584  0.1678
 1111YOPC   C2B14474  13.723   0.601   7.252 -0.0611  0.1656  0.1947
 1111YOPC   D3B14475  13.477   0.584   7.530 -0.1413 -0.0676  0.1594
 1111YOPC   C4B14476  13.268   0.504   7.945 -0.0591 -0.0634 -0.2192
 1112YOPC   NC314477   5.311   0.550   5.135 -0.0708  0.4827  0.1798
 1112YOPC   PO414478   5.514   0.102   5.071 -0.1711 -0.3269  0.0382
 1112YOPC   GL114479   5.635  -0.079   5.623  0.1232  0.0509 -0.0122
 1112YOPC   GL214480   5.535  -0.408   5.710 -0.1764  0.2086  0.0302
 1112YOPC   C1A14481   5.497  -0.127   6.100 -0.1945 -0.2130 -0.0964
 1112YOPC   D2A14482   5.372  -0.373   6.401 -0.0822  0.0115  0.0030
 1112YOPC   C3A14483   5.493  -0.312   6.915  0.0440  0.0762  0.0115
 1112YOPC   C4A14484   5.782  -0.343   7.327  0.2242 -0.3003 -0.2499
 1112YOPC   C1B14485   5.448  -0.671   6.059  0.0640 -0.2598  0.0863
 1112YOPC   C2B14486   5.441  -0.862   6.417 -0.0513  0.3052  0.2499
 1112YOPC   D3B14487   5.358  -0.787   6.865  0.0617  0.1695 -0.3665
 1112YOPC   C4B14488   5.381  -0.679   7.295 -0.0526  0.1538  0.0436
 1113YOPC   NC314489  10.269   0.111   5.849  0.1040  0.3808  0.2003
 1113YOPC   PO414490  10.716   0.284   5.904  0.0437 -0.0629  0.1806
 1113YOPC   GL114491  10.532   0.235   6.286  0.1125  0.4159 -0.0196
 1113YOPC   GL214492  10.701   0.411   6.428  0.1328 -0.0544  0.1558
 1113YOPC   C1A14493  10.351   0.128   6.680 -0.0488  0.1824  0.0094
 1113YOPC   D2A14494  10.367  -0.297   6.903  0.1876  0.0654 -0.1524
 1113YOPC   C3A14495  10.131  -0.451   7.385 -0.1964  0.0550  0.3142
 1113YOPC   C4A14496  10.185  -0.720   7.732 -0.0022  0.1705  0.3491
 1113YOPC   C1B14497  10.810   0.414   6.841  0.0707  0.1821 -0.0703
 1113YOPC   C2B14498  10.828   0.430   7.261 -0.2642 -0.2929 -0.1133
 1113YOPC   D3B14499  10.372   0.225   7.261  0.0111  0.2585  0.3508
 1113YOPC   C4B14500   9.985  -0.028   7.074 -0.1771  0.3479  0.0545
 1114YOPC   NC314501   5.219   3.720   5.523 -0.1134  0.2572 -0.1254
 1114YOPC   PO414502   4.913   3.542   5.558  0.0844  0.2172 -0.4102
 1114YOPC   GL114503   4.653   3.394   5.880  0.0011 -0.0748 -0.0689
 1114YOPC   GL214504   4.450   3.506   6.190 -0.2400  0.0049  0.2258
 1114YOPC   C1A14505   4.489   3.004   6.033  0.0773 -0.0853 -0.3406
 1114YOPC   D2A14506   4.728   2.804   6.427 -0.1069 -0.1349  0.2055
 1114YOPC   C3A14507   4.907   2.709   6.754  0.0346  0.0211 -0.1264
 1114YOPC   C4A14508   5.231   2.931   6.992  0.2956  0.0779  0.1051
 1114YOPC   C1B14509   4.486   3.654   6.707  0.0252  0.0292  0.0198
 1114YOPC   C2B14510   4.533   3.642   7.077 -0.2318 -0.1047 -0.0144
 1114YOPC   D3B14511   4.328   3.966   7.255  0.2948 -0.1464  0.3353
 1114YOPC   C4B14512   4.100   4.182   7.387 -0.0388  0.0883  0.2067
 1115YOPC   NC314513  11.901   1.389   5.966  0.1813  0.0461 -0.0339
 1115YOPC   PO414514  12.299   1.454   5.847 -0.1204  0.1115 -0.1630
 1115YOPC   GL114515  12.288   1.551   6.295  0.1163 -0.1573 -0.1275
 1115YOPC   GL214516  12.086   1.166   6.386  0.0124 -0.4168  0.0403
 1115YOPC   C1A14517  12.077   1.610   6.665 -0.0126  0.3222  0.2873
 1115YOPC   D2A14518  11.911   1.494   7.125  0.2143  0.3364 -0.0047
 1115YOPC   C3A14519  11.757   1.784   7.441  0.4033  0.0405  0.0748
 1115YOPC   C4A14520  11.535   1.770   7.746  0.0235 -0.0986 -0.2085
 1115YOPC   C1B14521  11.866   1.113   6.764  0.0682 -0.0009  0.2326
 1115YOPC   C2B14522  11.536   1.078   6.987  0.0653 -0.1572 -0.1565
 1115YOPC   D3B14523  11.477   1.202   7.490  0.0890  0.2241 -0.1466
 1115YOPC   C4B14524  11.643   0.956   7.792  0.0754  0.2390 -0.5007
 1116YOPC   NC314525  13.982   7.623   5.582 -0.1789  0.1103  0.1783
 1116YOPC   PO414526  14.041   7.929   5.455 -0.2784 -0.1503  0.0384
 1116YOPC   GL114527  14.465   7.838   5.705 -0.0581 -0.0178 -0.0280
 1116YOPC   GL214528  14.168   7.986   6.021  0.1847  0.1318 -0.3749
 1116YOPC   C1A14529  14.631   7.511   5.974 -0.3244  0.4310  0.0721
 1116YOPC   D2A14530  14.306   7.361   6.240 -0.1906 -0.4546  0.0045
 1116YOPC   C3A14531  14.184   7.024   6.079 -0.0034 -0.0669 -0.0452
 1116YOPC   C4A14532  14.244   6.669   6.022 -0.0252 -0.3659 -0.0505
 1116YOPC   C1B14533  14.459   7.879   6.290  0.0029  0.2826 -0.0948
 1116YOPC   C2B14534  14.755   7.779   6.585  0.3035 -0.0599 -0.1099
 1116YOPC   D3B14535  14.804   7.904   6.922 -0.0958 -0.1710 -0.2143
 1116YOPC   C4B14536  15.070   7.692   7.292  0.0347 -0.2195 -0.0904
 1117YOPC   NC314537  10.769  15.696   5.256  0.1165 -0.0935  0.1831
 1117YOPC   PO414538  11.084  15.972   5.473  0.0212  0.0307 -0.0578
 1117YOPC   GL114539  11.137  16.250   5.738 -0.0669  0.0153  0.0292
 1117YOPC   GL214540  11.132  16.114   6.048  0.0268 -0.0098 -0.1249
 1117YOPC   C1A14541  10.883  16.459   6.096  0.1278 -0.3647  0.2001
 1117YOPC   D2A14542  10.590  16.310   6.429  0.2055 -0.3347 -0.1620
 1117YOPC   C3A14543  10.570  16.562   6.817 -0.0324 -0.0617 -0.5033
 1117YOPC   C4A14544  10.555  16.393   7.299 -0.0029 -0.1793 -0.1081
 1117YOPC   C1B14545  11.147  16.220   6.534  0.0386  0.1783 -0.1035
 1117YOPC   C2B14546  10.912  16.223   6.897  0.2681 -0.2213 -0.1950
 1117YOPC   D3B14547  10.892  15.937   7.294 -0.4335  0.7374 -0.0005
 1117YOPC   C4B14548  10.564  15.843   7.567 -0.3103  0.2792  0.4594
 1118YOPC   NC314549   9.931  17.516   5.197 -0.3230  0.0666  0.1726
 1118YOPC   PO414550  10.055  17.396   5.485 -0.1228 -0.0526 -0.2260
 1118YOPC   GL114551  10.105  17.307   5.979  0.0196  0.1683  0.2121
 1118YOPC   GL214552  10.237  17.587   6.019  0.0809 -0.0986  0.0979
 1118YOPC   C1A14553  10.171  17.112   6.365 -0.1287  0.2909 -0.3230
 1118YOPC   D2A14554  10.280  17.054   6.844 -0.0449 -0.2782 -0.0751
 1118YOPC   C3A14555  10.398  17.240   7.275  0.0679  0.3935  0.0391
 1118YOPC   C4A14556  10.370  16.983   7.695  0.1793 -0.0395 -0.0506
 1118YOPC   C1B14557   9.894  17.626   6.374  0.3823 -0.0350 -0.0073
 1118YOPC   C2B14558   9.518  17.590   6.608 -0.1035  0.2833  0.2930
 1118YOPC   D3B14559   9.555  17.784   7.036  0.0815  0.0658 -0.3465
 1118YOPC   C4B14560   9.913  17.734   7.287  0.1311  0.4012  0.3657
 1119YOPC   NC314561   6.497   5.367   5.572  0.1534 -0.2553  0.0757
 1119YOPC   PO414562   6.855   5.092   5.524 -0.0560  0.0644 -0.1060
 1119YOPC   GL114563   6.873   4.964   6.022 -0.1774  0.1985  0.4065
 1119YOPC   GL214564   6.632   5.266   6.030 -0.2314 -0.2595  0.1452
 1119YOPC   C1A14565   7.064   4.714   6.330 -0.3308  0.1851 -0.2007
 1119YOPC   D2A14566   7.209   4.761   6.733 -0.0976 -0.1139 -0.1882
 1119YOPC   C3A14567   7.365   5.173   6.832 -0.0469  0.1074 -0.1964
 1119YOPC   C4A14568   7.211   5.543   7.128 -0.2807  0.2785  0.0971
 1119YOPC   C1B14569   6.496   5.411   6.393 -0.2480 -0.3854  0.0685
 1119YOPC   C2B14570   6.570   5.672   6.712  0.0513  0.0280 -0.0025
 1119YOPC   D3B14571   6.929   5.917   6.966  0.1475  0.1648  0.3091
 1119YOPC   C4B14572   6.929   6.333   7.077  0.1441 -0.0385  0.4270
 1120YOPC   NC314573  12.413  16.322   5.659 -0.3396 -0.0392  0.0392
 1120YOPC   PO414574  11.915  16.380   5.731 -0.1559  0.0232 -0.0241
 1120YOPC   GL114575  12.005  16.602   6.098  0.0990 -0.0662 -0.1368
 1120YOPC   GL214576  11.994  16.857   5.888 -0.3599  0.0623 -0.1005
 1120YOPC   C1A14577  12.093  16.727   6.468 -0.2347  0.1332  0.0247
 1120YOPC   D2A14578  12.139  16.871   6.843 -0.3159  0.0404 -0.1320
 1120YOPC   C3A14579  12.278  16.778   7.277  0.5398  0.1279  0.0184
 1120YOPC   C4A14580  12.538  16.931   7.622 -0.1910  0.2041  0.4320
 1120YOPC   C1B14581  12.348  17.077   6.214 -0.0938 -0.0520  0.0265
 1120YOPC   C2B14582  12.474  17.243   6.590 -0.1309 -0.0268 -0.0169
 1120YOPC   D3B14583  12.399  17.245   7.047  0.2576 -0.0443  0.0550
 1120YOPC   C4B14584  12.302  17.238   7.361 -0.1427  0.0258 -0.0145
 1121YOPC   NC314585   0.942   5.987   5.466 -0.0385  0.0380 -0.0781
 1121YOPC   PO414586   0.762   5.680   5.220  0.1642 -0.0293 -0.0965
 1121YOPC   GL114587   1.101   5.444   5.465  0.1566 -0.1818 -0.2991
 1121YOPC   GL214588   1.312   5.628   5.621 -0.0978 -0.0171 -0.0020
 1121YOPC   C1A14589   1.131   5.173   5.737  0.1082 -0.0068 -0.1028
 1121YOPC   D2A14590   1.101   4.959   5.950  0.1463  0.0579  0.3045
 1121YOPC   C3A14591   1.028   4.973   6.365 -0.0526 -0.0668  0.1167
 1121YOPC   C4A14592   1.164   5.280   6.797  0.0306  0.0759  0.2012
 1121YOPC   C1B14593   1.640   5.488   5.810 -0.0672  0.1264  0.0980
 1121YOPC   C2B14594   2.053   5.805   5.876 -0.2705  0.0758 -0.2277
 1121YOPC   D3B14595   2.025   6.173   6.243 -0.2745 -0.1838  0.0303
 1121YOPC   C4B14596   2.195   6.056   6.658  0.2509 -0.2628 -0.0788
 1122YOPC   NC314597   5.280   9.339   5.274  0.1078  0.0545 -0.0753
 1122YOPC   PO414598   5.181   8.957   5.401  0.0837  0.0643  0.0755
 1122YOPC   GL114599   5.191   9.009   5.857  0.2937 -0.1210  0.1276
 1122YOPC   GL214600   5.486   8.951   5.935 -0.3086  0.0332  0.0714
 1122YOPC   C1A14601   5.005   9.100   6.340 -0.2830 -0.3889 -0.2751
 1122YOPC   D2A14602   5.178   9.189   6.670  0.0870  0.3642  0.1178
 1122YOPC   C3A14603   5.164   9.417   7.019 -0.0841 -0.0535 -0.0835
 1122YOPC   C4A14604   5.279   9.676   7.388 -0.0726  0.0823  0.3405
 1122YOPC   C1B14605   5.450   9.316   6.209 -0.1568 -0.0181  0.0989
 1122YOPC   C2B14606   5.717   9.724   6.214  0.0848  0.1361  0.1332
 1122YOPC   D3B14607   5.418  10.130   6.281 -0.0489  0.0360 -0.4186
 1122YOPC   C4B14608   5.101  10.274   6.458 -0.2359 -0.0616  0.1055
 1123YOPC   NC314609   1.582   6.548   5.038  0.1897  0.0990 -0.3858
 1123YOPC   PO414610   1.263   6.322   5.183  0.0522  0.0570  0.2424
 1123YOPC   GL114611   1.352   6.417   5.558  0.2522 -0.0031 -0.2477
 1123YOPC   GL214612   1.187   6.393   5.760  0.0189  0.1721  0.0923
 1123YOPC   C1A14613   1.501   6.808   5.964  0.0077 -0.1116  0.0874
 1123YOPC   D2A14614   1.496   7.181   6.336  0.1577 -0.0191  0.3309
 1123YOPC   C3A14615   1.654   7.627   6.563  0.1786 -0.2453  0.1594
 1123YOPC   C4A14616   1.645   7.846   6.953 -0.2706 -0.1131 -0.2537
 1123YOPC   C1B14617   0.948   6.293   6.123  0.2255 -0.2765 -0.0889
 1123YOPC   C2B14618   0.855   6.307   6.480 -0.1139 -0.3567 -0.2077
 1123YOPC   D3B14619   0.911   6.180   6.888  0.3253 -0.1898  0.0373
 1123YOPC   C4B14620   1.001   5.844   7.232  0.0296 -0.2387 -0.3747
 1124YOPC   NC314621  12.766   5.889   5.358  0.0355 -0.0955  0.1189
 1124YOPC   PO414622  12.908   6.196   5.392  0.4212  0.0287  0.1176
 1124YOPC   GL114623  12.946   6.017   5.857  0.1250  0.0305 -0.1272
 1124YOPC   GL214624  13.184   5.767   5.940  0.0222  0.0867 -0.0858
 1124YOPC   C1A14625  12.954   5.945   6.389 -0.1023  0.2399  0.0850
 1124YOPC   D2A14626  12.909   5.640   6.665  0.0249  0.0462  0.1619
 1124YOPC   C3A14627  12.848   5.592   7.007 -0.1759 -0.1825 -0.2194
 1124YOPC   C4A14628  12.755   5.810   7.310  0.0025 -0.0694 -0.1683
 1124YOPC   C1B14629  13.315   5.636   6.357 -0.0328 -0.0412 -0.1247
 1124YOPC   C2B14630  13.332   5.430   6.833  0.1653  0.0858  0.1060
 1124YOPC   D3B14631  13.107   5.165   7.107 -0.0118  0.2565  0.0054
 1124YOPC   C4B14632  12.892   4.940   7.291 -0.1165  0.2454  0.3632
 1125YOPC   NC314633   2.928  13.604   5.309 -0.0778 -0.0734  0.0143
 1125YOPC   PO414634   2.844  13.547   5.687 -0.3551  0.0502 -0.0298
 1125YOPC   GL114635   2.906  13.543   6.023 -0.4038  0.0405  0.0156
 1125YOPC   GL214636   2.512  13.466   6.074 -0.0463 -0.0250  0.0409
 1125YOPC   C1A14637   3.247  13.677   6.325  0.3993 -0.2387 -0.0136
 1125YOPC   D2A14638   3.474  13.526   6.764  0.0872 -0.2158  0.2116
 1125YOPC   C3A14639   3.613  13.795   7.110 -0.1386  0.2388  0.2911
 1125YOPC   C4A14640   3.579  14.228   7.184  0.1939  0.0183 -0.3851
 1125YOPC   C1B14641   2.560  13.509   6.459  0.0834 -0.0762 -0.1887
 1125YOPC   C2B14642   2.301  13.455   6.859  0.1318 -0.0343  0.0246
 1125YOPC   D3B14643   2.547  13.520   7.213  0.1783 -0.0895  0.1649
 1125YOPC   C4B14644   2.866  13.668   7.500  0.1652  0.0799 -0.0561
 1126YOPC   NC314645  17.697   9.827   5.421  0.1681  0.1384 -0.1448
 1126YOPC   PO414646  17.399   9.461   5.441 -0.1837  0.3045  0.0444
 1126YOPC   GL114647  17.329   9.637   5.731 -0.1863 -0.2802 -0.2278
 1126YOPC   GL214648  17.651   9.691   5.895 -0.2117 -0.0314  0.0572
 1126YOPC   C1A14649  17.240   9.917   6.086  0.0018  0.1711  0.3721
 1126YOPC   D2A14650  17.166   9.897   6.510 -0.2124 -0.1254  0.1382
 1126YOPC   C3A14651  16.935   9.712   6.765  0.2353 -0.0884  0.2732
 1126YOPC   C4A14652  17.080   9.729   7.161 -0.0179 -0.4828 -0.1229
 1126YOPC   C1B14653  17.488   9.524   6.292  0.0089  0.3156 -0.2756
 1126YOPC   C2B14654  17.214   9.262   6.544 -0.1481  0.2616 -0.1059
 1126YOPC   D3B14655  17.004   9.207   7.034 -0.4094 -0.1285  0.0939
 1126YOPC   C4B14656  16.735   9.401   7.399  0.0887  0.1022  0.0087
 1127YOPC   NC314657   8.559  13.189   5.942 -0.0011 -0.2972 -0.3920
 1127YOPC   PO414658   8.591  12.793   5.883 -0.0055  0.2468 -0.3283
 1127YOPC   GL114659   8.752  12.827   6.293 -0.0978 -0.2324 -0.1891
 1127YOPC   GL214660   9.102  12.601   6.396  0.3174  0.0263  0.0346
 1127YOPC   C1A14661   8.797  12.881   6.750 -0.1820 -0.0290 -0.1531
 1127YOPC   D2A14662   8.896  12.852   7.125  0.0380  0.4930  0.3488
 1127YOPC   C3A14663   8.643  12.801   7.494 -0.0263  0.2748 -0.0416
 1127YOPC   C4A14664   8.634  13.162   7.905  0.3934  0.0950  0.0082
 1127YOPC   C1B14665   9.314  12.949   6.463  0.3689 -0.2461  0.1631
 1127YOPC   C2B14666   9.398  13.157   6.847 -0.0456  0.0560  0.1339
 1127YOPC   D3B14667   9.186  13.237   7.225  0.0781  0.1593 -0.1742
 1127YOPC   C4B14668   9.031  13.234   7.628 -0.0550 -0.2643  0.2018
 1128YOPC   NC314669  17.532   4.177   5.331  0.3469  0.0832 -0.0833
 1128YOPC   PO414670  17.678   4.568   5.365  0.0809  0.3763 -0.1250
 1128YOPC   GL114671  17.748   4.642   5.819 -0.1025 -0.1768 -0.1873
 1128YOPC   GL214672  18.010   4.492   5.986 -0.2399  0.4107  0.2970
 1128YOPC   C1A14673  17.682   4.721   6.304  0.2459 -0.1057  0.1314
 1128YOPC   D2A14674  17.780   4.853   6.805 -0.0615  0.0351 -0.1301
 1128YOPC   C3A14675  17.683   5.228   7.120  0.2012  0.0434  0.1361
 1128YOPC   C4A14676  17.435   5.491   7.359  0.1834  0.1054 -0.3105
 1128YOPC   C1B14677  18.157   4.604   6.431  0.0111  0.0606  0.0076
 1128YOPC   C2B14678  18.257   4.736   6.872  0.0894  0.2598 -0.0794
 1128YOPC   D3B14679  18.386   4.534   7.268 -0.1613  0.1324 -0.2588
 1128YOPC   C4B14680  18.313   4.503   7.686 -0.0490 -0.1456  0.1244
 1129YOPC   NC314681  11.572  13.170   6.137  0.3760 -0.1706  0.1504
 1129YOPC   PO414682  11.385  12.720   6.272  0.0711  0.2368 -0.0626
 1129YOPC   GL114683  11.615  12.968   6.608  0.0563  0.0335  0.1374
 1129YOPC   GL214684  11.909  12.981   6.768  0.3422 -0.0539 -0.1481
 1129YOPC   C1A14685  11.557  13.209   7.017  0.2384  0.1652 -0.3659
 1129YOPC   D2A14686  11.450  13.345   7.409 -0.2736 -0.1508  0.0385
 1129YOPC   C3A14687  11.716  13.118   7.776  0.1802  0.1414 -0.0650
 1129YOPC   C4A14688  12.021  13.070   8.184  0.2759  0.2694  0.1494
 1129YOPC   C1B14689  12.055  12.916   7.127 -0.0394 -0.1159 -0.2136
 1129YOPC   C2B14690  12.454  12.801   7.347  0.2126  0.0561  0.0864
 1129YOPC   D3B14691  12.699  13.069   7.618  0.2394  0.1145 -0.0689
 1129YOPC   C4B14692  12.919  13.255   7.957 -0.2049 -0.0131 -0.2749
 1130YOPC   NC314693  16.104   0.265   6.237 -0.1294 -0.0607  0.1609
 1130YOPC   PO414694  16.283   0.521   6.021  0.0761 -0.4058 -0.0927
 1130YOPC   GL114695  16.414   0.455   6.534 -0.2185 -0.0454  0.0080
 1130YOPC   GL214696  16.741   0.385   6.447  0.1576 -0.0998 -0.0545
 1130YOPC   C1A14697  16.340   0.640   6.885  0.1247  0.0657 -0.1599
 1130YOPC   D2A14698  16.186   1.078   6.957 -0.1573 -0.1161  0.5880
 1130YOPC   C3A14699  15.813   1.113   7.266  0.4382 -0.0570  0.5449
 1130YOPC   C4A14700  15.631   0.865   7.558 -0.0147  0.0670  0.4044
 1130YOPC   C1B14701  16.898   0.524   6.858 -0.3107  0.2688  0.1185
 1130YOPC   C2B14702  17.091   0.620   7.186  0.1624 -0.2339  0.1351
 1130YOPC   D3B14703  17.116   0.615   7.701 -0.1187  0.2268  0.1606
 1130YOPC   C4B14704  17.142   0.719   8.161 -0.0565  0.0504  0.1161
 1131YOPC   NC314705   1.886   0.840   5.509  0.2048 -0.0358 -0.0162
 1131YOPC   PO414706   1.476   0.604   5.639 -0.0680 -0.2760  0.0941
 1131YOPC   GL114707   1.853   0.484   5.887 -0.1083 -0.1286 -0.0455
 1131YOPC   GL214708   1.671   0.125   5.962 -0.0637  0.1506  0.1849
 1131YOPC   C1A14709   1.862   0.606   6.371  0.0669 -0.1305 -0.3201
 1131YOPC   D2A14710   1.895   0.518   6.855  0.0565  0.4772  0.1858
 1131YOPC   C3A14711   1.970   0.392   7.213  0.2054 -0.0668 -0.0659
 1131YOPC   C4A14712   2.292   0.075   7.151 -0.1465  0.0605  0.1359
 1131YOPC   C1B14713   1.691   0.100   6.382 -0.0242 -0.3740  0.0522
 1131YOPC   C2B14714   1.862  -0.003   6.781 -0.3572 -0.0584 -0.0253
 1131YOPC   D3B14715   1.867  -0.255   7.099  0.0655 -0.1569 -0.0391
 1131YOPC   C4B14716   2.080  -0.401   7.456  0.2940 -0.0803 -0.2302
 1132YOPC   NC314717  16.218   2.201   5.543 -0.1710 -0.1274  0.3622
 1132YOPC   PO414718  16.035   2.570   5.652 -0.1286  0.0145 -0.3297
 1132YOPC   GL114719  15.974   2.547   6.074  0.0470 -0.1215  0.0040
 1132YOPC   GL214720  16.281   2.437   6.125  0.1600  0.1175  0.3897
 1132YOPC   C1A14721  15.634   2.718   6.310  0.1526 -0.1139  0.1373
 1132YOPC   D2A14722  15.688   2.794   6.770 -0.1546  0.1437  0.4080
 1132YOPC   C3A14723  15.818   2.475   7.107  0.0926  0.0327 -0.2316
 1132YOPC   C4A14724  15.878   2.463   7.550  0.0584  0.2741 -0.0063
 1132YOPC   C1B14725  16.188   2.567   6.505 -0.0930  0.0447  0.0152
 1132YOPC   C2B14726  16.210   2.460   6.839  0.0306 -0.1367 -0.3382
 1132YOPC   D3B14727  16.309   2.605   7.164 -0.0209 -0.0179 -0.0958
 1132YOPC   C4B14728  16.246   2.826   7.588 -0.0347 -0.1949 -0.1471
 1133YOPC   NC314729  18.413  16.737   6.015 -0.0623 -0.0155  0.2718
 1133YOPC   PO414730  18.267  16.982   6.352 -0.1419  0.2306  0.1198
 1133YOPC   GL114731  18.143  16.812   6.681  0.2876  0.1885  0.3439
 1133YOPC   GL214732  17.856  16.804   6.814 -0.0026 -0.1819  0.3321
 1133YOPC   C1A14733  18.263  16.647   7.087 -0.0113 -0.1371  0.1219
 1133YOPC   D2A14734  18.507  16.335   7.305  0.0671 -0.0818 -0.0241
 1133YOPC   C3A14735  18.429  16.453   7.752  0.2151  0.1290  0.1798
 1133YOPC   C4A14736  18.167  16.324   8.078 -0.2068  0.0430  0.2771
 1133YOPC   C1B14737  17.810  16.585   7.155 -0.3466  0.0041  0.1704
 1133YOPC   C2B14738  17.982  16.397   7.546  0.2015 -0.0418  0.0368
 1133YOPC   D3B14739  18.303  16.010   7.642 -0.0444 -0.6263  0.2946
 1133YOPC   C4B14740  18.628  15.651   7.705 -0.0387  0.1387  0.1052
 1134YOPC   NC314741   8.191  15.943   5.317 -0.0628 -0.3938  0.4260
 1134YOPC   PO414742   7.796  15.738   5.388  0.2631 -0.2475  0.2193
 1134YOPC   GL114743   7.385  15.652   5.647  0.4004 -0.0234  0.0452
 1134YOPC   GL214744   7.285  15.859   5.965  0.0102 -0.0701  0.0494
 1134YOPC   C1A14745   7.148  15.285   5.870 -0.0582 -0.3369  0.0268
 1134YOPC   D2A14746   6.727  15.193   5.957 -0.0177  0.0044  0.1839
 1134YOPC   C3A14747   6.526  15.288   6.311 -0.1115 -0.0676  0.1584
 1134YOPC   C4A14748   6.472  15.693   6.537 -0.3264 -0.0637  0.0600
 1134YOPC   C1B14749   7.070  15.598   6.262 -0.5307  0.0538 -0.1549
 1134YOPC   C2B14750   7.037  15.719   6.656  0.1286  0.0129 -0.1238
 1134YOPC   D3B14751   6.815  15.703   6.944 -0.1956  0.2439  0.0994
 1134YOPC   C4B14752   6.369  15.550   7.073 -0.0109  0.0879  0.0262
 1135YOPC   NC314753   0.106  18.150   5.891  0.1415  0.1170  0.0451
 1135YOPC   PO414754  -0.340  17.948   6.009  0.4362 -0.2196 -0.1030
 1135YOPC   GL114755  -0.416  17.968   6.387  0.2128  0.1051 -0.1104
 1135YOPC   GL214756  -0.606  17.768   6.607 -0.2926  0.0099 -0.5242
 1135YOPC   C1A14757  -0.263  18.201   6.636 -0.2145  0.0426  0.0068
 1135YOPC   D2A14758   0.146  18.382   6.592 -0.1758 -0.3117  0.3034
 1135YOPC   C3A14759   0.100  18.569   6.903 -0.1476  0.1901  0.2721
 1135YOPC   C4A14760  -0.005  18.639   7.308 -0.3023  0.4005 -0.0327
 1135YOPC   C1B14761  -0.473  17.734   7.052 -0.0301 -0.0217 -0.3552
 1135YOPC   C2B14762  -0.452  17.866   7.515 -0.2065  0.1515  0.1183
 1135YOPC   D3B14763  -0.178  17.973   7.958  0.0235  0.0226  0.1148
 1135YOPC   C4B14764  -0.198  17.982   8.340 -0.1690 -0.1638  0.1573
 1136YOPC   NC314765   6.674   8.617   5.976 -0.1435  0.1692 -0.2623
 1136YOPC   PO414766   7.066   8.462   5.989 -0.0325 -0.1226  0.1656
 1136YOPC   GL114767   7.031   8.483   6.419  0.1374 -0.0115  0.2633
 1136YOPC   GL214768   7.155   8.668   6.513 -0.2900  0.0730  0.2052
 1136YOPC   C1A14769   6.825   8.225   6.655  0.1807 -0.1036 -0.3864
 1136YOPC   D2A14770   6.902   7.877   6.981 -0.0578  0.0071  0.2667
 1136YOPC   C3A14771   6.708   8.200   7.189  0.0624 -0.1204  0.0438
 1136YOPC   C4A14772   6.618   8.432   7.581 -0.2785  0.1763  0.0722
 1136YOPC   C1B14773   7.265   8.426   6.919  0.0969  0.1318  0.1540
 1136YOPC   C2B14774   7.147   8.308   7.326  0.2230 -0.1753  0.1921
 1136YOPC   D3B14775   7.150   8.146   7.814  0.0939  0.1318  0.0458
 1136YOPC   C4B14776   6.976   8.300   8.203  0.0234  0.2995  0.3340
 1137YOPC   NC314777  17.126  14.529   6.130  0.1971 -0.1888 -0.0116
 1137YOPC   PO414778  17.032  14.075   6.220  0.2953  0.1053  0.0032
 1137YOPC   GL114779  17.050  13.956   6.667  0.1004 -0.4079  0.0098
 1137YOPC   GL214780  16.808  13.942   6.719 -0.2150  0.0998 -0.2452
 1137YOPC   C1A14781  17.257  13.679   6.955  0.0346 -0.1333  0.0587
 1137YOPC   D2A14782  17.514  13.386   7.197 -0.2776 -0.3091 -0.2038
 1137YOPC   C3A14783  17.720  13.254   7.539  0.2179  0.0777  0.1763
 1137YOPC   C4A14784  17.938  13.000   7.787 -0.0306 -0.1312  0.0495
 1137YOPC   C1B14785  16.559  14.256   6.938 -0.1323  0.1181 -0.0439
 1137YOPC   C2B14786  16.468  14.281   7.410 -0.3464 -0.0030 -0.3676
 1137YOPC   D3B14787  16.441  14.591   7.678 -0.2954  0.2588  0.0887
 1137YOPC   C4B14788  16.182  14.703   8.119  0.1256  0.1271 -0.1526
 1138YOPC   NC314789  13.782   5.580   5.382  0.0978 -0.1799 -0.1111
 1138YOPC   PO414790  13.485   5.780   5.426 -0.1491 -0.1030  0.0925
 1138YOPC   GL114791  13.723   5.852   5.855 -0.2631  0.0834 -0.3142
 1138YOPC   GL214792  14.006   5.568   5.923  0.1436 -0.2840  0.0027
 1138YOPC   C1A14793  13.811   5.956   6.331  0.1219  0.0338  0.2639
 1138YOPC   D2A14794  13.793   6.241   6.604  0.1698 -0.2150 -0.0434
 1138YOPC   C3A14795  13.784   6.665   6.880  0.1392 -0.4192 -0.1322
 1138YOPC   C4A14796  13.878   7.176   6.981 -0.2731  0.0284  0.4327
 1138YOPC   C1B14797  13.824   5.467   6.229 -0.2794  0.0070  0.2001
 1138YOPC   C2B14798  13.833   5.400   6.649  0.3749 -0.1111 -0.3913
 1138YOPC   D3B14799  13.698   5.809   6.907  0.2421 -0.0261 -0.3346
 1138YOPC   C4B14800  13.574   6.213   7.147 -0.3837  0.0086  0.1823
 1139YOPC   NC314801  16.157   8.403   5.082  0.2540 -0.0845  0.0949
 1139YOPC   PO414802  16.539   8.645   5.242  0.0518 -0.0515  0.0697
 1139YOPC   GL114803  16.191   8.699   5.530  0.0240  0.1847 -0.0964
 1139YOPC   GL214804  16.117   8.916   5.811  0.0138 -0.1743 -0.2167
 1139YOPC   C1A14805  15.927   8.484   5.829 -0.0408 -0.0055  0.0120
 1139YOPC   D2A14806  15.695   8.667   6.153 -0.0427  0.0201 -0.2508
 1139YOPC   C3A14807  15.794   8.778   6.516  0.4978  0.3541  0.1752
 1139YOPC   C4A14808  15.994   9.141   6.844 -0.1448  0.0158  0.0356
 1139YOPC   C1B14809  16.158   8.907   6.227  0.0170 -0.1133  0.0570
 1139YOPC   C2B14810  16.316   8.669   6.563 -0.1935 -0.0070  0.0256
 1139YOPC   D3B14811  16.177   8.697   6.988 -0.1445  0.0753 -0.2362
 1139YOPC   C4B14812  16.102   8.528   7.366 -0.0832 -0.1334  0.5031
 1140YOPC   NC314813  15.076   9.251   5.175  0.3147 -0.0755  0.0503
 1140YOPC   PO414814  15.568   9.239   4.948  0.1576  0.1803  0.0198
 1140YOPC   GL114815  15.475   8.920   5.202  0.1231 -0.0595 -0.0067
 1140YOPC   GL214816  15.257   8.863   5.430  0.1565 -0.2118 -0.0622
 1140YOPC   C1A14817  15.676   8.913   5.676 -0.0665 -0.1393  0.0810
 1140YOPC   D2A14818  15.739   9.129   6.088 -0.0930 -0.1011  0.0314
 1140YOPC   C3A14819  16.147   9.395   6.071  0.0197 -0.1443 -0.2386
 1140YOPC   C4A14820  16.303   9.685   6.251  0.0714  0.2477  0.4178
 1140YOPC   C1B14821  15.311   8.669   5.845  0.0210  0.3371 -0.1039
 1140YOPC   C2B14822  15.215   8.458   6.265 -0.1999  0.0837 -0.0885
 1140YOPC   D3B14823  15.365   8.556   6.656 -0.0813 -0.0968 -0.0665
 1140YOPC   C4B14824  15.719   8.457   6.909  0.0517  0.1455 -0.1659
 1141YOPC   NC314825   2.658   8.032   4.837  0.0815 -0.0116 -0.2114
 1141YOPC   PO414826   2.627   7.688   5.119  0.0849 -0.0882 -0.2148
 1141YOPC   GL114827   2.384   7.593   5.551  0.0178  0.1085  0.4364
 1141YOPC   GL214828   2.087   7.636   5.650 -0.1783  0.0792  0.1617
 1141YOPC   C1A14829   2.292   7.364   5.997  0.0152  0.0425 -0.0891
 1141YOPC   D2A14830   2.093   7.273   6.381 -0.2702  0.0090  0.0953
 1141YOPC   C3A14831   2.299   7.200   6.812 -0.1547  0.0539  0.0818
 1141YOPC   C4A14832   2.487   7.447   7.180 -0.2789  0.2681  0.2365
 1141YOPC   C1B14833   1.647   7.501   5.797 -0.3565  0.0486 -0.3746
 1141YOPC   C2B14834   1.348   7.687   6.105  0.0053 -0.1165  0.0960
 1141YOPC   D3B14835   1.563   8.073   6.360  0.0277  0.0901  0.1513
 1141YOPC   C4B14836   1.565   8.311   6.656 -0.1480  0.2646 -0.0408
 1142YOPC   NC314837   6.242  10.942   5.653 -0.1505 -0.2270 -0.0688
 1142YOPC   PO414838   6.025  10.553   5.871 -0.1113  0.2732  0.1510
 1142YOPC   GL114839   6.109  10.453   6.307  0.0902  0.0217  0.0464
 1142YOPC   GL214840   6.370  10.369   6.515 -0.0034 -0.0883 -0.2391
 1142YOPC   C1A14841   5.807  10.253   6.627  0.1834 -0.0201  0.2563
 1142YOPC   D2A14842   5.572   9.840   6.738 -0.2093 -0.3485  0.1812
 1142YOPC   C3A14843   5.241   9.666   6.598 -0.2970  0.0114  0.3261
 1142YOPC   C4A14844   5.130   9.689   6.268  0.2223  0.0637 -0.2902
 1142YOPC   C1B14845   6.191  10.279   7.017  0.1350  0.0200 -0.1328
 1142YOPC   C2B14846   6.302  10.340   7.455 -0.4719  0.2060 -0.0969
 1142YOPC   D3B14847   6.422  10.733   7.652  0.1348  0.2447 -0.0408
 1142YOPC   C4B14848   6.568  11.117   7.711 -0.0296 -0.0920  0.5050
 1143YOPC   NC314849  11.302   2.408   5.653  0.2385  0.1289  0.1785
 1143YOPC   PO414850  11.588   2.764   5.640  0.0982 -0.0681 -0.2248
 1143YOPC   GL114851  11.725   2.518   6.056  0.1126 -0.0440  0.0326
 1143YOPC   GL214852  11.476   2.250   6.153 -0.0366 -0.1083 -0.0504
 1143YOPC   C1A14853  11.729   2.533   6.463  0.0349  0.0632 -0.1088
 1143YOPC   D2A14854  11.701   2.454   6.798  0.0372 -0.1799 -0.0584
 1143YOPC   C3A14855  11.834   2.122   7.030  0.0444 -0.1971  0.3193
 1143YOPC   C4A14856  12.213   1.978   7.102 -0.0897 -0.1679 -0.0226
 1143YOPC   C1B14857  11.265   2.577   6.458  0.2717  0.2320 -0.0433
 1143YOPC   C2B14858  11.071   2.461   6.813  0.0375 -0.0926 -0.1701
 1143YOPC   D3B14859  11.165   2.655   7.144  0.1280 -0.1894  0.0763
 1143YOPC   C4B14860  11.162   2.873   7.459 -0.0545 -0.1519  0.2859
 1144ERGO   ROH14861  14.447   2.083   6.477  0.2906  0.2650 -0.1901
 1144ERGO    R114862  14.460   2.091   6.760  0.1926  0.0945 -0.1796
 1144ERGO    R214863  14.695   2.139   6.896  0.1248  0.1148 -0.0735
 1144ERGO    R314864  14.549   2.337   7.013 -0.0013 -0.0222  0.0066
 1144ERGO    R414865  14.685   2.203   7.236  0.2359  0.0872 -0.0644
 1144ERGO    R514866  14.471   2.240   7.218  0.1880 -0.1079  0.0428
 1144ERGO    C114867  14.543   2.426   7.543  0.1820 -0.0575  0.0162
 1144ERGO    C214868  14.612   2.722   7.768 -0.1808  0.1793 -0.1330
 1145ERGO   ROH14869   0.839   7.630   5.995 -0.2080 -0.1825 -0.2139
 1145ERGO    R114870   0.832   7.515   6.254 -0.1103 -0.1555 -0.1988
 1145ERGO    R214871   1.050   7.385   6.365 -0.0212 -0.0205 -0.2100
 1145ERGO    R314872   1.010   7.561   6.568 -0.0950 -0.0166 -0.2273
 1145ERGO    R414873   1.209   7.372   6.671 -0.0670  0.0413 -0.1832
 1145ERGO    R514874   1.021   7.426   6.766 -0.0934  0.0016 -0.2165
 1145ERGO    C114875   1.265   7.530   7.040 -0.1629  0.0810 -0.1839
 1145ERGO    C214876   1.499   7.345   7.313 -0.2611 -0.2991  0.0710
 1146ERGO   ROH14877  11.227   5.022   6.379 -0.3940  0.1488 -0.1366
 1146ERGO    R114878  11.301   4.972   6.648 -0.2159  0.0612 -0.2009
 1146ERGO    R214879  11.357   5.175   6.827 -0.0542  0.0020 -0.1822
 1146ERGO    R314880  11.169   5.049   6.978  0.0268 -0.0051 -0.0854
 1146ERGO    R414881  11.417   5.019   7.130  0.0987  0.0334 -0.1956
 1146ERGO    R514882  11.282   4.859   7.069  0.0874  0.0143 -0.1206
 1146ERGO    C114883  11.276   4.810   7.447  0.2638  0.0451 -0.1126
 1146ERGO    C214884  11.315   4.870   7.787 -0.0732 -0.0780  0.0203
 1147ERGO   ROH14885   0.607  10.848   8.776 -0.1171  0.0168 -0.1454
 1147ERGO    R114886   0.703  10.932   8.524 -0.0319 -0.0662 -0.1409
 1147ERGO    R214887   0.927  10.822   8.406 -0.0066 -0.1200 -0.0390
 1147ERGO    R314888   0.757  10.780   8.197  0.0564 -0.1660 -0.0812
 1147ERGO    R414889   1.026  10.736   8.086  0.1085 -0.0171 -0.0317
 1147ERGO    R514890   0.873  10.871   8.008  0.0567 -0.0751 -0.0408
 1147ERGO    C114891   0.925  10.646   7.705  0.2346 -0.0004 -0.0670
 1147ERGO    C214892   1.060  10.469   7.431  0.0443  0.3376 -0.1805
 1148ERGO   ROH14893  16.914  11.432   5.886 -0.0393 -0.2487  0.0199
 1148ERGO    R114894  17.004  11.331   6.134 -0.0530 -0.1079  0.0831
 1148ERGO    R214895  17.266  11.358   6.219 -0.0303 -0.1593  0.0306
 1148ERGO    R314896  17.149  11.469   6.439  0.0444  0.0519 -0.0336
 1148ERGO    R414897  17.398  11.351   6.539 -0.1461 -0.2754  0.0765
 1148ERGO    R514898  17.197  11.315   6.616 -0.2277  0.0184  0.0171
 1148ERGO    C114899  17.365  11.450   6.930 -0.1433 -0.1450  0.0430
 1148ERGO    C214900  17.527  11.482   7.308  0.1003 -0.0123  0.3268
 1149ERGO   ROH14901   9.239  13.806   6.603  0.0210 -0.1185 -0.0380
 1149ERGO    R114902   9.155  13.684   6.845 -0.0771 -0.1672 -0.0964
 1149ERGO    R214903   9.269  13.744   7.089  0.0369 -0.4416 -0.0790
 1149ERGO    R314904   9.011  13.794   7.160  0.1024 -0.1876 -0.0061
 1149ERGO    R414905   9.155  13.769   7.415  0.1307 -0.4433 -0.0451
 1149ERGO    R514906   8.976  13.659   7.355 -0.0036 -0.2269 -0.0517
 1149ERGO    C114907   8.846  13.829   7.671  0.2471 -0.2060  0.0430
 1149ERGO    C214908   8.866  13.665   7.929 -0.0737 -0.0019 -0.0980
 1150ERGO   ROH14909  14.459   0.462   6.698  0.1231  0.2275  0.0926
 1150ERGO    R114910  14.275   0.581   6.877  0.0300  0.0522  0.1166
 1150ERGO    R214911  14.247   0.498   7.139  0.2339  0.1059  0.1600
 1150ERGO    R314912  14.292   0.761   7.193 -0.0855  0.1878  0.0459
 1150ERGO    R414913  14.230   0.641   7.453  0.1663  0.2055  0.1111
 1150ERGO    R514914  14.133   0.814   7.364 -0.0915  0.0474  0.0823
 1150ERGO    C114915  14.262   0.971   7.687 -0.1728  0.3402 -0.0245
 1150ERGO    C214916  14.368   1.230   7.900 -0.0355 -0.1110  0.1982
 1151ERGO   ROH14917  13.036  17.178   6.372  0.0111 -0.2141  0.0185
 1151ERGO    R114918  13.069  17.091   6.640 -0.0346 -0.1398  0.0484
 1151ERGO    R214919  12.875  17.128   6.834 -0.0676 -0.0881  0.0029
 1151ERGO    R314920  12.901  16.859   6.865 -0.0707 -0.0797  0.0845
 1151ERGO    R414921  12.799  16.954   7.122 -0.2488 -0.0197 -0.0020
 1151ERGO    R514922  12.977  16.832   7.090 -0.2169 -0.0180  0.1441
 1151ERGO    C114923  12.779  16.601   7.320 -0.3571  0.0284  0.0717
 1151ERGO    C214924  12.794  16.278   7.526 -0.2652 -0.1962  0.0178
 1152ERGO   ROH14925   3.169  12.638   6.078  0.1503  0.2787  0.1485
 1152ERGO    R114926   3.166  12.736   6.344 -0.0767  0.1395  0.1996
 1152ERGO    R214927   2.975  12.660   6.528 -0.0544 -0.2004  0.0880
 1152ERGO    R314928   3.192  12.594   6.678 -0.0255 -0.0025  0.1363
 1152ERGO    R414929   3.013  12.736   6.863 -0.0630  0.0982  0.0243
 1152ERGO    R514930   3.222  12.782   6.824 -0.0795  0.1329 -0.0244
 1152ERGO    C114931   3.238  12.718   7.199 -0.0410  0.4577  0.0326
 1152ERGO    C214932   3.154  12.975   7.514  0.0406  0.3415 -0.2728
 1153ERGO   ROH14933  12.983   7.888   6.310 -0.2793  0.4400 -0.0073
 1153ERGO    R114934  12.941   7.833   6.584 -0.2041  0.2112 -0.0411
 1153ERGO    R214935  13.149   7.799   6.763 -0.1592  0.1632 -0.1106
 1153ERGO    R314936  13.019   7.993   6.901 -0.2155  0.0005  0.0718
 1153ERGO    R414937  13.181   7.854   7.102  0.0457  0.0272 -0.1047
 1153ERGO    R514938  12.967   7.891   7.111  0.0157 -0.1440  0.0676
 1153ERGO    C114939  13.077   8.069   7.430  0.1121 -0.2047  0.0700
 1153ERGO    C214940  13.009   8.151   7.912  0.2249  0.1312  0.1845
 1154ERGO   ROH14941   1.764   8.632   5.740 -0.1301  0.0530  0.0916
 1154ERGO    R114942   1.894   8.606   5.990 -0.1587 -0.1243  0.0900
 1154ERGO    R214943   1.895   8.807   6.179  0.2104 -0.0758  0.0476
 1154ERGO    R314944   1.797   8.612   6.341 -0.1334  0.1276  0.0938
 1154ERGO    R414945   1.992   8.757   6.507  0.2530 -0.2730  0.0058
 1154ERGO    R514946   1.987   8.542   6.470 -0.2176 -0.2719  0.0109
 1154ERGO    C114947   1.956   8.545   6.850 -0.0449 -0.1970  0.0247
 1154ERGO    C214948   1.996   8.626   7.288 -0.0725  0.0651  0.1130
 1155ERGO   ROH14949   7.202   3.054   8.122 -0.1062  0.1883  0.1478
 1155ERGO    R114950   7.335   3.037   7.872 -0.1806  0.1222  0.1118
 1155ERGO    R214951   7.270   3.198   7.658 -0.1830  0.1298  0.1159
 1155ERGO    R314952   7.535   3.258   7.664 -0.1601  0.0362  0.0408
 1155ERGO    R414953   7.434   3.394   7.425 -0.2056  0.1866  0.1477
 1155ERGO    R514954   7.602   3.255   7.434 -0.2499  0.1253  0.0143
 1155ERGO    C114955   7.779   3.563   7.295 -0.1972  0.1318  0.0956
 1155ERGO    C214956   8.075   3.761   7.277  0.1433 -0.0316 -0.0997
 1156ERGO   ROH14957   6.822   0.858   6.248 -0.1463  0.1107 -0.0553
 1156ERGO    R114958   6.871   0.970   6.504 -0.0436  0.0261 -0.0368
 1156ERGO    R214959   6.669   1.071   6.663  0.0330  0.0867  0.0280
 1156ERGO    R314960   6.772   0.898   6.846 -0.0144 -0.0101 -0.0368
 1156ERGO    R414961   6.649   1.111   7.006  0.1929  0.0449  0.0427
 1156ERGO    R514962   6.854   1.039   7.022  0.1480 -0.0957 -0.0457
 1156ERGO    C114963   6.734   0.972   7.377  0.2416 -0.0703 -0.0096
 1156ERGO    C214964   6.650   0.996   7.635  0.1826 -0.0415  0.0578
 1157ERGO   ROH14965  13.825   7.759   6.334 -0.2540 -0.2520  0.1508
 1157ERGO    R114966  14.001   7.809   6.550  0.0784 -0.0669 -0.1520
 1157ERGO    R214967  14.024   7.638   6.766  0.2024  0.2475  0.0900
 1157ERGO    R314968  14.288   7.644   6.701  0.1298 -0.0882 -0.2706
 1157ERGO    R414969  14.277   7.497   6.954  0.3311  0.4320  0.0589
 1157ERGO    R514970  14.400   7.671   6.911  0.4214  0.2572 -0.4595
 1157ERGO    C114971  14.672   7.419   7.003  0.3378  0.2243 -0.2978
 1157ERGO    C214972  14.688   7.174   7.115 -0.1076  0.2072 -0.2261
 1158ERGO   ROH14973  10.097   8.062   7.304 -0.2073  0.1918 -0.0010
 1158ERGO    R114974  10.080   8.070   7.586 -0.1501  0.1230  0.0032
 1158ERGO    R214975   9.888   7.929   7.728 -0.0103 -0.0454  0.0147
 1158ERGO    R314976  10.104   7.830   7.859  0.0900  0.0884 -0.0431
 1158ERGO    R414977   9.901   7.868   8.067  0.2167  0.2676  0.0683
 1158ERGO    R514978  10.104   7.946   8.069  0.2216  0.2875 -0.1435
 1158ERGO    C114979  10.111   7.739   8.389  0.4431  0.5754  0.0452
 1158ERGO    C214980  10.107   7.639   8.682  0.2306  0.1545 -0.2504
 1159ERGO   ROH14981   5.947  17.084   6.007  0.2242 -0.1804 -0.0582
 1159ERGO    R114982   6.160  17.153   6.181  0.2515 -0.1764 -0.0924
 1159ERGO    R214983   6.127  17.184   6.453  0.2287  0.1241 -0.1216
 1159ERGO    R314984   6.329  17.003   6.466  0.0806 -0.0303  0.0864
 1159ERGO    R414985   6.381  17.189   6.687  0.2473  0.1859 -0.1431
 1159ERGO    R514986   6.520  17.132   6.529  0.1917 -0.1190 -0.0799
 1159ERGO    C114987   6.719  17.021   6.834  0.1191  0.0767  0.0397
 1159ERGO    C214988   6.749  16.695   6.997  0.2677 -0.0442  0.0334
 1160ERGO   ROH14989  15.260   9.154   5.949  0.0639 -0.2766 -0.0497
 1160ERGO    R114990  15.187   9.097   6.216  0.0406 -0.1074 -0.0190
 1160ERGO    R214991  15.365   8.990   6.399 -0.0078 -0.0990  0.0310
 1160ERGO    R314992  15.293   9.205   6.547  0.0960  0.0107 -0.0740
 1160ERGO    R414993  15.462   9.045   6.726 -0.3064 -0.1963  0.1392
 1160ERGO    R514994  15.260   9.117   6.768 -0.2697  0.0677 -0.0975
 1160ERGO    C114995  15.450   9.280   7.056 -0.3828 -0.1498  0.1037
 1160ERGO    C214996  15.744   9.338   7.308  0.1603 -0.3506 -0.0044
 1161ERGO   ROH14997   7.274   9.643   6.501 -0.0822  0.0919  0.0405
 1161ERGO    R114998   7.312   9.799   6.734 -0.0760  0.0134  0.0915
 1161ERGO    R214999   7.102   9.889   6.889 -0.0699 -0.0364  0.1236
 1161ERGO    R315000   7.240   9.766   7.089 -0.0689 -0.1022  0.0834
 1161ERGO    R415001   7.035   9.926   7.227 -0.1005 -0.1756  0.1338
 1161ERGO    R515002   7.250   9.930   7.264 -0.1000 -0.1665  0.1498
 1161ERGO    C115003   7.125   9.832   7.610 -0.1174 -0.3183  0.1019
 1161ERGO    C215004   6.834   9.848   7.919 -0.1609  0.0810  0.2318
 1162ERGO   ROH15005  10.171  14.270   6.601 -0.0876 -0.2000 -0.1098
 1162ERGO    R115006  10.368  14.264   6.804  0.0125 -0.0672 -0.2007
 1162ERGO    R215007  10.308  14.202   7.068  0.1103  0.2775 -0.0923
 1162ERGO    R315008  10.503  14.016   7.033 -0.0115  0.1262  0.0270
 1162ERGO    R415009  10.540  14.110   7.307 -0.1601  0.0338  0.0814
 1162ERGO    R515010  10.691  14.103   7.152 -0.0359 -0.0532  0.2036
 1162ERGO    C115011  10.857  13.882   7.415 -0.4319 -0.2502  0.2946
 1162ERGO    C215012  11.174  13.771   7.438 -0.2714  0.0365 -0.1692
 1163ERGO   ROH15013  15.036  18.389   6.652 -0.1361  0.0708  0.2331
 1163ERGO    R115014  15.218  18.323   6.859 -0.1098 -0.0334  0.1754
 1163ERGO    R215015  15.254  18.483   7.082  0.0265 -0.0741  0.1729
 1163ERGO    R315016  15.198  18.253   7.215 -0.0373 -0.0582  0.1774
 1163ERGO    R415017  15.350  18.413   7.407 -0.1375 -0.0066  0.2383
 1163ERGO    R515018  15.394  18.209   7.345 -0.0940 -0.0237  0.2892
 1163ERGO    C115019  15.353  18.156   7.720 -0.2927  0.0476  0.2806
 1163ERGO    C215020  15.501  18.223   7.944  0.2136 -0.0314  0.0088
 1164ERGO   ROH15021   0.368   6.657   5.769  0.0732  0.0366  0.0664
 1164ERGO    R115022   0.282   6.599   6.033  0.1315 -0.0762  0.0613
 1164ERGO    R215023   0.457   6.537   6.237  0.1947  0.0592  0.0495
 1164ERGO    R315024   0.330   6.741   6.364  0.0088 -0.0713  0.0778
 1164ERGO    R415025   0.509   6.630   6.566  0.2519  0.1796  0.0068
 1164ERGO    R515026   0.295   6.661   6.587  0.2200 -0.0776  0.1107
 1164ERGO    C115027   0.420   6.875   6.876  0.1108  0.1272  0.0086
 1164ERGO    C215028   0.284   7.119   6.966  0.0686  0.3850  0.0318
 1165ERGO   ROH15029   0.091   2.051   6.141  0.0411 -0.0516  0.2496
 1165ERGO    R115030   0.291   2.215   6.255  0.0013 -0.0239  0.2785
 1165ERGO    R215031   0.380   2.183   6.514  0.1569 -0.1874  0.2045
 1165ERGO    R315032   0.624   2.168   6.396  0.1078  0.0614  0.0620
 1165ERGO    R415033   0.677   2.128   6.682  0.2627 -0.2625 -0.0030
 1165ERGO    R515034   0.772   2.275   6.551  0.1354 -0.0589  0.1228
 1165ERGO    C115035   1.079   2.081   6.668  0.2782 -0.0728 -0.2575
 1165ERGO    C215036   1.265   1.737   6.811 -0.1083 -0.0246  0.0239
 1166ERGO   ROH15037   5.237  12.832   5.924 -0.1051  0.0593  0.0494
 1166ERGO    R115038   5.186  12.665   6.146 -0.3064  0.1194  0.0512
 1166ERGO    R215039   5.366  12.636   6.354 -0.2593 -0.2208 -0.0321
 1166ERGO    R315040   5.152  12.707   6.506 -0.0762  0.1449  0.0735
 1166ERGO    R415041   5.307  12.525   6.676 -0.4370 -0.3701 -0.1145
 1166ERGO    R515042   5.095  12.507   6.626 -0.5056  0.1551 -0.0892
 1166ERGO    C115043   5.071  12.527   7.006 -0.3686 -0.1138 -0.0634
 1166ERGO    C215044   5.035  12.423   7.352 -0.2795 -0.3057 -0.1701
 1167ERGO   ROH15045  10.567  17.217   6.050 -0.2342  0.1313 -0.0072
 1167ERGO    R115046  10.717  17.336   6.258 -0.1689  0.0921 -0.0309
 1167ERGO    R215047  10.601  17.489   6.457 -0.1158  0.0053  0.0714
 1167ERGO    R315048  10.729  17.315   6.621 -0.0122 -0.0264 -0.0429
 1167ERGO    R415049  10.671  17.547   6.790  0.2446  0.0053 -0.0007
 1167ERGO    R515050  10.866  17.454   6.760  0.1803 -0.0670 -0.1900
 1167ERGO    C115051  10.833  17.418   7.138  0.5519 -0.0245 -0.1501
 1167ERGO    C215052  10.839  17.435   7.494  0.1729 -0.1223  0.0086
 1168ERGO   ROH15053   2.879   5.828   5.850 -0.0869  0.0015 -0.1327
 1168ERGO    R115054   3.079   5.943   6.015 -0.0977 -0.0576 -0.0775
 1168ERGO    R215055   3.050   6.192   6.132 -0.0412 -0.0312 -0.1145
 1168ERGO    R315056   3.104   6.055   6.360 -0.1738 -0.0298 -0.0816
 1168ERGO    R415057   3.206   6.325   6.410 -0.0957 -0.0681 -0.0660
 1168ERGO    R515058   3.317   6.139   6.431 -0.1715 -0.1030 -0.0084
 1168ERGO    C115059   3.348   6.274   6.786 -0.2519 -0.0881 -0.0069
 1168ERGO    C215060   3.589   6.309   7.031 -0.3234 -0.1832 -0.0579
 1169ERGO   ROH15061  15.430  15.837   6.323 -0.2115  0.0878  0.0666
 1169ERGO    R115062  15.654  15.849   6.496 -0.1117 -0.0702 -0.0494
 1169ERGO    R215063  15.681  16.042   6.691  0.1714 -0.0277 -0.1243
 1169ERGO    R315064  15.714  15.826   6.854  0.0438 -0.0087 -0.0709
 1169ERGO    R415065  15.770  16.059   7.025 -0.0918  0.0063 -0.0529
 1169ERGO    R515066  15.899  15.886   6.994 -0.0669  0.0045  0.0705
 1169ERGO    C115067  15.853  15.866   7.372 -0.3650  0.0439  0.0388
 1169ERGO    C215068  15.842  15.988   7.659 -0.1265 -0.0724  0.3949
 1170ERGO   ROH15069   3.040  11.171   5.914 -0.0363 -0.3052  0.1124
 1170ERGO    R115070   3.043  11.249   6.186  0.1496 -0.2621  0.1004
 1170ERGO    R215071   2.814  11.321   6.323  0.2765  0.0585  0.1650
 1170ERGO    R315072   2.897  11.130   6.497  0.0883 -0.0260  0.1626
 1170ERGO    R415073   2.772  11.334   6.666  0.2876  0.0861  0.1642
 1170ERGO    R515074   2.973  11.252   6.688  0.2047 -0.1082  0.1653
 1170ERGO    C115075   2.827  11.162   7.029  0.1174  0.0228  0.1614
 1170ERGO    C215076   2.580  11.026   7.284 -0.0897  0.0962  0.2338
 1171ERGO   ROH15077   6.335  10.870   6.365 -0.1389  0.0450 -0.1702
 1171ERGO    R115078   6.175  10.922   6.593  0.1524  0.1209  0.0203
 1171ERGO    R215079   5.955  10.768   6.659 -0.0288  0.4219  0.0881
 1171ERGO    R315080   6.083  10.746   6.898  0.1477  0.0235 -0.0319
 1171ERGO    R415081   5.822  10.621   6.942 -0.1714  0.6475  0.1420
 1171ERGO    R515082   5.912  10.780   7.061  0.3486  0.4083  0.1303
 1171ERGO    C115083   5.864  10.515   7.331 -0.0886  0.4048  0.0608
 1171ERGO    C215084   5.918  10.473   7.747  0.0465 -0.1084 -0.1927
 1172ERGO   ROH15085  13.805  15.613   6.002 -0.3350 -0.3838 -0.0187
 1172ERGO    R115086  13.907  15.503   6.242 -0.3430 -0.3098  0.0198
 1172ERGO    R215087  14.040  15.655   6.431 -0.1037 -0.2996 -0.1484
 1172ERGO    R315088  13.853  15.550   6.599 -0.1420  0.0146  0.0113
 1172ERGO    R415089  14.103  15.548   6.753 -0.0383 -0.2739 -0.1533
 1172ERGO    R515090  13.971  15.378   6.718 -0.2991 -0.1075 -0.0083
 1172ERGO    C115091  13.964  15.388   7.099 -0.0363  0.0360 -0.0062
 1172ERGO    C215092  13.992  15.504   7.498 -0.0304  0.4264 -0.0643
 1173ERGO   ROH15093   8.440  15.050   5.794 -0.1173  0.0908 -0.1142
 1173ERGO    R115094   8.289  14.950   6.011  0.0214  0.1194 -0.0043
 1173ERGO    R215095   8.287  15.071   6.260 -0.1872  0.4299 -0.1574
 1173ERGO    R315096   8.018  15.070   6.222 -0.1934 -0.0429 -0.1791
 1173ERGO    R415097   8.055  14.962   6.492 -0.0266  0.5358  0.0581
 1173ERGO    R515098   7.943  14.870   6.329  0.1063  0.0394  0.2202
 1173ERGO    C115099   7.667  14.899   6.591  0.0612  0.1534  0.1632
 1173ERGO    C215100   7.414  14.837   6.634 -0.1302 -0.0899  0.5139
 1174ERGO   ROH15101   3.854  11.712   6.035 -0.2838 -0.1109  0.0622
 1174ERGO    R115102   4.002  11.582   6.238 -0.1588 -0.0120  0.0356
 1174ERGO    R215103   3.983  11.653   6.504 -0.1130  0.0144  0.0324
 1174ERGO    R315104   3.928  11.389   6.538  0.0249 -0.0088  0.0846
 1174ERGO    R415105   3.968  11.492   6.810  0.0358  0.0513  0.0601
 1174ERGO    R515106   4.069  11.321   6.719  0.0997  0.0875  0.0630
 1174ERGO    C115107   3.907  11.150   7.019  0.2518  0.0509  0.1251
 1174ERGO    C215108   3.678  11.064   7.260  0.0842  0.0650 -0.2387
 1175ERGO   ROH15109  12.163   2.845   6.496  0.1695 -0.1394  0.0053
 1175ERGO    R115110  12.152   2.658   6.708  0.1558 -0.1069  0.0340
 1175ERGO    R215111  12.320   2.671   6.927  0.1572 -0.0855  0.0349
 1175ERGO    R315112  12.086   2.668   7.066  0.1554 -0.0466  0.0317
 1175ERGO    R415113  12.288   2.575   7.257  0.1370 -0.0575  0.0407
 1175ERGO    R515114  12.102   2.473   7.205  0.1270 -0.0368  0.0458
 1175ERGO    C115115  12.050   2.516   7.580  0.1238 -0.0046  0.0410
 1175ERGO    C215116  12.192   2.491   7.880  0.0753  0.2871 -0.0244
 1176ERGO   ROH15117  13.918   8.523   6.240  0.0565 -0.0572 -0.0402
 1176ERGO    R115118  13.960   8.300   6.409  0.1574 -0.0471 -0.0499
 1176ERGO    R215119  14.212   8.219   6.489  0.1928  0.1125  0.0161
 1176ERGO    R315120  14.104   8.241   6.737  0.1031  0.0205 -0.0146
 1176ERGO    R415121  14.369   8.122   6.781  0.0497 -0.0699  0.0337
 1176ERGO    R515122  14.178   8.044   6.852  0.0036 -0.0521 -0.0789
 1176ERGO    C115123  14.359   8.086   7.184 -0.1178 -0.2624  0.0152
 1176ERGO    C215124  14.203   8.186   7.410 -0.1159  0.1465 -0.1877
 1177ERGO   ROH15125  10.328  10.780   6.847  0.1356 -0.0047 -0.0495
 1177ERGO    R115126  10.233  10.846   7.105  0.0588 -0.0401 -0.0684
 1177ERGO    R215127   9.992  10.753   7.203  0.0633 -0.1102 -0.1259
 1177ERGO    R315128  10.146  10.666   7.409  0.0398 -0.0740 -0.0932
 1177ERGO    R415129   9.880  10.705   7.527  0.0390  0.0213 -0.1145
 1177ERGO    R515130  10.068  10.790   7.599  0.0568  0.0074 -0.1368
 1177ERGO    C115131   9.961  10.596   7.909  0.0027  0.1319 -0.0771
 1177ERGO    C215132   9.942  10.468   8.241 -0.3863 -0.5274  0.1147
 1178ERGO   ROH15133  18.414  10.314   6.200  0.1326 -0.2966  0.0394
 1178ERGO    R115134  18.378  10.170   6.441 -0.0201 -0.1602  0.0993
 1178ERGO    R215135  18.363  10.294   6.688 -0.0521 -0.0297  0.0319
 1178ERGO    R315136  18.129  10.157   6.706 -0.1223  0.0865  0.0180
 1178ERGO    R415137  18.215  10.193   6.984 -0.0155 -0.1353  0.0148
 1178ERGO    R515138  18.162  10.005   6.888 -0.1489 -0.0473 -0.0880
 1178ERGO    C115139  17.909  10.006   7.173 -0.0602 -0.0876 -0.0082
 1178ERGO    C215140  17.595   9.780   7.319 -0.0080 -0.0531 -0.1760
 1179ERGO   ROH15141  14.959  14.744   6.234  0.3142 -0.0007  0.1925
 1179ERGO    R115142  14.866  14.877   6.466  0.0951  0.0871  0.0573
 1179ERGO    R215143  14.634  14.805   6.596  0.1182 -0.0442  0.0224
 1179ERGO    R315144  14.797  14.788   6.812  0.0539  0.2844  0.1017
 1179ERGO    R415145  14.536  14.697   6.909  0.1702 -0.2295 -0.0238
 1179ERGO    R515146  14.659  14.854   6.996 -0.1741  0.0235  0.0337
 1179ERGO    C115147  14.632  14.618   7.295  0.1401 -0.0290  0.0237
 1179ERGO    C215148  14.570  14.351   7.574  0.2665  0.3799  0.1159
 1180ERGO   ROH15149   8.749   0.988   6.253 -0.0801  0.3227  0.1291
 1180ERGO    R115150   8.636   1.029   6.510 -0.0593  0.1755  0.1618
 1180ERGO    R215151   8.406   0.900   6.594 -0.0230  0.0940  0.1216
 1180ERGO    R315152   8.564   0.826   6.803  0.0085  0.0194  0.0727
 1180ERGO    R415153   8.297   0.854   6.919  0.0287  0.0336  0.1317
 1180ERGO    R515154   8.480   0.950   6.989  0.0607 -0.0089  0.1196
 1180ERGO    C115155   8.382   0.758   7.303  0.0883 -0.0715  0.0916
 1180ERGO    C215156   8.156   0.704   7.562 -0.0431 -0.3878 -0.2657
 1181ERGO   ROH15157   6.372  14.317   5.793 -0.0817  0.1150 -0.1014
 1181ERGO    R115158   6.326  14.241   6.062 -0.1049  0.1666 -0.0910
 1181ERGO    R215159   6.531  14.214   6.246 -0.0959 -0.0150 -0.1255
 1181ERGO    R315160   6.381  14.389   6.390  0.0874  0.1308 -0.1060
 1181ERGO    R415161   6.556  14.261   6.587 -0.0370 -0.0624 -0.1228
 1181ERGO    R515162   6.339  14.274   6.596 -0.0232  0.1600 -0.1131
 1181ERGO    C115163   6.429  14.452   6.922  0.1693  0.0468 -0.1029
 1181ERGO    C215164   6.388  14.462   7.140  0.0537 -0.1147  0.3267
 1182ERGO   ROH15165  12.186   5.506   6.721 -0.4067 -0.0118  0.1802
 1182ERGO    R115166  12.376   5.490   6.930 -0.1531 -0.2225 -0.0563
 1182ERGO    R215167  12.313   5.547   7.193  0.3234  0.2331 -0.0166
 1182ERGO    R315168  12.416   5.299   7.237 -0.2065  0.0213  0.1026
 1182ERGO    R415169  12.465   5.447   7.487  0.5009  0.1899 -0.1226
 1182ERGO    R515170  12.613   5.340   7.368  0.0849 -0.3062 -0.2220
 1182ERGO    C115171  12.650   5.156   7.700  0.1067 -0.0341 -0.0725
 1182ERGO    C215172  12.465   5.088   8.007 -0.1812 -0.2570 -0.0363
 1183ERGO   ROH15173   7.674   0.279   6.170 -0.4905  0.0615  0.0317
 1183ERGO    R115174   7.799   0.095   6.345 -0.2828  0.1139 -0.0589
 1183ERGO    R215175   7.940   0.175   6.569 -0.3972  0.1638 -0.0091
 1183ERGO    R315176   7.771   0.004   6.697 -0.2015 -0.1128 -0.1080
 1183ERGO    R415177   7.933   0.125   6.911 -0.3512 -0.0205 -0.0335
 1183ERGO    R515178   7.904  -0.089   6.873 -0.0908 -0.0448 -0.1493
 1183ERGO    C115179   7.771  -0.064   7.230 -0.1407 -0.3874 -0.1405
 1183ERGO    C215180   7.731  -0.048   7.614  0.3406  0.1806  0.1869
 1184ERGO   ROH15181  15.805   5.265   6.076 -0.1438 -0.1768 -0.1591
 1184ERGO    R115182  15.909   5.411   6.295 -0.1551 -0.1206 -0.1900
 1184ERGO    R215183  15.754   5.581   6.448 -0.2204 -0.2555 -0.0970
 1184ERGO    R315184  15.848   5.429   6.653 -0.0078 -0.2126 -0.1602
 1184ERGO    R415185  15.672   5.626   6.781 -0.2617 -0.4986 -0.0727
 1184ERGO    R515186  15.879   5.585   6.833 -0.2047 -0.2425 -0.1015
 1184ERGO    C115187  15.712   5.510   7.167 -0.0859 -0.5998 -0.1179
 1184ERGO    C215188  15.634   5.537   7.541  0.0288 -0.0526 -0.1359
 1185ERGO   ROH15189   4.950   3.812   5.993 -0.0606  0.0256 -0.0011
 1185ERGO    R115190   4.956   3.705   6.255 -0.2847 -0.0214 -0.0116
 1185ERGO    R215191   5.149   3.774   6.440 -0.1814 -0.3783  0.0304
 1185ERGO    R315192   4.934   3.835   6.595 -0.1075 -0.0189 -0.0020
 1185ERGO    R415193   5.156   3.806   6.784 -0.1749 -0.3270  0.0243
 1185ERGO    R515194   4.964   3.704   6.792 -0.3344 -0.0294  0.0234
 1185ERGO    C115195   4.958   3.882   7.129 -0.1018  0.0403 -0.0095
 1185ERGO    C215196   4.780   3.933   7.462  0.1549  0.0122  0.3444
 1186ERGO   ROH15197   0.938   8.616   5.973 -0.0753  0.0755  0.0035
 1186ERGO    R115198   0.935   8.462   6.211  0.0021  0.0797  0.0073
 1186ERGO    R215199   1.125   8.491   6.409 -0.0480  0.2263  0.0339
 1186ERGO    R315200   0.907   8.529   6.568 -0.1002  0.0705  0.0018
 1186ERGO    R415201   1.134   8.519   6.754 -0.1205  0.2137  0.0373
 1186ERGO    R515202   0.953   8.398   6.763 -0.0418  0.0893  0.0017
 1186ERGO    C115203   0.936   8.570   7.103 -0.2117  0.0600  0.0092
 1186ERGO    C215204   1.089   8.733   7.379 -0.0568 -0.0873  0.1485
 1187ERGO   ROH15205   2.948   5.586   6.210  0.0709  0.0717 -0.0038
 1187ERGO    R115206   2.894   5.707   6.460  0.1208  0.1569 -0.0334
 1187ERGO    R215207   2.951   5.583   6.700 -0.2049  0.0599  0.0013
 1187ERGO    R315208   3.087   5.814   6.749  0.1349 -0.1491  0.0728
 1187ERGO    R415209   2.996   5.722   7.013 -0.4290  0.1529 -0.0063
 1187ERGO    R515210   2.962   5.919   6.925  0.0519  0.1709 -0.1711
 1187ERGO    C115211   3.149   6.019   7.242 -0.2406  0.0110  0.0564
 1187ERGO    C215212   3.314   6.006   7.581 -0.0831 -0.0038  0.2163
 1188ERGO   ROH15213  11.075   8.684   7.383  0.0471 -0.0211 -0.0064
 1188ERGO    R115214  11.246   8.638   7.604  0.0328  0.0938  0.0314
 1188ERGO    R215215  11.227   8.782   7.839 -0.1488  0.0513  0.0539
 1188ERGO    R315216  11.206   8.535   7.951  0.0265  0.0154  0.0051
 1188ERGO    R415217  11.322   8.704   8.162 -0.0735  0.0342  0.0263
 1188ERGO    R515218  11.403   8.516   8.087  0.0432  0.1108 -0.0162
 1188ERGO    C115219  11.359   8.427   8.455  0.1349 -0.0095 -0.0354
 1188ERGO    C215220  11.210   8.422   8.676  0.0611  0.2119  0.2421
 1189ERGO   ROH15221   6.754   8.882   6.430 -0.0786 -0.3406  0.0859
 1189ERGO    R115222   6.703   8.849   6.706 -0.0239 -0.3041  0.1012
 1189ERGO    R215223   6.846   8.673   6.864  0.2589 -0.0171  0.1778
 1189ERGO    R315224   6.887   8.894   7.017 -0.0852  0.1193  0.0816
 1189ERGO    R415225   6.855   8.676   7.210  0.1529  0.1670  0.1796
 1189ERGO    R515226   6.744   8.864   7.206 -0.1023  0.0191  0.0531
 1189ERGO    C115227   6.900   8.886   7.554 -0.2318  0.4022  0.0904
 1189ERGO    C215228   7.044   8.670   7.762 -0.1092 -0.0823  0.0932
 1190ERGO   ROH15229   0.829  13.395   6.105 -0.0689 -0.0097 -0.0342
 1190ERGO    R115230   0.991  13.318   6.324 -0.0722  0.1172  0.0130
 1190ERGO    R215231   0.968  13.434   6.573 -0.1852  0.1510 -0.0155
 1190ERGO    R315232   0.938  13.176   6.655 -0.0625  0.1494  0.0291
 1190ERGO    R415233   1.045  13.318   6.890 -0.2036  0.2640  0.0315
 1190ERGO    R515234   1.127  13.137   6.798 -0.0754  0.2879  0.0896
 1190ERGO    C115235   1.062  13.008   7.151 -0.0992  0.3284  0.1007
 1190ERGO    C215236   1.025  12.899   7.414 -0.4404  0.0058  0.1544
 1191ERGO   ROH15237   0.557  15.747   6.344  0.0812 -0.0557 -0.0799
 1191ERGO    R115238   0.497  15.797   6.616  0.0451 -0.1175 -0.0763
 1191ERGO    R215239   0.644  15.688   6.823  0.1010 -0.0557 -0.0837
 1191ERGO    R315240   0.666  15.948   6.900 -0.0480 -0.0505 -0.0555
 1191ERGO    R415241   0.621  15.800   7.149  0.1471 -0.1214 -0.0580
 1191ERGO    R515242   0.507  15.971   7.078  0.0012 -0.1873  0.0091
 1191ERGO    C115243   0.629  16.109   7.412  0.0341 -0.1547 -0.0166
 1191ERGO    C215244   0.672  16.066   7.691  0.1164 -0.0737 -0.1928
 1192ERGO   ROH15245   0.060  13.994   6.417 -0.0357  0.0450 -0.1392
 1192ERGO    R115246   0.084  14.122   6.668 -0.0829  0.0070 -0.1159
 1192ERGO    R215247  -0.016  14.011   6.901 -0.1070 -0.0381 -0.1497
 1192ERGO    R315248   0.239  14.046   6.989 -0.1228 -0.0296 -0.1048
 1192ERGO    R415249   0.072  14.182   7.189 -0.1587  0.0414 -0.1801
 1192ERGO    R515250   0.240  14.268   7.080 -0.1283 -0.0016 -0.1699
 1192ERGO    C115251   0.363  14.314   7.438 -0.2037  0.0955 -0.1556
 1192ERGO    C215252   0.536  14.237   7.694 -0.1963  0.0581 -0.0596
 1193ERGO   ROH15253   2.047  13.894   6.126 -0.2730 -0.2161  0.1270
 1193ERGO    R115254   2.266  13.877   6.304 -0.1466 -0.1106 -0.0148
 1193ERGO    R215255   2.371  14.098   6.432 -0.1442 -0.0519 -0.1098
 1193ERGO    R315256   2.327  13.949   6.656  0.0564 -0.0438 -0.0636
 1193ERGO    R415257   2.516  14.156   6.741  0.0548  0.0129 -0.2144
 1193ERGO    R515258   2.540  13.941   6.765  0.1332  0.0255 -0.2109
 1193ERGO    C115259   2.559  14.051   7.130  0.3590  0.0584 -0.2318
 1193ERGO    C215260   2.552  14.019   7.416  0.1495 -0.4487  0.0051
 1194ERGO   ROH15261   2.000   9.982   6.047 -0.0738 -0.1123  0.0662
 1194ERGO    R115262   2.021   9.943   6.327  0.0086 -0.1472  0.0555
 1194ERGO    R215263   2.189   9.754   6.439  0.2988  0.0686 -0.0040
 1194ERGO    R315264   2.283   9.968   6.578  0.0006  0.1786  0.0356
 1194ERGO    R415265   2.229   9.764   6.782  0.1788  0.1037  0.0093
 1194ERGO    R515266   2.154   9.969   6.780 -0.0662  0.0167 -0.0049
 1194ERGO    C115267   2.340   9.971   7.113 -0.1709  0.2274  0.0543
 1194ERGO    C215268   2.329  10.003   7.494  0.0034 -0.2659 -0.1387
 1195ERGO   ROH15269   0.594   4.952   5.836 -0.1024 -0.1426  0.0687
 1195ERGO    R115270   0.610   5.069   6.093 -0.0422 -0.0221  0.0106
 1195ERGO    R215271   0.386   5.138   6.240 -0.0080  0.0035  0.0501
 1195ERGO    R315272   0.503   4.984   6.430  0.0804  0.1121  0.0850
 1195ERGO    R415273   0.321   5.159   6.579 -0.0001  0.0624  0.0481
 1195ERGO    R515274   0.534   5.131   6.616  0.0172  0.1784  0.0439
 1195ERGO    C115275   0.393   5.026   6.955  0.0875  0.1987  0.0798
 1195ERGO    C215276   0.378   5.138   7.276  0.3698  0.1859  0.0931
 1196ERGO   ROH15277   8.756   7.518   6.333 -0.0638 -0.2758 -0.0067
 1196ERGO    R115278   8.801   7.561   6.609 -0.0678 -0.2446 -0.0118
 1196ERGO    R215279   8.635   7.720   6.765 -0.0404 -0.1887 -0.0454
 1196ERGO    R315280   8.623   7.497   6.920 -0.0944 -0.1614 -0.0085
 1196ERGO    R415281   8.573   7.717   7.105  0.0144 -0.1099 -0.0339
 1196ERGO    R515282   8.723   7.562   7.127 -0.0352 -0.1620 -0.0343
 1196ERGO    C115283   8.525   7.507   7.448 -0.0045 -0.0383  0.0076
 1196ERGO    C215284   8.298   7.474   7.596 -0.1619  0.1545 -0.0461
 1197ERGO   ROH15285  16.339   4.157   5.978  0.0764  0.0608 -0.1487
 1197ERGO    R115286  16.268   4.073   6.239 -0.1987  0.1827 -0.1827
 1197ERGO    R215287  16.455   3.988   6.424 -0.4425 -0.2002 -0.1196
 1197ERGO    R315288  16.340   4.179   6.579 -0.1283  0.0171 -0.1408
 1197ERGO    R415289  16.464   3.993   6.769 -0.5054 -0.2564 -0.1155
 1197ERGO    R515290  16.256   4.059   6.769 -0.4037  0.1407 -0.1663
 1197ERGO    C115291  16.361   4.175   7.116 -0.2470 -0.0852 -0.1330
 1197ERGO    C215292  16.436   4.350   7.431  0.1233 -0.1056  0.2501
 1198ERGO   ROH15293  15.286   1.086   6.849 -0.3468  0.0640 -0.2415
 1198ERGO    R115294  15.350   1.157   7.115 -0.0290 -0.1839 -0.2457
 1198ERGO    R215295  15.194   1.329   7.266  0.4724  0.1786 -0.1083
 1198ERGO    R315296  15.195   1.123   7.443  0.0337  0.1015 -0.1835
 1198ERGO    R415297  15.121   1.357   7.602  0.5019  0.2008 -0.1038
 1198ERGO    R515298  15.283   1.217   7.644  0.2167 -0.1535 -0.1405
 1198ERGO    C115299  15.080   1.179   7.965  0.1071  0.1415 -0.1718
 1198ERGO    C215300  14.792   1.221   8.167 -0.0506  0.4267 -0.3113
 1199ERGO   ROH15301   4.511   8.051   6.287 -0.0993 -0.3416 -0.1122
 1199ERGO    R115302   4.481   7.831   6.463 -0.0561 -0.2063  0.0673
 1199ERGO    R215303   4.589   7.828   6.717 -0.1164  0.0511  0.0986
 1199ERGO    R315304   4.333   7.772   6.790 -0.1133  0.0132  0.0821
 1199ERGO    R415305   4.498   7.624   6.981 -0.1059  0.0596  0.1092
 1199ERGO    R515306   4.338   7.543   6.857 -0.0807  0.0207  0.1035
 1199ERGO    C115307   4.204   7.454   7.203 -0.0968  0.0289  0.0999
 1199ERGO    C215308   4.115   7.478   7.585 -0.0662  0.0792 -0.0148
 1200ERGO   ROH15309   8.640   9.270   6.560  0.0222 -0.0650  0.0182
 1200ERGO    R115310   8.491   9.168   6.778 -0.0435 -0.0754 -0.0329
 1200ERGO    R215311   8.582   8.961   6.937 -0.0092  0.0440  0.0937
 1200ERGO    R315312   8.536   9.138   7.138 -0.2414  0.0855  0.0093
 1200ERGO    R415313   8.542   8.875   7.269  0.4680  0.1554  0.1891
 1200ERGO    R515314   8.383   9.024   7.283  0.1267 -0.1836  0.2150
 1200ERGO    C115315   8.475   8.991   7.652  0.5280  0.2592  0.1655
 1200ERGO    C215316   8.437   9.166   7.917  0.1029 -0.0137  0.0923
 1201ERGO   ROH15317   6.274  13.163   5.872  0.0283 -0.1739 -0.0464
 1201ERGO    R115318   6.154  13.339   6.058 -0.1783 -0.2271 -0.1250
 1201ERGO    R215319   5.954  13.259   6.231 -0.0928 -0.3833 -0.0919
 1201ERGO    R315320   6.122  13.358   6.420 -0.2050 -0.1076 -0.1342
 1201ERGO    R415321   5.878  13.287   6.567 -0.1862 -0.1529 -0.1316
 1201ERGO    R515322   5.979  13.481   6.568 -0.3217 -0.0823 -0.2692
 1201ERGO    C115323   5.991  13.398   6.940 -0.3459  0.2401 -0.1944
 1201ERGO    C215324   6.006  13.257   7.232  0.0409  0.2678  0.1137
 1202ERGO   ROH15325  17.805   1.848   6.753  0.0830  0.0663 -0.0012
 1202ERGO    R115326  17.978   1.914   6.968  0.0303  0.1559  0.0148
 1202ERGO    R215327  17.894   2.056   7.189 -0.0966  0.0012  0.0698
 1202ERGO    R315328  17.997   1.843   7.324  0.1091  0.0476 -0.0106
 1202ERGO    R415329  17.977   2.057   7.524  0.0114 -0.0146  0.0430
 1202ERGO    R515330  18.155   1.940   7.476  0.0842  0.1318 -0.0402
 1202ERGO    C115331  18.122   1.858   7.847  0.2675  0.0198 -0.0480
 1202ERGO    C215332  17.885   1.840   8.088  0.3283  0.0476  0.2394
 1203ERGO   ROH15333   0.113  17.861   6.322  0.0088  0.0745  0.0953
 1203ERGO    R115334   0.050  17.798   6.591 -0.0738  0.0847  0.0788
 1203ERGO    R215335   0.244  17.767   6.786 -0.1253 -0.0326  0.1130
 1203ERGO    R315336   0.097  17.954   6.916 -0.0523  0.0339  0.0998
 1203ERGO    R415337   0.308  17.881   7.105  0.0297  0.1040  0.0345
 1203ERGO    R515338   0.093  17.880   7.144  0.0477  0.1342  0.1343
 1203ERGO    C115339   0.207  18.124   7.414  0.1886  0.2461 -0.0235
 1203ERGO    C215340   0.344  18.127   7.676  0.0648  0.0192  0.1416
 1204ERGO   ROH15341  12.351   5.074   5.716 -0.1196  0.0548  0.0241
 1204ERGO    R115342  12.399   5.041   5.993 -0.1689  0.0515  0.0320
 1204ERGO    R215343  12.209   4.936   6.165 -0.1400 -0.1105 -0.0332
 1204ERGO    R315344  12.409   4.762   6.227 -0.0290  0.0251 -0.0041
 1204ERGO    R415345  12.287   4.833   6.485 -0.1706 -0.1218 -0.0292
 1204ERGO    R515346  12.498   4.847   6.433 -0.1619  0.0490  0.0453
 1204ERGO    C115347  12.520   4.609   6.731 -0.0843 -0.0010  0.0006
 1204ERGO    C215348  12.570   4.559   6.973 -0.0438 -0.0002  0.0725
 1205ERGO   ROH15349   5.000   4.230   6.290 -0.2071 -0.1421  0.0971
 1205ERGO    R115350   5.042   4.242   6.570 -0.1902  0.0920  0.0875
 1205ERGO    R215351   4.993   4.469   6.718 -0.4160  0.1468 -0.0610
 1205ERGO    R315352   4.838   4.302   6.866 -0.2266  0.0791  0.0642
 1205ERGO    R415353   4.769   4.571   6.961 -0.2754  0.0453  0.1128
 1205ERGO    R515354   4.833   4.402   7.084 -0.1040  0.0777  0.0659
 1205ERGO    C115355   4.493   4.473   7.241 -0.0157 -0.0774  0.3317
 1205ERGO    C215356   4.184   4.593   7.170  0.1639  0.0761  0.0636
 1206ERGO   ROH15357  18.368  15.952   6.811  0.2562 -0.1149  0.0984
 1206ERGO    R115358  18.382  15.706   6.950  0.0134 -0.2036 -0.0268
 1206ERGO    R215359  18.358  15.689   7.225  0.1558 -0.2993 -0.0185
 1206ERGO    R315360  18.163  15.511   7.165 -0.1222 -0.0129  0.0106
 1206ERGO    R415361  18.249  15.438   7.435  0.1066 -0.3947 -0.1575
 1206ERGO    R515362  18.237  15.305   7.262 -0.2428 -0.2056 -0.2888
 1206ERGO    C115363  18.001  15.123   7.501 -0.1832 -0.1815 -0.2112
 1206ERGO    C215364  18.082  14.875   7.702 -0.1408  0.2481 -0.0741
 1207ERGO   ROH15365  18.375   2.763   6.534  0.0787  0.3171 -0.1115
 1207ERGO    R115366  18.316   2.753   6.811  0.0022  0.2488 -0.1308
 1207ERGO    R215367  18.512   2.747   7.005 -0.0553  0.1663 -0.0827
 1207ERGO    R315368  18.378   2.962   7.102 -0.0487  0.1572 -0.0512
 1207ERGO    R415369  18.590   2.910   7.300 -0.2492 -0.0980  0.1200
 1207ERGO    R515370  18.376   2.928   7.340 -0.2888 -0.0287 -0.0715
 1207ERGO    C115371  18.509   3.207   7.563 -0.3561 -0.2605  0.2676
 1207ERGO    C215372  18.654   3.185   7.835  0.1926 -0.1151 -0.1212
 1208ERGO   ROH15373   2.546   2.167   6.061 -0.0952 -0.1124 -0.0142
 1208ERGO    R115374   2.533   2.125   6.341 -0.0852 -0.0885 -0.0095
 1208ERGO    R215375   2.412   1.903   6.453 -0.1252 -0.0576  0.0174
 1208ERGO    R315376   2.652   1.874   6.576 -0.1211 -0.0962 -0.0010
 1208ERGO    R415377   2.459   1.764   6.766 -0.1092 -0.1328 -0.0186
 1208ERGO    R515378   2.607   1.918   6.807 -0.1038 -0.1508  0.0101
 1208ERGO    C115379   2.712   1.656   7.064 -0.0960 -0.2128 -0.0569
 1208ERGO    C215380   2.908   1.655   7.348 -0.4527  0.4279 -0.2468
 1209ERGO   ROH15381  17.044   9.461   6.106  0.1483  0.0928  0.0966
 1209ERGO    R115382  16.811   9.470   6.266  0.1198  0.1369  0.0528
 1209ERGO    R215383  16.660   9.245   6.322  0.0022  0.1833 -0.0686
 1209ERGO    R315384  16.700   9.323   6.579 -0.0117  0.0609 -0.0291
 1209ERGO    R415385  16.528   9.087   6.600  0.0982 -0.0252 -0.1400
 1209ERGO    R515386  16.490   9.282   6.688  0.0177 -0.0915 -0.0310
 1209ERGO    C115387  16.490   9.067   7.003  0.1413 -0.2615 -0.1445
 1209ERGO    C215388  16.578   8.830   7.253 -0.0729 -0.2527 -0.2354
 1210ERGO   ROH15389   5.832   8.443   6.255  0.2360 -0.2297 -0.1272
 1210ERGO    R115390   5.900   8.358   6.516  0.1663 -0.0920 -0.0626
 1210ERGO    R215391   5.922   8.533   6.729  0.0216  0.0100 -0.1276
 1210ERGO    R315392   5.744   8.363   6.845  0.0367 -0.0035 -0.1252
 1210ERGO    R415393   5.850   8.523   7.067  0.0652 -0.0346 -0.1200
 1210ERGO    R515394   5.845   8.305   7.054  0.0624 -0.0312 -0.1467
 1210ERGO    C115395   5.641   8.357   7.372  0.1048 -0.0732 -0.1132
 1210ERGO    C215396   5.492   8.257   7.579 -0.1792  0.2758 -0.0705
 1211ERGO   ROH15397   8.452   7.165   6.152  0.1024  0.0178 -0.0114
 1211ERGO    R115398   8.406   7.212   6.428 -0.0514  0.0443 -0.0406
 1211ERGO    R215399   8.168   7.149   6.552 -0.0701 -0.0751 -0.1375
 1211ERGO    R315400   8.330   7.011   6.722 -0.0636  0.0552 -0.0358
 1211ERGO    R415401   8.095   7.080   6.883 -0.1021  0.0989 -0.1072
 1211ERGO    R515402   8.304   7.121   6.932 -0.1166  0.1715 -0.1017
 1211ERGO    C115403   8.205   6.911   7.235 -0.1145  0.3226  0.0059
 1211ERGO    C215404   8.294   6.613   7.441  0.2005  0.1321  0.0068
 1212ERGO   ROH15405  15.565   0.054   6.888 -0.0058  0.1774 -0.0858
 1212ERGO    R115406  15.465   0.162   7.130 -0.0504  0.0932 -0.0668
 1212ERGO    R215407  15.495   0.035   7.374  0.1327  0.1321 -0.0702
 1212ERGO    R315408  15.605   0.272   7.448 -0.0768  0.2433 -0.1058
 1212ERGO    R415409  15.551   0.131   7.701  0.1564  0.1787 -0.0872
 1212ERGO    R515410  15.485   0.332   7.647 -0.0672  0.1172 -0.0592
 1212ERGO    C115411  15.686   0.410   7.961 -0.0267  0.3102 -0.1305
 1212ERGO    C215412  15.716   0.464   8.228  0.0708  0.1211 -0.1200
 1213ERGO   ROH15413   9.317  10.307   6.981  0.2626  0.0945 -0.1227
 1213ERGO    R115414   9.533  10.168   7.100  0.0551 -0.0813  0.0546
 1213ERGO    R215415   9.703  10.286   7.282  0.0750 -0.1830  0.0968
 1213ERGO    R315416   9.633  10.075   7.437 -0.2260 -0.0501  0.1507
 1213ERGO    R415417   9.870  10.188   7.569 -0.0968 -0.3075  0.1566
 1213ERGO    R515418   9.842   9.980   7.507 -0.3520 -0.2973  0.2147
 1213ERGO    C115419   9.901   9.931   7.881 -0.4794 -0.2552  0.2420
 1213ERGO    C215420   9.844   9.869   8.188 -0.0073 -0.2959 -0.0991
 1214ERGO   ROH15421  11.254   9.839   8.451  0.2548  0.0201  0.0250
 1214ERGO    R115422  11.259   9.567   8.371 -0.1137  0.0540 -0.1364
 1214ERGO    R215423  11.262   9.491   8.106  0.0981  0.2189 -0.1865
 1214ERGO    R315424  11.483   9.352   8.182 -0.2333 -0.2145  0.0236
 1214ERGO    R415425  11.424   9.255   7.911  0.0520  0.1923 -0.1915
 1214ERGO    R515426  11.450   9.133   8.089 -0.4282 -0.0619 -0.2810
 1214ERGO    C115427  11.725   8.988   7.869 -0.2858 -0.2303  0.0029
 1214ERGO    C215428  12.027   8.985   7.779 -0.2545 -0.4802  0.1248
 1215ERGO   ROH15429   7.228   1.094   6.019 -0.2495 -0.0171  0.0213
 1215ERGO    R115430   7.235   1.263   6.246 -0.0595 -0.1155  0.0898
 1215ERGO    R215431   7.429   1.240   6.443  0.2428 -0.0544 -0.1960
 1215ERGO    R315432   7.467   1.504   6.389 -0.0430  0.0044 -0.1336
 1215ERGO    R415433   7.595   1.461   6.650  0.2071  0.0235 -0.2486
 1215ERGO    R515434   7.445   1.611   6.602  0.0267 -0.0946 -0.0740
 1215ERGO    C115435   7.728   1.837   6.720 -0.0821  0.1241 -0.2206
 1215ERGO    C215436   7.985   1.971   6.858  0.0076 -0.0940  0.2043
 1216ERGO   ROH15437   6.338  15.668   5.307  0.0952 -0.0641 -0.0436
 1216ERGO    R115438   6.368  15.755   5.575  0.0215 -0.0515 -0.0383
 1216ERGO    R215439   6.529  15.624   5.757 -0.0882 -0.0924  0.0392
 1216ERGO    R315440   6.640  15.871   5.787 -0.0192 -0.1261  0.0529
 1216ERGO    R415441   6.634  15.759   6.058 -0.3253 -0.0147  0.0881
 1216ERGO    R515442   6.552  15.951   5.995 -0.1871 -0.0094 -0.0645
 1216ERGO    C115443   6.799  16.069   6.260 -0.3986 -0.0009  0.1296
 1216ERGO    C215444   7.139  16.170   6.351  0.3729  0.2245  0.1409
 1217ERGO   ROH15445  13.949   1.050   6.360 -0.0395 -0.1394  0.0726
 1217ERGO    R115446  13.998   1.050   6.639 -0.0412  0.0041  0.0736
 1217ERGO    R215447  14.193   1.207   6.756  0.0228 -0.0058 -0.0175
 1217ERGO    R315448  13.986   1.293   6.909  0.0559  0.1689 -0.0687
 1217ERGO    R415449  14.196   1.223   7.101 -0.0335  0.0448 -0.0190
 1217ERGO    R515450  13.991   1.150   7.101 -0.0862  0.1950 -0.0459
 1217ERGO    C115451  14.004   1.313   7.446 -0.0352  0.2382 -0.0680
 1217ERGO    C215452  14.006   1.585   7.652 -0.0302 -0.0832  0.2186
 1218ERGO   ROH15453  17.477  18.373   6.766  0.1390 -0.0374  0.0903
 1218ERGO    R115454  17.368  18.160   6.916 -0.0217  0.0289  0.0704
 1218ERGO    R215455  17.508  18.034   7.118 -0.0582 -0.1937 -0.0392
 1218ERGO    R315456  17.289  18.097   7.266  0.0797 -0.0005  0.0881
 1218ERGO    R415457  17.468  17.961   7.454  0.0741 -0.1467 -0.0127
 1218ERGO    R515458  17.260  17.910   7.413  0.0053  0.0294  0.1105
 1218ERGO    C115459  17.239  17.978   7.788  0.2810  0.0624  0.1221
 1218ERGO    C215460  17.147  18.020   8.215  0.1452 -0.1786  0.4741
 1219ERGO   ROH15461  18.111   4.997   5.740 -0.1904 -0.1220  0.1093
 1219ERGO    R115462  17.999   5.044   5.996 -0.0123 -0.0606  0.1773
 1219ERGO    R215463  18.150   5.038   6.227  0.1848  0.1757  0.0567
 1219ERGO    R315464  18.044   5.286   6.264  0.0378  0.1220  0.0077
 1219ERGO    R415465  18.070   5.174   6.535 -0.0594  0.1191  0.0209
 1219ERGO    R515466  17.889   5.257   6.445 -0.0534  0.0329 -0.0803
 1219ERGO    C115467  17.924   5.486   6.749 -0.3394  0.0358 -0.0459
 1219ERGO    C215468  17.907   5.666   7.151  0.0588 -0.1145  0.0674
 1220ERGO   ROH15469   6.008   0.228   9.502  0.3561 -0.0521  0.0822
 1220ERGO    R115470   5.919   0.257   9.235  0.3368 -0.2017  0.0708
 1220ERGO    R215471   5.915   0.502   9.106  0.0067 -0.2149  0.0475
 1220ERGO    R315472   6.061   0.369   8.920  0.2120 -0.0293  0.0733
 1220ERGO    R415473   5.926   0.581   8.770 -0.1233 -0.2588  0.0328
 1220ERGO    R515474   5.923   0.368   8.724  0.2042 -0.2795  0.0747
 1220ERGO    C115475   6.070   0.503   8.399 -0.0062 -0.1101  0.0483
 1220ERGO    C215476   5.948   0.620   8.105 -0.4664  0.0429 -0.0696
 1221ERGO   ROH15477   6.566   3.058   5.645  0.0841 -0.0377  0.1692
 1221ERGO    R115478   6.563   3.124   5.920 -0.0026  0.0286  0.1529
 1221ERGO    R215479   6.488   3.373   6.012 -0.0239  0.0538  0.0691
 1221ERGO    R315480   6.314   3.229   6.165 -0.0784  0.0964  0.0477
 1221ERGO    R415481   6.401   3.451   6.338 -0.1092  0.1220  0.0303
 1221ERGO    R515482   6.409   3.237   6.385 -0.1395  0.1302  0.0728
 1221ERGO    C115483   6.188   3.361   6.670 -0.2101  0.2017 -0.0124
 1221ERGO    C215484   5.963   3.316   6.818 -0.1173 -0.1497 -0.4819
 1222ERGO   ROH15485  17.964   5.947   5.728 -0.2940 -0.1248 -0.0622
 1222ERGO    R115486  17.821   6.121   5.899 -0.3049 -0.1293 -0.0661
 1222ERGO    R215487  17.650   6.029   6.096 -0.2389 -0.1373 -0.0099
 1222ERGO    R315488  17.805   6.184   6.258 -0.2444 -0.0642 -0.0753
 1222ERGO    R415489  17.529   6.250   6.332 -0.2402 -0.0992 -0.0464
 1222ERGO    R515490  17.685   6.391   6.274 -0.2802 -0.0847 -0.1075
 1222ERGO    C115491  17.603   6.525   6.621 -0.2461 -0.0083 -0.1290
 1222ERGO    C215492  17.725   6.564   6.997  0.0853  0.4057  0.3116
 1223ERGO   ROH15493   9.842   5.318   7.805  0.0911  0.0423  0.0061
 1223ERGO    R115494   9.701   5.411   8.032  0.0269  0.1254 -0.0654
 1223ERGO    R215495   9.722   5.292   8.281 -0.1678  0.1124 -0.0446
 1223ERGO    R315496   9.786   5.544   8.360 -0.0597  0.0781 -0.0258
 1223ERGO    R415497   9.698   5.411   8.604  0.0785  0.0516 -0.0030
 1223ERGO    R515498   9.622   5.599   8.525  0.0697  0.0814  0.0950
 1223ERGO    C115499   9.743   5.718   8.866  0.3234 -0.0160  0.0389
 1223ERGO    C215500   9.971   5.920   9.040 -0.4274 -0.0366  0.0767
 1224ERGO   ROH15501   6.388   6.962   6.283 -0.1177 -0.1370 -0.1795
 1224ERGO    R115502   6.426   6.940   6.563 -0.3555 -0.0608 -0.1385
 1224ERGO    R215503   6.249   6.806   6.727 -0.3467 -0.2722 -0.2925
 1224ERGO    R315504   6.472   6.671   6.804 -0.2425  0.0179 -0.0728
 1224ERGO    R415505   6.295   6.664   7.038 -0.4927 -0.2655 -0.2679
 1224ERGO    R515506   6.502   6.733   7.034 -0.5786  0.0186 -0.0263
 1224ERGO    C115507   6.532   6.454   7.292 -0.4798  0.0108 -0.0473
 1224ERGO    C215508   6.641   6.250   7.538 -0.0178  0.2428 -0.1564
 1225ERGO   ROH15509  18.649  16.892   6.823  0.5613 -0.2857 -0.0755
 1225ERGO    R115510  18.749  16.904   7.088  0.2472 -0.0304  0.0380
 1225ERGO    R215511  18.603  17.012   7.297 -0.1130 -0.0683 -0.1836
 1225ERGO    R315512  18.653  16.771   7.413  0.0170  0.0468  0.0039
 1225ERGO    R415513  18.715  16.968   7.621  0.1515  0.2528 -0.2271
 1225ERGO    R515514  18.847  16.810   7.549  0.1196  0.2069 -0.1833
 1225ERGO    C115515  18.828  16.717   7.918  0.4275  0.5477 -0.0764
 1225ERGO    C215516  18.674  16.451   8.198  0.2942  0.5839 -0.0884
 1226ERGO   ROH15517  13.459   5.378   5.790 -0.2259 -0.0827  0.1232
 1226ERGO    R115518  13.421   5.158   5.964 -0.1118 -0.1302  0.0900
 1226ERGO    R215519  13.626   5.047   6.111 -0.0171 -0.1591 -0.0580
 1226ERGO    R315520  13.459   5.093   6.320  0.1022 -0.2191  0.0515
 1226ERGO    R415521  13.696   4.970   6.441  0.2456 -0.0795 -0.0925
 1226ERGO    R515522  13.489   4.904   6.463  0.2965 -0.1824  0.0576
 1226ERGO    C115523  13.578   4.968   6.829  0.5105 -0.0894 -0.0098
 1226ERGO    C215524  13.561   4.997   7.172 -0.2264  0.1942  0.0287
 1227ERGO   ROH15525   9.468  15.381   5.912 -0.3576 -0.0182 -0.0115
 1227ERGO    R115526   9.417  15.376   6.190 -0.4510  0.2061 -0.0227
 1227ERGO    R215527   9.162  15.393   6.295 -0.5639 -0.4159 -0.1594
 1227ERGO    R315528   9.233  15.164   6.422  0.0867 -0.0539  0.1839
 1227ERGO    R415529   9.055  15.301   6.611 -0.4728 -0.3381 -0.1053
 1227ERGO    R515530   9.256  15.227   6.651 -0.2452  0.3317  0.1239
 1227ERGO    C115531   9.060  15.031   6.913  0.1911  0.0469  0.2483
 1227ERGO    C215532   8.893  14.813   7.142  0.1463 -0.2251  0.0210
 1228ERGO   ROH15533  15.257   9.771   6.071 -0.0582 -0.1447 -0.0228
 1228ERGO    R115534  15.156   9.722   6.331 -0.0670 -0.0352 -0.0067
 1228ERGO    R215535  15.316   9.635   6.539 -0.1234 -0.1854 -0.0347
 1228ERGO    R315536  15.214   9.852   6.666  0.1110 -0.0811 -0.0164
 1228ERGO    R415537  15.291   9.668   6.882  0.2513 -0.0416 -0.0156
 1228ERGO    R515538  15.096   9.761   6.853  0.2570  0.0428  0.1476
 1228ERGO    C115539  15.181   9.891   7.201  0.6895  0.1399  0.0126
 1228ERGO    C215540  15.382   9.809   7.573 -0.0440 -0.0752 -0.0826
 1229ERGO   ROH15541   9.645   2.860   6.449 -0.0878 -0.0327 -0.1197
 1229ERGO    R115542   9.412   2.854   6.608  0.0014  0.2463  0.0275
 1229ERGO    R215543   9.314   2.621   6.720 -0.3431  0.3127 -0.1250
 1229ERGO    R315544   9.327   2.765   6.951  0.0706  0.0865  0.0037
 1229ERGO    R415545   9.105   2.577   6.992 -0.1941  0.3960  0.0061
 1229ERGO    R515546   9.098   2.794   7.015  0.1634  0.3914  0.2155
 1229ERGO    C115547   8.996   2.686   7.366  0.2809  0.2323  0.2034
 1229ERGO    C215548   8.842   2.617   7.672 -0.3343  0.1624 -0.0488
 1230ERGO   ROH15549  16.842   5.405   5.840  0.1756  0.1249 -0.1289
 1230ERGO    R115550  16.909   5.332   6.105  0.2123  0.0788 -0.1487
 1230ERGO    R215551  17.076   5.486   6.264  0.1627  0.1037 -0.1076
 1230ERGO    R315552  16.867   5.475   6.437  0.1667 -0.0226 -0.1124
 1230ERGO    R415553  17.099   5.534   6.605  0.1610 -0.1598 -0.0700
 1230ERGO    R515554  16.957   5.372   6.633  0.1600 -0.1729 -0.1931
 1230ERGO    C115555  16.917   5.552   6.967  0.1638 -0.4318 -0.0527
 1230ERGO    C215556  17.021   5.661   7.199  0.1033  0.1303 -0.1472
 1231ERGO   ROH15557  11.655   1.015   6.187  0.3394  0.0599  0.1449
 1231ERGO    R115558  11.623   0.780   6.343  0.1458  0.0744  0.1296
 1231ERGO    R215559  11.833   0.663   6.481  0.0679 -0.1530  0.0579
 1231ERGO    R315560  11.666   0.688   6.693  0.1520 -0.0038  0.1086
 1231ERGO    R415561  11.888   0.528   6.794  0.0393 -0.2084  0.0394
 1231ERGO    R515562  11.677   0.477   6.804 -0.0063 -0.0180  0.1011
 1231ERGO    C115563  11.763   0.473   7.176  0.1014 -0.1006  0.0763
 1231ERGO    C215564  11.711   0.738   7.360  0.1640  0.0639  0.0221
 1232ERGO   ROH15565  18.294  12.112   6.103 -0.1341  0.0370 -0.0905
 1232ERGO    R115566  18.211  11.988   6.344 -0.1094 -0.1956 -0.1992
 1232ERGO    R215567  18.250  11.718   6.395  0.1666 -0.1856 -0.3394
 1232ERGO    R315568  18.370  11.812   6.619 -0.0391 -0.1779 -0.2288
 1232ERGO    R415569  18.346  11.526   6.665  0.4076 -0.2599 -0.4740
 1232ERGO    R515570  18.277  11.683   6.797  0.1201 -0.4773 -0.3571
 1232ERGO    C115571  18.515  11.502   7.033  0.3547 -0.2958 -0.4486
 1232ERGO    C215572  18.663  11.376   7.261 -0.0832 -0.2997  0.1799
 1233ERGO   ROH15573  14.573   5.049   5.909  0.0307 -0.0309 -0.0089
 1233ERGO    R115574  14.723   5.038   6.149  0.0534 -0.0767 -0.0255
 1233ERGO    R215575  14.874   5.251   6.241  0.1494 -0.1340 -0.0574
 1233ERGO    R315576  14.728   5.216   6.467  0.1631 -0.0587 -0.0357
 1233ERGO    R415577  14.878   5.463   6.514  0.2077 -0.0643 -0.1115
 1233ERGO    R515578  14.872   5.288   6.643  0.1936 -0.0353 -0.0665
 1233ERGO    C115579  14.742   5.553   6.885  0.2546  0.0470 -0.1226
 1233ERGO    C215580  14.621   5.822   7.156 -0.1399 -0.2346 -0.1759
 1234ERGO   ROH15581  11.482  16.520   6.023 -0.0008 -0.1395 -0.0180
 1234ERGO    R115582  11.463  16.479   6.302  0.0167 -0.0376 -0.0018
 1234ERGO    R215583  11.685  16.473   6.467  0.0183  0.1117 -0.0015
 1234ERGO    R315584  11.548  16.664   6.603 -0.0533  0.1124 -0.0727
 1234ERGO    R415585  11.742  16.560   6.797 -0.0846  0.1787 -0.0003
 1234ERGO    R515586  11.527  16.576   6.825 -0.0974  0.1456 -0.0618
 1234ERGO    C115587  11.647  16.790   7.117 -0.2118  0.2185 -0.0665
 1234ERGO    C215588  11.780  16.915   7.399  0.1229 -0.2762  0.4964
 1235ERGO   ROH15589  11.259  14.975   6.368  0.3265 -0.0121 -0.1837
 1235ERGO    R115590  11.389  15.131   6.566  0.0141  0.0102  0.0111
 1235ERGO    R215591  11.290  15.158   6.823 -0.1307 -0.3789  0.0054
 1235ERGO    R315592  11.538  15.072   6.893 -0.0200 -0.0652  0.0131
 1235ERGO    R415593  11.405  15.132   7.147 -0.1242 -0.2812  0.0110
 1235ERGO    R515594  11.597  15.209   7.080 -0.2167 -0.0156  0.0415
 1235ERGO    C115595  11.705  15.035   7.402 -0.0166  0.0703  0.0216
 1235ERGO    C215596  11.675  14.990   7.665  0.2649  0.0775 -0.0329
 1236ERGO   ROH15597   5.417   6.356   7.142  0.0714  0.1836  0.1745
 1236ERGO    R115598   5.571   6.359   7.379  0.0808  0.0320  0.1703
 1236ERGO    R215599   5.463   6.425   7.625  0.1163 -0.0250  0.1965
 1236ERGO    R315600   5.566   6.184   7.699  0.0298 -0.0913  0.1048
 1236ERGO    R415601   5.573   6.346   7.944  0.0235 -0.1932  0.1881
 1236ERGO    R515602   5.740   6.239   7.854  0.0161 -0.2047  0.1697
 1236ERGO    C115603   5.733   6.075   8.198 -0.1119 -0.3534  0.0972
 1236ERGO    C215604   5.941   6.144   8.474  0.2784  0.1222 -0.0246
 1237ERGO   ROH15605   0.346  15.188   6.269  0.2393 -0.0746 -0.0793
 1237ERGO    R115606   0.372  15.275   6.537  0.0906 -0.0876 -0.0597
 1237ERGO    R215607   0.270  15.133   6.751  0.1334 -0.1937 -0.1090
 1237ERGO    R315608   0.525  15.149   6.842  0.0945 -0.0095 -0.0292
 1237ERGO    R415609   0.368  15.063   7.075  0.0424  0.1623  0.0002
 1237ERGO    R515610   0.503  15.234   7.065 -0.0178  0.2040 -0.1189
 1237ERGO    C115611   0.665  15.037   7.349 -0.0471  0.5422  0.1387
 1237ERGO    C215612   0.638  14.713   7.527 -0.1039  0.1419  0.1149
 1238ERGO   ROH15613   6.918  12.725   6.426 -0.0259  0.0107  0.0289
 1238ERGO    R115614   6.970  12.914   6.630  0.0767 -0.0657  0.0774
 1238ERGO    R215615   6.784  12.978   6.825  0.0239  0.1426 -0.0222
 1238ERGO    R315616   6.986  12.913   6.994 -0.1500 -0.1273  0.0854
 1238ERGO    R415617   6.809  13.083   7.153  0.0887  0.2298 -0.0561
 1238ERGO    R515618   7.023  13.111   7.123  0.1414 -0.1438  0.0169
 1238ERGO    C115619   7.014  13.082   7.503 -0.0368  0.0272  0.0252
 1238ERGO    C215620   6.844  13.043   7.813 -0.0517 -0.3452  0.2157
 1239ERGO   ROH15621   3.668   4.647   6.482  0.1152  0.3802  0.0419
 1239ERGO    R115622   3.454   4.723   6.652 -0.0372  0.1370 -0.0372
 1239ERGO    R215623   3.211   4.592   6.651  0.0334  0.0006 -0.2905
 1239ERGO    R315624   3.260   4.567   6.917 -0.1257 -0.1679 -0.2742
 1239ERGO    R415625   2.996   4.694   6.902 -0.0276  0.0271 -0.3525
 1239ERGO    R515626   3.169   4.767   7.013 -0.0343 -0.1508 -0.2233
 1239ERGO    C115627   2.918   4.731   7.298 -0.2124 -0.1157 -0.3733
 1239ERGO    C215628   2.829   4.717   7.589 -0.0005  0.3504 -0.0004
 1240ERGO   ROH15629   7.502  11.918   6.590 -0.0733  0.2053  0.0042
 1240ERGO    R115630   7.537  11.873   6.867 -0.3404 -0.1093 -0.0077
 1240ERGO    R215631   7.607  12.074   7.043  0.0879 -0.4169  0.1862
 1240ERGO    R315632   7.385  11.991   7.176 -0.2143  0.0447 -0.0027
 1240ERGO    R415633   7.535  12.150   7.372  0.0366 -0.3818  0.1680
 1240ERGO    R515634   7.463  11.946   7.398 -0.4687 -0.2363  0.0364
 1240ERGO    C115635   7.284  12.116   7.688 -0.2769  0.0719 -0.0200
 1240ERGO    C215636   6.987  12.154   7.832  0.2882  0.0157 -0.0332
 1241ERGO   ROH15637   8.974  16.517   6.092  0.0592 -0.0636  0.0758
 1241ERGO    R115638   8.904  16.425   6.351  0.1096 -0.2539  0.0235
 1241ERGO    R215639   9.079  16.285   6.511  0.2810 -0.0203  0.0440
 1241ERGO    R315640   9.020  16.480   6.692 -0.1016 -0.1631  0.0829
 1241ERGO    R415641   9.139  16.263   6.851  0.4413  0.0723  0.0233
 1241ERGO    R515642   8.946  16.360   6.886  0.2246 -0.3586  0.0953
 1241ERGO    C115643   9.118  16.433   7.218  0.1753 -0.0078  0.0478
 1241ERGO    C215644   9.218  16.429   7.620 -0.1947  0.1918  0.5228
 1242ERGO   ROH15645   8.024  13.493   6.560 -0.3194  0.2798  0.0532
 1242ERGO    R115646   7.991  13.487   6.841 -0.2690  0.2069  0.0583
 1242ERGO    R215647   7.892  13.266   6.974 -0.3034  0.1925  0.0139
 1242ERGO    R315648   8.121  13.289   7.118 -0.2691  0.0911 -0.0244
 1242ERGO    R415649   7.939  13.141   7.293 -0.3454  0.2794  0.0539
 1242ERGO    R515650   8.047  13.323   7.343 -0.2162  0.2244 -0.0277
 1242ERGO    C115651   8.181  13.091   7.614 -0.3376  0.2347  0.0412
 1242ERGO    C215652   8.242  12.762   7.785 -0.2709 -0.1525 -0.0799
 1243ERGO   ROH15653   4.594   0.947   6.200  0.0835  0.0280 -0.1763
 1243ERGO    R115654   4.598   0.913   6.481  0.0286  0.1674 -0.1574
 1243ERGO    R215655   4.553   1.121   6.657 -0.2282  0.2113 -0.2708
 1243ERGO    R315656   4.363   0.954   6.755 -0.0991  0.0745 -0.2511
 1243ERGO    R415657   4.445   1.115   6.985 -0.1548  0.1047 -0.2483
 1243ERGO    R515658   4.440   0.898   6.975 -0.0147  0.1000 -0.2725
 1243ERGO    C115659   4.203   0.954   7.268  0.0092 -0.0859 -0.2167
 1243ERGO    C215660   3.878   0.838   7.451 -0.1273  0.1675  0.2227
 1244ERGO   ROH15661  14.282   9.214   6.252 -0.1445 -0.0761 -0.0404
 1244ERGO    R115662  14.317   9.344   6.500 -0.1956  0.0997 -0.1247
 1244ERGO    R215663  14.141   9.312   6.712 -0.1412  0.1076 -0.0831
 1244ERGO    R315664  14.367   9.244   6.847 -0.0741  0.3450 -0.0678
 1244ERGO    R415665  14.157   9.251   7.051 -0.1877 -0.2436 -0.1400
 1244ERGO    R515666  14.347   9.357   7.057 -0.3639  0.0856  0.0559
 1244ERGO    C115667  14.379   9.151   7.376 -0.1516 -0.2253 -0.1588
 1244ERGO    C215668  14.314   9.126   7.592 -0.2315 -0.2416  0.1624
 1245ERGO   ROH15669  17.517   2.096   6.494 -0.1673  0.0652 -0.1694
 1245ERGO    R115670  17.484   2.223   6.744 -0.1919  0.1973 -0.2382
 1245ERGO    R215671  17.237   2.275   6.854 -0.2036  0.0141 -0.1694
 1245ERGO    R315672  17.338   2.139   7.067  0.0284  0.2530 -0.1219
 1245ERGO    R415673  17.105   2.283   7.173 -0.2175 -0.1004 -0.1717
 1245ERGO    R515674  17.309   2.289   7.252 -0.2230  0.2696 -0.1728
 1245ERGO    C115675  17.123   2.161   7.559 -0.0077  0.0571 -0.1284
 1245ERGO    C215676  16.997   2.307   7.893  0.0207 -0.0926  0.1151
 1246ERGO   ROH15677  10.786   7.297   6.375 -0.1907 -0.1586 -0.0636
 1246ERGO    R115678  10.769   7.416   6.632 -0.2504 -0.0404 -0.1205
 1246ERGO    R215679  10.558   7.368   6.804 -0.1429 -0.2045 -0.0248
 1246ERGO    R315680  10.757   7.300   6.976  0.0012  0.1242 -0.0546
 1246ERGO    R415681  10.511   7.224   7.114  0.1431 -0.0142  0.1108
 1246ERGO    R515682  10.669   7.351   7.193  0.0509  0.2019 -0.0568
 1246ERGO    C115683  10.669   7.076   7.457  0.4449  0.4053  0.1617
 1246ERGO    C215684  10.581   7.004   7.858 -0.1679 -0.1042 -0.2180
 1247ERGO   ROH15685  12.395  11.020   7.279 -0.0664  0.1019  0.1604
 1247ERGO    R115686  12.217  10.954   7.488 -0.0033  0.0467  0.1992
 1247ERGO    R215687  12.205  10.701   7.599 -0.0483 -0.0202  0.0629
 1247ERGO    R315688  12.244  10.836   7.831  0.1049 -0.1605  0.1192
 1247ERGO    R415689  12.103  10.592   7.911 -0.0262 -0.0966  0.0425
 1247ERGO    R515690  12.045  10.797   7.958  0.1220 -0.0876  0.1585
 1247ERGO    C115691  12.080  10.656   8.310  0.1305 -0.2730  0.0833
 1247ERGO    C215692  11.908  10.661   8.611 -0.1459  0.1850  0.0882
 1248ERGO   ROH15693  16.171  10.951   6.371  0.0357 -0.0483 -0.0270
 1248ERGO    R115694  16.137  11.026   6.641  0.0455  0.2419 -0.1045
 1248ERGO    R215695  16.199  10.858   6.852 -0.3254  0.3142  0.0646
 1248ERGO    R315696  16.351  11.068   6.933 -0.0047  0.1339 -0.0507
 1248ERGO    R415697  16.311  10.909   7.175 -0.1454  0.2587  0.0131
 1248ERGO    R515698  16.269  11.121   7.151  0.1381  0.3150 -0.0367
 1248ERGO    C115699  16.519  11.135   7.439  0.2604  0.0572 -0.1250
 1248ERGO    C215700  16.680  10.932   7.677  0.1725  0.2346  0.0165
 1249ERGO   ROH15701  11.404   5.979   6.292  0.0245  0.0937  0.0289
 1249ERGO    R115702  11.513   6.152   6.487 -0.0196  0.0875  0.0592
 1249ERGO    R215703  11.372   6.230   6.712 -0.0499  0.0361  0.0582
 1249ERGO    R315704  11.591   6.134   6.842 -0.0443  0.0562  0.0630
 1249ERGO    R415705  11.431   6.262   7.051 -0.1535 -0.1224  0.0924
 1249ERGO    R515706  11.640   6.301   7.007 -0.1567 -0.0109  0.1672
 1249ERGO    C115707  11.671   6.191   7.371 -0.2086 -0.1958  0.1168
 1249ERGO    C215708  11.783   6.341   7.623  0.0417  0.0297  0.0153
 1250ERGO   ROH15709   6.383   4.791   5.943  0.0732  0.0002 -0.0065
 1250ERGO    R115710   6.397   4.848   6.220  0.1215 -0.0151 -0.0057
 1250ERGO    R215711   6.577   4.723   6.389  0.1898  0.0166 -0.0541
 1250ERGO    R315712   6.646   4.978   6.452  0.1422  0.0295 -0.0530
 1250ERGO    R415713   6.692   4.826   6.698  0.4127 -0.0109 -0.1263
 1250ERGO    R515714   6.571   5.007   6.677  0.3227 -0.0534  0.0187
 1250ERGO    C115715   6.824   5.126   6.937  0.4977 -0.0149 -0.1673
 1250ERGO    C215716   6.767   5.401   7.210  0.0648  0.0523 -0.3288
 1251ERGO   ROH15717  15.183  10.994   6.397  0.0566  0.1254  0.0565
 1251ERGO    R115718  15.152  10.983   6.679 -0.0304  0.0048  0.0438
 1251ERGO    R215719  15.168  10.747   6.822  0.0252 -0.0453 -0.0402
 1251ERGO    R315720  15.356  10.883   6.963 -0.0785 -0.0163  0.0702
 1251ERGO    R415721  15.261  10.675   7.147 -0.0821 -0.0913 -0.0196
 1251ERGO    R515722  15.269  10.889   7.187 -0.1704 -0.0994  0.0363
 1251ERGO    C115723  15.492  10.761   7.469 -0.2419 -0.0908  0.0960
 1251ERGO    C215724  15.464  10.652   7.734  0.0128 -0.1609 -0.1614
 1252ERGO   ROH15725  16.690  12.707   6.639  0.0154  0.1482 -0.1534
 1252ERGO    R115726  16.616  12.690   6.911  0.1109 -0.0368 -0.1362
 1252ERGO    R215727  16.797  12.721   7.116  0.1601 -0.0330 -0.1755
 1252ERGO    R315728  16.622  12.910   7.201  0.0716 -0.1805 -0.0261
 1252ERGO    R415729  16.736  12.798   7.448  0.4570 -0.0104 -0.1245
 1252ERGO    R515730  16.524  12.815   7.399  0.3827 -0.2260  0.1095
 1252ERGO    C115731  16.536  13.020   7.721  0.5469 -0.1356  0.0455
 1252ERGO    C215732  16.388  12.988   8.126 -0.1711 -0.0682 -0.1490
 1253ERGO   ROH15733  14.456   3.486   6.019 -0.2176  0.0898 -0.2786
 1253ERGO    R115734  14.542   3.720   6.152 -0.0756 -0.0536 -0.1131
 1253ERGO    R215735  14.447   3.971   6.087  0.1491  0.0608 -0.0043
 1253ERGO    R315736  14.387   3.982   6.352  0.0637 -0.0423 -0.0182
 1253ERGO    R415737  14.238   4.204   6.233  0.0656 -0.0226  0.0108
 1253ERGO    R515738  14.376   4.216   6.401  0.0119 -0.0597  0.0601
 1253ERGO    C115739  14.060   4.350   6.567 -0.0631 -0.1680  0.0065
 1253ERGO    C215740  13.709   4.482   6.619  0.0984 -0.0909 -0.6404
 1254ERGO   ROH15741  15.326   6.362   6.015  0.0842 -0.0161  0.0526
 1254ERGO    R115742  15.164   6.480   6.215  0.0528 -0.1251  0.0903
 1254ERGO    R215743  15.109   6.354   6.456  0.3017 -0.1071  0.1510
 1254ERGO    R315744  15.206   6.586   6.561  0.1013  0.0324  0.0392
 1254ERGO    R415745  15.014   6.488   6.760  0.2556 -0.1092  0.1388
 1254ERGO    R515746  15.016   6.686   6.668  0.0223 -0.1283  0.0652
 1254ERGO    C115747  15.048   6.783   7.036  0.0407  0.0204  0.0265
 1254ERGO    C215748  15.134   6.802   7.393  0.1029  0.0658  0.4003
 1255ERGO   ROH15749  18.500   9.040   6.200 -0.0581  0.1523 -0.0028
 1255ERGO    R115750  18.346   9.120   6.424 -0.0259  0.1200  0.0314
 1255ERGO    R215751  18.099   9.010   6.482 -0.0100  0.0970  0.0632
 1255ERGO    R315752  18.214   8.962   6.724  0.0360  0.0807  0.0377
 1255ERGO    R415753  17.927   8.938   6.773  0.0445  0.1513  0.1090
 1255ERGO    R515754  18.067   9.064   6.882  0.0999  0.1221  0.0690
 1255ERGO    C115755  17.935   8.851   7.169  0.1198  0.1677  0.1118
 1255ERGO    C215756  17.649   8.843   7.301  0.0241  0.2182 -0.1806
 1256ERGO   ROH15757   8.246   2.289   6.222  0.1220 -0.1218  0.2227
 1256ERGO    R115758   8.243   2.329   6.502  0.0140 -0.0895  0.2178
 1256ERGO    R215759   8.201   2.576   6.617  0.0465 -0.0609  0.1723
 1256ERGO    R315760   8.003   2.445   6.751 -0.0557  0.0186  0.1006
 1256ERGO    R415761   8.086   2.660   6.932  0.0888 -0.1256  0.2050
 1256ERGO    R515762   8.075   2.447   6.979 -0.0669 -0.1395  0.1057
 1256ERGO    C115763   7.833   2.585   7.241  0.0176 -0.0886  0.1567
 1256ERGO    C215764   7.506   2.742   7.343 -0.0337  0.0826  0.1347
 1257ERGO   ROH15765   9.375  18.670   6.176  0.1250  0.0062 -0.0982
 1257ERGO    R115766   9.286  18.777   6.423  0.0808 -0.0462 -0.0911
 1257ERGO    R215767   9.022  18.849   6.467  0.0465 -0.1773 -0.0791
 1257ERGO    R315768   9.047  18.683   6.680  0.1356 -0.1729 -0.0855
 1257ERGO    R415769   8.808  18.840   6.738  0.2225 -0.0914  0.0643
 1257ERGO    R515770   8.980  18.815   6.868  0.3024 -0.1390 -0.0479
 1257ERGO    C115771   8.707  18.679   7.096  0.4087 -0.0373  0.1418
 1257ERGO    C215772   8.413  18.674   7.356  0.3348 -0.1769  0.0165
 1258ERGO   ROH15773  11.850   8.499   6.762  0.2354  0.2208 -0.0465
 1258ERGO    R115774  12.019   8.321   6.903  0.1296  0.0889 -0.0861
 1258ERGO    R215775  12.070   8.347   7.173  0.1023 -0.0335 -0.0714
 1258ERGO    R315776  11.984   8.089   7.181 -0.0199  0.0023 -0.1741
 1258ERGO    R415777  12.090   8.141   7.449 -0.0204 -0.1401 -0.1404
 1258ERGO    R515778  12.146   7.977   7.317 -0.0826 -0.1213 -0.1961
 1258ERGO    C115779  12.021   7.779   7.618 -0.2064 -0.1687 -0.2769
 1258ERGO    C215780  11.824   7.661   7.839  0.2123 -0.0300 -0.2197
 1259ERGO   ROH15781  15.712   2.323   6.524  0.0222 -0.1297  0.1711
 1259ERGO    R115782  15.462   2.385   6.642  0.0745  0.2409  0.0949
 1259ERGO    R215783  15.334   2.215   6.817 -0.4431  0.2129 -0.2950
 1259ERGO    R315784  15.333   2.435   6.978 -0.0500 -0.0537  0.0947
 1259ERGO    R415785  15.114   2.267   7.079 -0.5818  0.2742 -0.4210
 1259ERGO    R515786  15.101   2.476   7.020 -0.0073  0.4387 -0.0721
 1259ERGO    C115787  14.986   2.502   7.383 -0.2935  0.0597 -0.1285
 1259ERGO    C215788  15.076   2.608   7.713  0.1405 -0.3519  0.2155
 1260ERGO   ROH15789   7.112   9.182   6.592 -0.0806  0.2164 -0.0621
 1260ERGO    R115790   7.144   9.322   6.836  0.1560  0.0422  0.0104
 1260ERGO    R215791   6.931   9.419   6.982  0.3146  0.4636 -0.0212
 1260ERGO    R315792   7.044   9.276   7.183 -0.0673  0.1102 -0.0440
 1260ERGO    R415793   6.858   9.459   7.317  0.2783  0.4589 -0.0288
 1260ERGO    R515794   7.070   9.435   7.361  0.2172 -0.0282  0.0413
 1260ERGO    C115795   6.923   9.348   7.702 -0.1014  0.1245 -0.0546
 1260ERGO    C215796   6.951   9.144   7.991 -0.1569 -0.0454  0.0487
 1261ERGO   ROH15797  14.570   5.561   5.984  0.0047 -0.1237 -0.0089
 1261ERGO    R115798  14.521   5.685   6.234 -0.0494  0.0357 -0.0973
 1261ERGO    R215799  14.266   5.740   6.325 -0.0799 -0.1364 -0.0798
 1261ERGO    R315800  14.348   5.599   6.542  0.1141  0.1201  0.0201
 1261ERGO    R415801  14.148   5.786   6.646 -0.1725 -0.0968 -0.1190
 1261ERGO    R515802  14.351   5.759   6.720 -0.1325  0.2469 -0.0832
 1261ERGO    C115803  14.156   5.679   7.037 -0.0443  0.1670 -0.0480
 1261ERGO    C215804  14.118   5.822   7.343  0.0291  0.1761  0.0006
 1262ERGO   ROH15805  16.983   4.769   6.023  0.4810  0.0047 -0.0394
 1262ERGO    R115806  17.034   4.804   6.299  0.3207 -0.1977  0.0191
 1262ERGO    R215807  16.860   4.936   6.467  0.3924  0.0105 -0.0636
 1262ERGO    R315808  16.876   4.707   6.612 -0.0879 -0.0864 -0.1468
 1262ERGO    R415809  16.820   4.915   6.810  0.1199 -0.0773 -0.0983
 1262ERGO    R515810  16.984   4.772   6.815 -0.1173 -0.3542 -0.0425
 1262ERGO    C115811  16.813   4.687   7.145 -0.4897 -0.2195 -0.1966
 1262ERGO    C215812  16.984   4.778   7.517  0.2122  0.2839 -0.2842
 1263ERGO   ROH15813   7.444   5.756   5.979 -0.2736 -0.0485  0.0342
 1263ERGO    R115814   7.382   5.718   6.253 -0.1731 -0.0338  0.0596
 1263ERGO    R215815   7.551   5.586   6.427 -0.1296 -0.0657 -0.0051
 1263ERGO    R315816   7.527   5.814   6.572 -0.0273 -0.0590  0.0014
 1263ERGO    R415817   7.658   5.624   6.753  0.1060 -0.0462 -0.0829
 1263ERGO    R515818   7.477   5.739   6.794  0.1341 -0.0473  0.0425
 1263ERGO    C115819   7.698   5.860   7.080  0.3392 -0.0286 -0.1220
 1263ERGO    C215820   8.019   5.868   7.351  0.0422  0.1945 -0.5659
 1264ERGO   ROH15821   7.372   8.153   6.539  0.0437 -0.2782 -0.2329
 1264ERGO    R115822   7.348   7.937   6.720  0.3722 -0.2535 -0.1516
 1264ERGO    R215823   7.547   7.871   6.900  0.3730  0.2916  0.0783
 1264ERGO    R315824   7.346   7.895   7.081  0.1334 -0.0698 -0.1314
 1264ERGO    R415825   7.550   7.735   7.218  0.2327  0.2356  0.0551
 1264ERGO    R515826   7.341   7.682   7.192  0.3469 -0.0964 -0.1827
 1264ERGO    C115827   7.363   7.678   7.573 -0.0739 -0.1363 -0.1552
 1264ERGO    C215828   7.323   7.663   7.960  0.0303  0.2309  0.1034
 1265ERGO   ROH15829  18.088   0.815   6.939  0.2259  0.0486  0.0305
 1265ERGO    R115830  17.994   0.815   7.205  0.0945  0.2769 -0.0123
 1265ERGO    R215831  18.061   0.618   7.387 -0.2884  0.2263  0.0888
 1265ERGO    R315832  18.141   0.829   7.538 -0.0385  0.1604  0.0519
 1265ERGO    R415833  18.047   0.631   7.732 -0.2196  0.2861  0.0890
 1265ERGO    R515834  17.982   0.838   7.717 -0.0001  0.3534  0.0756
 1265ERGO    C115835  18.114   0.837   8.075  0.0550  0.2591  0.0545
 1265ERGO    C215836  18.038   0.990   8.411 -0.4097  0.0610 -0.1217
 1266ERGO   ROH15837   0.869  10.934   5.872 -0.1931 -0.1391  0.1189
 1266ERGO    R115838   0.810  10.970   6.147 -0.0104 -0.1808  0.1647
 1266ERGO    R215839   0.900  10.796   6.342  0.4035 -0.0291  0.1193
 1266ERGO    R315840   1.000  11.023   6.453  0.1810  0.1324 -0.0027
 1266ERGO    R415841   0.891  10.872   6.679  0.3738  0.1186  0.0856
 1266ERGO    R515842   0.845  11.078   6.626  0.1461  0.0485 -0.0053
 1266ERGO    C115843   0.980  11.130   6.979  0.1476  0.3562 -0.0486
 1266ERGO    C215844   1.144  10.962   7.314  0.1827 -0.0796 -0.3348
 1267ERGO   ROH15845   6.031  11.698   6.366  0.0074 -0.1078 -0.1590
 1267ERGO    R115846   5.930  11.825   6.598  0.0601 -0.0405 -0.1731
 1267ERGO    R215847   5.777  11.692   6.785  0.0398  0.0332 -0.1385
 1267ERGO    R315848   5.966  11.784   6.958  0.0779  0.0129 -0.1686
 1267ERGO    R415849   5.748  11.689   7.130  0.1344 -0.0448 -0.1305
 1267ERGO    R515850   5.840  11.886   7.134  0.1168 -0.0374 -0.1117
 1267ERGO    C115851   5.909  11.773   7.492  0.2254 -0.1093 -0.1540
 1267ERGO    C215852   5.957  11.489   7.620  0.3580 -0.1887 -0.1548
 1268ERGO   ROH15853   3.474   8.848   5.892 -0.2146  0.1243  0.0502
 1268ERGO    R115854   3.440   8.882   6.171 -0.0459 -0.0064  0.0892
 1268ERGO    R215855   3.650   8.947   6.340  0.0127  0.1744 -0.0460
 1268ERGO    R315856   3.486   9.152   6.412 -0.1690 -0.0308  0.1401
 1268ERGO    R415857   3.686   9.137   6.626  0.0427  0.1611 -0.0414
 1268ERGO    R515858   3.469   9.133   6.650  0.0650 -0.0996  0.1530
 1268ERGO    C115859   3.554   9.440   6.860 -0.1104 -0.0392  0.1360
 1268ERGO    C215860   3.556   9.603   7.158 -0.0322  0.0687 -0.2233
 1269ERGO   ROH15861  16.113  18.132   6.460  0.0792 -0.0875  0.0394
 1269ERGO    R115862  16.204  18.030   6.707  0.0004 -0.1554  0.0403
 1269ERGO    R215863  16.388  18.163   6.865  0.1103 -0.2994  0.0335
 1269ERGO    R315864  16.196  18.135   7.056  0.0902 -0.1406  0.0387
 1269ERGO    R415865  16.441  18.194   7.205  0.1340 -0.2754  0.0279
 1269ERGO    R515866  16.308  18.024   7.237  0.0204 -0.1846  0.0573
 1269ERGO    C115867  16.292  18.185   7.582  0.1286 -0.1122  0.0295
 1269ERGO    C215868  16.439  18.326   7.988  0.1469  0.0470 -0.0137
 1270ERGO   ROH15869   9.652   8.150   6.558  0.0973 -0.1956  0.0080
 1270ERGO    R115870   9.588   7.969   6.766  0.0819 -0.1683  0.0273
 1270ERGO    R215871   9.752   7.929   6.985  0.0503 -0.1158  0.0613
 1270ERGO    R315872   9.527   7.989   7.124  0.0216 -0.1158  0.0143
 1270ERGO    R415873   9.699   7.855   7.319 -0.0568 -0.2066  0.0246
 1270ERGO    R515874   9.494   7.802   7.270 -0.0537 -0.1545 -0.0506
 1270ERGO    C115875   9.457   7.869   7.644 -0.1461 -0.2595 -0.0408
 1270ERGO    C215876   9.368   7.994   8.099 -0.1189  0.1833 -0.0956
 1271ERGO   ROH15877  16.715   0.943   6.598  0.1869  0.0053 -0.0560
 1271ERGO    R115878  16.683   1.037   6.863  0.2158  0.0911 -0.0828
 1271ERGO    R215879  16.684   0.869   7.082 -0.0467  0.1278 -0.0510
 1271ERGO    R315880  16.879   1.037   7.169  0.1236 -0.0822 -0.0224
 1271ERGO    R415881  16.747   0.941   7.414 -0.1895  0.2486 -0.0489
 1271ERGO    R515882  16.781   1.149   7.357  0.1369  0.1729 -0.1621
 1271ERGO    C115883  16.968   1.140   7.689 -0.1129  0.1218 -0.0209
 1271ERGO    C215884  17.023   1.154   8.018 -0.2627 -0.2716 -0.0206
 1272ERGO   ROH15885  17.886   3.517   6.530 -0.0284  0.0666 -0.1159
 1272ERGO    R115886  17.918   3.619   6.792  0.0238  0.0313 -0.1085
 1272ERGO    R215887  17.779   3.840   6.884 -0.1227 -0.1117  0.0186
 1272ERGO    R315888  17.705   3.670   7.083  0.1335 -0.2260  0.0208
 1272ERGO    R415889  17.783   3.917   7.221 -0.1063 -0.1505  0.0276
 1272ERGO    R515890  17.859   3.717   7.261  0.1385 -0.0720 -0.0216
 1272ERGO    C115891  17.715   3.803   7.604  0.1439 -0.2804  0.0349
 1272ERGO    C215892  17.551   4.006   7.758 -0.0635  0.2854  0.1778
 1273ERGO   ROH15893  13.059   6.894   6.453 -0.2428  0.1179  0.1524
 1273ERGO    R115894  13.102   6.933   6.730  0.0868  0.2522  0.0850
 1273ERGO    R215895  13.226   6.745   6.889 -0.0766  0.1641  0.0889
 1273ERGO    R315896  13.388   6.953   6.954  0.3417 -0.0539 -0.1970
 1273ERGO    R415897  13.415   6.765   7.178 -0.3022  0.3012  0.2328
 1273ERGO    R515898  13.362   6.977   7.191  0.1549  0.4790 -0.2474
 1273ERGO    C115899  13.677   6.973   7.407 -0.0407  0.1765  0.0481
 1273ERGO    C215900  13.943   6.889   7.670 -0.0406  0.1847  0.2738
 1274ERGO   ROH15901   8.253  11.003   6.819  0.1524  0.0363  0.1038
 1274ERGO    R115902   8.093  11.007   7.052  0.1522  0.0234  0.1043
 1274ERGO    R215903   8.198  10.976   7.306  0.1457 -0.0468  0.1003
 1274ERGO    R315904   8.068  11.210   7.354  0.1930 -0.0296  0.1430
 1274ERGO    R415905   8.030  11.052   7.598 -0.0664 -0.1700  0.0130
 1274ERGO    R515906   7.874  11.146   7.478  0.0665 -0.0369 -0.0564
 1274ERGO    C115907   7.811  11.317   7.813 -0.1456 -0.2257  0.0022
 1274ERGO    C215908   7.820  11.243   8.078  0.4763 -0.1131 -0.0545
 1275ERGO   ROH15909  11.152   3.615   6.407  0.0857  0.2753 -0.2589
 1275ERGO    R115910  11.269   3.481   6.628 -0.1024  0.3831 -0.0905
 1275ERGO    R215911  11.542   3.451   6.655 -0.1445 -0.1445 -0.1691
 1275ERGO    R315912  11.498   3.566   6.898  0.1958  0.3521 -0.3269
 1275ERGO    R415913  11.745   3.410   6.932 -0.2443 -0.3563 -0.1253
 1275ERGO    R515914  11.565   3.398   7.056 -0.2980  0.3593 -0.0881
 1275ERGO    C115915  11.821   3.494   7.321  0.0172 -0.0133 -0.2480
 1275ERGO    C215916  11.876   3.570   7.616 -0.0559  0.0920 -0.2986
 1276ERGO   ROH15917  13.138   1.560   6.501  0.1684 -0.0883 -0.0762
 1276ERGO    R115918  12.989   1.437   6.709  0.1576  0.0122 -0.0246
 1276ERGO    R215919  13.107   1.282   6.905  0.1290 -0.0099 -0.0293
 1276ERGO    R315920  12.979   1.453   7.072  0.2434  0.0724 -0.0237
 1276ERGO    R415921  13.114   1.263   7.250 -0.1508 -0.2374 -0.0311
 1276ERGO    R515922  12.903   1.315   7.252 -0.0885  0.0614 -0.1621
 1276ERGO    C115923  12.998   1.414   7.608 -0.2062 -0.2925 -0.0269
 1276ERGO    C215924  13.079   1.549   7.982  0.5343 -0.0292  0.0034
 1277ERGO   ROH15925   2.561   4.989   5.724 -0.0241  0.0535  0.1210
 1277ERGO    R115926   2.612   4.938   5.997 -0.1181  0.0100  0.1307
 1277ERGO    R215927   2.740   5.120   6.162 -0.0781 -0.0595  0.1764
 1277ERGO    R315928   2.519   5.086   6.316 -0.1339  0.0291  0.1173
 1277ERGO    R415929   2.680   5.284   6.460 -0.1279  0.0185  0.1243
 1277ERGO    R515930   2.601   5.097   6.541 -0.1993  0.0555  0.1401
 1277ERGO    C115931   2.438   5.347   6.779 -0.2094  0.1471  0.0384
 1277ERGO    C215932   2.512   5.700   6.796 -0.0617 -0.2115  0.0189
 1278ERGO   ROH15933   5.233  17.123   5.862  0.0870  0.0686 -0.0775
 1278ERGO    R115934   5.428  17.131   6.067  0.0610 -0.0019 -0.0515
 1278ERGO    R215935   5.386  17.019   6.316 -0.0160  0.0191 -0.0610
 1278ERGO    R315936   5.618  16.889   6.260 -0.0535 -0.0695 -0.0193
 1278ERGO    R415937   5.616  16.914   6.552  0.0641  0.2486 -0.0333
 1278ERGO    R515938   5.775  16.977   6.417  0.0209  0.0887 -0.1723
 1278ERGO    C115939   5.967  16.731   6.637  0.0755  0.2992  0.0221
 1278ERGO    C215940   6.303  16.637   6.807 -0.0366 -0.0074 -0.0858
 1279ERGO   ROH15941  14.268  18.303   6.871  0.0182 -0.1165 -0.0461
 1279ERGO    R115942  14.355  18.202   7.121 -0.0395 -0.1779 -0.0504
 1279ERGO    R215943  14.324  18.341   7.357  0.0760 -0.1517 -0.0477
 1279ERGO    R315944  14.201  18.113   7.439 -0.0864 -0.0631 -0.0416
 1279ERGO    R415945  14.245  18.266   7.685 -0.0488 -0.0598 -0.0561
 1279ERGO    R515946  14.306  18.060   7.647 -0.1701 -0.1019 -0.0111
 1279ERGO    C115947  14.083  18.008   7.953 -0.2739  0.0768 -0.0553
 1279ERGO    C215948  13.856  18.030   8.086  0.2356 -0.0177  0.0481
 1280ERGO   ROH15949   1.899   9.516   6.151 -0.2901  0.0287  0.0128
 1280ERGO    R115950   1.833   9.358   6.376 -0.0832  0.0387  0.0818
 1280ERGO    R215951   2.025   9.238   6.535  0.0653  0.1297 -0.0307
 1280ERGO    R315952   1.895   9.370   6.735  0.1542  0.1110  0.0411
 1280ERGO    R415953   1.969   9.111   6.852  0.0535  0.0237 -0.0746
 1280ERGO    R515954   1.769   9.199   6.846  0.0904  0.1203 -0.0115
 1280ERGO    C115955   1.814   9.160   7.223  0.1302 -0.0557 -0.0329
 1280ERGO    C215956   1.811   9.212   7.519  0.2136  0.1685 -0.0156
 1281ERGO   ROH15957  14.337  11.394   6.752 -0.0404  0.2196  0.1336
 1281ERGO    R115958  14.474  11.545   6.949 -0.0032  0.2872  0.0579
 1281ERGO    R215959  14.356  11.758   7.081 -0.0626  0.1855  0.1800
 1281ERGO    R315960  14.430  11.619   7.302  0.2004  0.1973  0.1022
 1281ERGO    R415961  14.334  11.877   7.404  0.1467  0.1275  0.2160
 1281ERGO    R515962  14.527  11.784   7.446  0.2314  0.2280  0.0419
 1281ERGO    C115963  14.391  11.817   7.801  0.5154  0.1049  0.1640
 1281ERGO    C215964  14.282  11.950   8.033  0.0702 -0.1421 -0.2656
 1282ERGO   ROH15965   9.956   3.215   6.366  0.0724 -0.0799 -0.0279
 1282ERGO    R115966   9.953   3.110   6.629  0.1385 -0.0486 -0.0145
 1282ERGO    R215967   9.843   3.248   6.842  0.1719 -0.0328 -0.0070
 1282ERGO    R315968   9.699   3.019   6.874  0.1992 -0.0421  0.0508
 1282ERGO    R415969   9.726   3.127   7.145  0.1771  0.0328  0.0213
 1282ERGO    R515970   9.780   2.926   7.080  0.2038  0.0226  0.0775
 1282ERGO    C115971   9.524   2.843   7.351  0.2059  0.0622  0.0921
 1282ERGO    C215972   9.316   2.814   7.705 -0.1423  0.0691  0.0469
 1283ERGO   ROH15973   5.711  14.987   5.881 -0.0332 -0.0958  0.0898
 1283ERGO    R115974   5.564  15.009   6.122 -0.0654 -0.1029  0.0703
 1283ERGO    R215975   5.629  14.869   6.350 -0.1014 -0.1152  0.0713
 1283ERGO    R315976   5.629  15.116   6.463 -0.1102 -0.1211  0.0851
 1283ERGO    R415977   5.681  14.933   6.686 -0.0992 -0.1344  0.0749
 1283ERGO    R515978   5.524  15.085   6.676 -0.1068 -0.1394  0.0855
 1283ERGO    C115979   5.711  15.202   6.988 -0.1062 -0.1513  0.0901
 1283ERGO    C215980   5.593  15.317   7.286  0.1674 -0.1167 -0.6162
 1284ERGO   ROH15981   1.652   6.042   5.626  0.0670  0.1190  0.0508
 1284ERGO    R115982   1.491   5.998   5.854 -0.0369  0.0437 -0.0358
 1284ERGO    R215983   1.597   5.964   6.106 -0.1524 -0.0136  0.0052
 1284ERGO    R315984   1.428   6.168   6.170 -0.2009 -0.0459 -0.0189
 1284ERGO    R415985   1.524   6.066   6.429 -0.0201  0.1365 -0.0111
 1284ERGO    R515986   1.316   6.092   6.368 -0.0644  0.0178  0.0851
 1284ERGO    C115987   1.323   6.317   6.676  0.0113  0.1936 -0.0433
 1284ERGO    C215988   1.347   6.487   6.981 -0.1494  0.0793  0.0683
 1285ERGO   ROH15989  13.466  12.025   6.599 -0.3740  0.1581  0.0400
 1285ERGO    R115990  13.355  12.164   6.820 -0.3526  0.0670  0.1072
 1285ERGO    R215991  13.253  12.034   7.041  0.0351 -0.0146  0.2379
 1285ERGO    R315992  13.426  12.195   7.175 -0.0546  0.2595  0.0367
 1285ERGO    R415993  13.235  12.107   7.379  0.2353  0.0346  0.2401
 1285ERGO    R515994  13.290  12.313   7.332 -0.0855  0.1105  0.1333
 1285ERGO    C115995  13.387  12.301   7.701  0.2676  0.3204  0.0525
 1285ERGO    C215996  13.239  12.343   7.960  0.1914 -0.0490 -0.1711
 1286ERGO   ROH15997   2.017  16.217   7.367 -0.0992  0.0872 -0.1363
 1286ERGO    R115998   1.951  16.028   7.567 -0.1680  0.0076 -0.2334
 1286ERGO    R215999   1.914  16.098   7.832  0.1668 -0.1598 -0.1380
 1286ERGO    R316000   1.675  15.974   7.798 -0.0345  0.1856 -0.0281
 1286ERGO    R416001   1.735  15.944   8.084  0.3206 -0.3475 -0.1406
 1286ERGO    R516002   1.685  15.784   7.944 -0.0614 -0.0695 -0.3447
 1286ERGO    C116003   1.405  15.739   8.199  0.2212 -0.1324 -0.0390
 1286ERGO    C216004   1.115  15.565   8.404  0.0733  0.1229 -0.2439
 1287ERGO   ROH16005   5.866   0.826   5.702 -0.0307  0.0039  0.0572
 1287ERGO    R116006   5.874   0.760   5.977 -0.1037  0.0881  0.0801
 1287ERGO    R216007   5.741   0.907   6.170 -0.2965  0.0478 -0.0191
 1287ERGO    R316008   5.634   0.666   6.234 -0.1499 -0.0132  0.0000
 1287ERGO    R416009   5.559   0.842   6.456 -0.3914 -0.0009 -0.0902
 1287ERGO    R516010   5.661   0.650   6.471 -0.2560  0.0788  0.0185
 1287ERGO    C116011   5.352   0.577   6.683 -0.3089 -0.0865 -0.1136
 1287ERGO    C216012   5.172   0.385   6.991 -0.2241 -0.1796 -0.1995
 1288ERGO   ROH16013  16.231   6.760   5.711  0.1881  0.0826 -0.0435
 1288ERGO    R116014  16.196   6.817   5.986  0.0368 -0.0259 -0.0391
 1288ERGO    R216015  16.139   6.621   6.172  0.2241 -0.1456 -0.1057
 1288ERGO    R316016  16.358   6.721   6.298  0.0670  0.0976 -0.0162
 1288ERGO    R416017  16.214   6.574   6.507  0.2435 -0.2339 -0.1215
 1288ERGO    R516018  16.280   6.782   6.516 -0.0537 -0.1403  0.0098
 1288ERGO    C116019  16.463   6.641   6.819  0.1069 -0.0568 -0.0467
 1288ERGO    C216020  16.389   6.435   7.135 -0.0098 -0.1371  0.1999
 1289ERGO   ROH16021  11.245  11.804   7.208 -0.2316  0.0326 -0.0682
 1289ERGO    R116022  11.305  11.843   7.482 -0.0484 -0.1515 -0.0808
 1289ERGO    R216023  11.128  11.960   7.658  0.2332  0.1270  0.0215
 1289ERGO    R316024  11.169  11.732   7.801 -0.1240  0.0073 -0.0558
 1289ERGO    R416025  11.058  11.922   7.995  0.3292  0.1887  0.0492
 1289ERGO    R516026  11.243  11.809   8.015  0.1356 -0.1739 -0.0727
 1289ERGO    C116027  11.055  11.686   8.324  0.0498  0.1123 -0.0071
 1289ERGO    C216028  10.888  11.725   8.573 -0.3256  0.0901 -0.6099
 1290ERGO   ROH16029  15.416   8.156   5.658 -0.1884 -0.1727  0.1094
 1290ERGO    R116030  15.470   8.218   5.929 -0.1482 -0.2131  0.1095
 1290ERGO    R216031  15.530   8.025   6.116  0.2324 -0.2077 -0.0090
 1290ERGO    R316032  15.749   8.180   6.159  0.0272  0.1030 -0.0412
 1290ERGO    R416033  15.711   8.035   6.411  0.4529 -0.2261 -0.1402
 1290ERGO    R516034  15.729   8.251   6.387  0.0894 -0.1581  0.0551
 1290ERGO    C116035  16.022   8.186   6.622  0.3885  0.0550 -0.2469
 1290ERGO    C216036  16.201   8.158   6.935  0.0073 -0.1016  0.0439
 1291ERGO   ROH16037   8.686  17.402   6.547 -0.0687  0.2190 -0.0081
 1291ERGO    R116038   8.721  17.244   6.779  0.0939  0.1033 -0.1095
 1291ERGO    R216039   8.838  17.342   7.009 -0.0781  0.1007 -0.0229
 1291ERGO    R316040   8.608  17.253   7.125  0.0130 -0.2827 -0.1194
 1291ERGO    R416041   8.816  17.203   7.326  0.0047  0.2452  0.0469
 1291ERGO    R516042   8.674  17.058   7.247  0.3304 -0.0900  0.0373
 1291ERGO    C116043   8.588  17.040   7.618  0.1384 -0.0308 -0.0030
 1291ERGO    C216044   8.465  16.911   7.931 -0.0555  0.3403 -0.1091
 1292ERGO   ROH16045  17.178  15.429   6.445  0.0174 -0.1815  0.1157
 1292ERGO    R116046  17.181  15.644   6.629  0.0309 -0.0871  0.0067
 1292ERGO    R216047  16.949  15.763   6.723  0.0363 -0.0708  0.0001
 1292ERGO    R316048  17.057  15.705   6.966  0.1003  0.0666  0.0050
 1292ERGO    R416049  16.797  15.825   7.026  0.0538 -0.0307  0.0005
 1292ERGO    R516050  16.990  15.888   7.105  0.0376  0.0869 -0.0512
 1292ERGO    C116051  16.809  15.808   7.431  0.1243  0.1214  0.0055
 1292ERGO    C216052  16.807  15.729   7.759 -0.0787  0.4167  0.1594
 1293ERGO   ROH16053  10.294  15.402   6.177 -0.1506  0.2743  0.0843
 1293ERGO    R116054  10.395  15.315   6.426 -0.1899 -0.0185  0.0026
 1293ERGO    R216055  10.340  15.447   6.663  0.1500 -0.0180  0.0892
 1293ERGO    R316056  10.255  15.201   6.743 -0.2578  0.0904  0.0114
 1293ERGO    R416057  10.263  15.360   6.989  0.0032 -0.0013  0.0593
 1293ERGO    R516058  10.360  15.168   6.955 -0.3127 -0.1534  0.0007
 1293ERGO    C116059  10.139  15.079   7.253 -0.4650  0.1100 -0.0311
 1293ERGO    C216060   9.936  15.064   7.614  0.0734 -0.1112  0.0180
 1294ERGO   ROH16061   0.605  18.647   6.496  0.2062 -0.2471 -0.0166
 1294ERGO    R116062   0.679  18.840   6.690  0.0144 -0.0776 -0.1109
 1294ERGO    R216063   0.559  18.855   6.938  0.0725 -0.1472 -0.0858
 1294ERGO    R316064   0.815  18.837   7.027  0.1284  0.2277 -0.1495
 1294ERGO    R416065   0.685  19.023   7.213 -0.2514 -0.3232  0.1785
 1294ERGO    R516066   0.868  19.059   7.101 -0.3209  0.2372  0.2044
 1294ERGO    C116067   0.999  19.104   7.457 -0.3876 -0.0737  0.2727
 1294ERGO    C216068   1.393  19.184   7.565 -0.0842 -0.0405 -0.0673
 1295ERGO   ROH16069   8.578  14.105   6.322 -0.1701 -0.0529  0.1171
 1295ERGO    R116070   8.639  14.116   6.598 -0.1258 -0.1444  0.1119
 1295ERGO    R216071   8.601  14.344   6.750  0.1016 -0.1254  0.1481
 1295ERGO    R316072   8.456  14.177   6.907 -0.0356 -0.0150  0.1402
 1295ERGO    R416073   8.581  14.365   7.094  0.1439 -0.1496  0.1518
 1295ERGO    R516074   8.590  14.147   7.103 -0.0488 -0.1583  0.1263
 1295ERGO    C116075   8.432  14.220   7.442  0.0397 -0.0598  0.1465
 1295ERGO    C216076   8.300  14.310   7.694  0.0605  0.1958 -0.0240
 1296ERGO   ROH16077  18.692   3.780   8.299 -0.1155  0.0456  0.1219
 1296ERGO    R116078  18.816   3.649   8.080 -0.2392 -0.0783  0.1239
 1296ERGO    R216079  19.077   3.701   8.005 -0.3459  0.0388 -0.1869
 1296ERGO    R316080  19.104   3.432   8.032 -0.1289  0.0811  0.0547
 1296ERGO    R416081  19.317   3.508   7.846 -0.4139  0.0456 -0.2975
 1296ERGO    R516082  19.165   3.355   7.814 -0.3550 -0.0952  0.0492
 1296ERGO    C116083  19.481   3.144   7.779 -0.2499  0.0892 -0.1351
 1296ERGO    C216084  19.608   2.895   7.798  0.0331  0.2512 -0.1136
 1297ERGO   ROH16085   4.346  12.889   6.246  0.2664  0.1530  0.0034
 1297ERGO    R116086   4.335  12.980   6.514  0.0037  0.1233  0.0061
 1297ERGO    R216087   4.125  12.920   6.683 -0.0330 -0.1288 -0.1220
 1297ERGO    R316088   4.324  12.828   6.844 -0.0201  0.0845 -0.0129
 1297ERGO    R416089   4.101  12.881   7.026 -0.1752 -0.1523 -0.1344
 1297ERGO    R516090   4.304  12.958   7.044 -0.2659  0.0647 -0.0238
 1297ERGO    C116091   4.273  12.772   7.376 -0.2459  0.0342 -0.0391
 1297ERGO    C216092   4.407  12.532   7.534  0.1806  0.1643 -0.0380
 1298ERGO   ROH16093  17.336  14.329   6.581  0.2050 -0.1313  0.0702
 1298ERGO    R116094  17.293  14.398   6.852  0.3260 -0.1210  0.0881
 1298ERGO    R216095  17.041  14.404   6.966  0.3296  0.2781  0.0967
 1298ERGO    R316096  17.153  14.235   7.146  0.0551  0.0381  0.0491
 1298ERGO    R416097  16.930  14.359   7.290  0.2386  0.3313  0.0730
 1298ERGO    R516098  17.138  14.351   7.355  0.2218 -0.0134  0.0871
 1298ERGO    C116099  16.972  14.174   7.648 -0.0723  0.1369  0.0144
 1298ERGO    C216100  17.084  13.947   7.861 -0.5446  0.1350 -0.2577
 1299ERGO   ROH16101  17.846  18.143   6.556 -0.3538 -0.1300 -0.0552
 1299ERGO    R116102  17.973  18.202   6.802 -0.3178  0.0867 -0.1246
 1299ERGO    R216103  17.843  18.333   7.008 -0.4271 -0.1227 -0.0624
 1299ERGO    R316104  17.924  18.116   7.152  0.0123  0.0096 -0.0933
 1299ERGO    R416105  17.793  18.290   7.348 -0.3781 -0.2839 -0.0737
 1299ERGO    R516106  17.993  18.207   7.362 -0.1936  0.1258 -0.0696
 1299ERGO    C116107  17.839  18.063   7.680  0.0631 -0.2538 -0.1093
 1299ERGO    C216108  17.686  18.260   8.011 -0.2633  0.1472 -0.0940
 1300ERGO   ROH16109  13.483  18.728   6.452  0.0347  0.1211 -0.0163
 1300ERGO    R116110  13.489  18.536   6.660 -0.1611  0.1837  0.0503
 1300ERGO    R216111  13.725  18.432   6.759 -0.2658 -0.2071 -0.0860
 1300ERGO    R316112  13.624  18.515   6.997  0.0543  0.0727 -0.0412
 1300ERGO    R416113  13.844  18.335   7.069 -0.2851 -0.3936 -0.1357
 1300ERGO    R516114  13.638  18.322   7.139 -0.2792  0.0696 -0.0067
 1300ERGO    C116115  13.819  18.358   7.473  0.0040 -0.2390 -0.1224
 1300ERGO    C216116  13.808  18.447   7.838  0.1997  0.1886  0.0907
 1301ERGO   ROH16117   8.347  18.102   6.257  0.1946  0.0857 -0.0698
 1301ERGO    R116118   8.281  17.979   6.503  0.1298 -0.1328 -0.1933
 1301ERGO    R216119   8.410  17.753   6.596  0.2751 -0.0733 -0.2455
 1301ERGO    R316120   8.451  17.907   6.817 -0.0268 -0.1709 -0.1162
 1301ERGO    R416121   8.454  17.631   6.916  0.2606 -0.2403 -0.3066
 1301ERGO    R516122   8.331  17.794   6.990  0.0194 -0.4409 -0.2537
 1301ERGO    C116123   8.519  17.703   7.310 -0.0309 -0.4290 -0.2208
 1301ERGO    C216124   8.802  17.627   7.597 -0.0961 -0.1724 -0.1306
 1302ERGO   ROH16125  16.508  18.751   6.845  0.3116 -0.3622  0.2909
 1302ERGO    R116126  16.560  18.816   7.116  0.4469 -0.1694  0.2218
 1302ERGO    R216127  16.703  19.039   7.191  0.0704  0.1601  0.0054
 1302ERGO    R316128  16.483  19.091   7.341  0.0990 -0.2440  0.2004
 1302ERGO    R416129  16.696  19.251   7.464 -0.0920  0.2148 -0.0403
 1302ERGO    R516130  16.567  19.108   7.565  0.2826 -0.0272  0.1195
 1302ERGO    C116131  16.485  19.423   7.764 -0.1594 -0.1328  0.1160
 1302ERGO    C216132  16.618  19.677   8.108 -0.2498 -0.3614 -0.0725
 1303ERGO   ROH16133  11.957   7.105   6.340 -0.1318  0.0570  0.0998
 1303ERGO    R116134  11.966   7.101   6.623 -0.0535 -0.4939  0.0972
 1303ERGO    R216135  12.100   6.905   6.765  0.6652 -0.3475 -0.3482
 1303ERGO    R316136  12.223   7.118   6.880 -0.0309 -0.1312  0.0587
 1303ERGO    R416137  12.234   6.908   7.084  0.8477 -0.6236 -0.4166
 1303ERGO    R516138  12.155   7.109   7.110  0.1135 -0.9223  0.1063
 1303ERGO    C116139  12.427   7.110   7.377  0.3005 -0.5814 -0.0745
 1303ERGO    C216140  12.709   7.168   7.678  0.1933  0.1067  0.1470
 1304ERGO   ROH16141  10.359   1.385   6.585 -0.2946  0.0484  0.0832
 1304ERGO    R116142  10.368   1.293   6.852 -0.1764  0.0970  0.0964
 1304ERGO    R216143  10.534   1.088   6.933 -0.2356  0.0220  0.0318
 1304ERGO    R316144  10.618   1.271   7.116 -0.0204  0.0151 -0.0569
 1304ERGO    R416145  10.680   1.010   7.236 -0.1849  0.0069  0.0039
 1304ERGO    R516146  10.565   1.172   7.327 -0.0214  0.1287 -0.0048
 1304ERGO    C116147  10.844   1.137   7.585  0.0467 -0.0084 -0.0956
 1304ERGO    C216148  10.886   1.031   7.818 -0.0062 -0.1678 -0.0400
 1305ERGO   ROH16149   5.382   7.212   6.138  0.2558 -0.2273  0.1343
 1305ERGO    R116150   5.301   7.208   6.409  0.1999 -0.0928  0.1192
 1305ERGO    R216151   5.479   7.166   6.616  0.1461 -0.0367  0.1690
 1305ERGO    R316152   5.375   7.399   6.710  0.1726  0.0234  0.0546
 1305ERGO    R416153   5.479   7.262   6.948 -0.3967 -0.1701  0.2186
 1305ERGO    R516154   5.277   7.340   6.920 -0.2881  0.0233 -0.1439
 1305ERGO    C116155   5.382   7.537   7.229 -0.6879 -0.1913  0.1401
 1305ERGO    C216156   5.334   7.749   7.704  0.0695  0.1526  0.1324
 1306ERGO   ROH16157   7.966   4.895   5.971 -0.0019 -0.1187  0.0548
 1306ERGO    R116158   7.976   4.791   6.234 -0.0430 -0.2676  0.0002
 1306ERGO    R216159   8.150   4.590   6.308  0.1290 -0.1400 -0.0240
 1306ERGO    R316160   8.224   4.768   6.499 -0.1622 -0.1690  0.1187
 1306ERGO    R416161   8.249   4.506   6.628 -0.0016 -0.1991  0.0004
 1306ERGO    R516162   8.136   4.677   6.703 -0.2065 -0.3474  0.0144
 1306ERGO    C116163   8.376   4.624   6.994 -0.3512 -0.2606  0.1486
 1306ERGO    C216164   8.563   4.599   7.226 -0.0217 -0.2594  0.0343
 1307ERGO   ROH16165   4.836  15.008   5.821 -0.3617 -0.2445  0.0594
 1307ERGO    R116166   4.672  15.084   6.039 -0.2280 -0.0470  0.0927
 1307ERGO    R216167   4.693  14.969   6.289 -0.1150  0.1393  0.1677
 1307ERGO    R316168   4.721  15.227   6.370 -0.0204  0.1967 -0.0389
 1307ERGO    R416169   4.575  15.096   6.588  0.2304  0.3393  0.2260
 1307ERGO    R516170   4.515  15.277   6.481  0.1048  0.2684  0.1696
 1307ERGO    C116171   4.532  15.412   6.838  0.5203  0.5097  0.0660
 1307ERGO    C216172   4.634  15.542   7.090 -0.1373  0.0621 -0.0887
 1308ERGO   ROH16173  14.003  10.442   6.437  0.0195 -0.0283 -0.0788
 1308ERGO    R116174  14.128  10.458   6.691 -0.1799  0.0325  0.0180
 1308ERGO    R216175  14.056  10.296   6.902 -0.0612 -0.2158 -0.1239
 1308ERGO    R316176  14.321  10.237   6.906  0.0425  0.2223  0.0166
 1308ERGO    R416177  14.228  10.186   7.180 -0.0983 -0.2382 -0.1106
 1308ERGO    R516178  14.395  10.314   7.120 -0.2573  0.1115  0.1637
 1308ERGO    C116179  14.578  10.066   7.346 -0.0227  0.1602  0.0291
 1308ERGO    C216180  14.742   9.981   7.579  0.4168 -0.0604  0.0555
 1309ERGO   ROH16181   6.195  18.338   5.581  0.0553 -0.2143  0.1365
 1309ERGO    R116182   6.075  18.479   5.795  0.0719 -0.1723  0.1188
 1309ERGO    R216183   5.902  18.358   5.975  0.0617 -0.1307  0.1398
 1309ERGO    R316184   6.075  18.457   6.159  0.0755 -0.1223  0.1213
 1309ERGO    R416185   5.850  18.357   6.316 -0.0787  0.2218  0.1239
 1309ERGO    R516186   5.935  18.557   6.325  0.0969  0.1539 -0.0219
 1309ERGO    C116187   5.983  18.449   6.688 -0.1474  0.4349  0.0972
 1309ERGO    C216188   6.123  18.469   7.002 -0.1008 -0.0052 -0.4647
 1310ERGO   ROH16189   6.676  14.710   5.806 -0.3466 -0.0086 -0.0641
 1310ERGO    R116190   6.662  14.634   6.078 -0.2171  0.0058 -0.0523
 1310ERGO    R216191   6.883  14.636   6.245 -0.1071 -0.1095 -0.1875
 1310ERGO    R316192   6.724  14.792   6.400  0.0719 -0.0164 -0.0961
 1310ERGO    R416193   6.894  14.648   6.590 -0.1241 -0.3476 -0.1770
 1310ERGO    R516194   6.676  14.658   6.592 -0.1106 -0.0823 -0.1902
 1310ERGO    C116195   6.750  14.803   6.936  0.0340 -0.3987 -0.0850
 1310ERGO    C216196   6.905  15.081   7.163 -0.0459 -0.2082 -0.0922
 1311ERGO   ROH16197   3.250   8.471   6.217  0.1465 -0.1065 -0.1219
 1311ERGO    R116198   3.166   8.240   6.357  0.0591 -0.0474 -0.0753
 1311ERGO    R216199   3.262   8.176   6.609  0.1418 -0.1064 -0.1200
 1311ERGO    R316200   2.997   8.169   6.672  0.1664  0.0759  0.0109
 1311ERGO    R416201   3.133   8.049   6.903  0.1722 -0.4427 -0.2472
 1311ERGO    R516202   2.970   7.961   6.788  0.0117 -0.0872 -0.3053
 1311ERGO    C116203   2.810   7.969   7.134  0.2129 -0.4676 -0.1984
 1311ERGO    C216204   2.479   7.901   7.198 -0.0185  0.0791  0.1462
 1312ERGO   ROH16205   4.981   2.771   5.953 -0.1336  0.1849 -0.0231
 1312ERGO    R116206   5.129   2.689   6.179 -0.1981  0.1390  0.0025
 1312ERGO    R216207   5.404   2.711   6.193 -0.1757 -0.1053 -0.0193
 1312ERGO    R316208   5.350   2.846   6.422 -0.0437  0.0362 -0.0697
 1312ERGO    R416209   5.601   2.705   6.477 -0.0770 -0.0268 -0.0848
 1312ERGO    R516210   5.419   2.698   6.597 -0.0370  0.1032 -0.0153
 1312ERGO    C116211   5.664   2.829   6.858  0.1043  0.1517 -0.1702
 1312ERGO    C216212   5.783   2.816   7.149  0.1285  0.0327 -0.0822
 1313ERGO   ROH16213   9.300  12.137   6.286  0.0489  0.1102  0.0466
 1313ERGO    R116214   9.122  12.112   6.505 -0.0675  0.1870 -0.0381
 1313ERGO    R216215   9.210  12.086   6.765 -0.1981 -0.0803 -0.0189
 1313ERGO    R316216   9.048  12.300   6.807  0.0405  0.0910  0.0494
 1313ERGO    R416217   9.053  12.157   7.064 -0.1744 -0.0431 -0.0153
 1313ERGO    R516218   8.875  12.216   6.951 -0.0879  0.2189 -0.0254
 1313ERGO    C116219   8.809  12.400   7.279  0.0634  0.1395  0.0509
 1313ERGO    C216220   8.930  12.378   7.568 -0.1081 -0.2787 -0.0452
 1314ERGO   ROH16221  18.669   5.754   5.982 -0.3177 -0.0535 -0.0360
 1314ERGO    R116222  18.847   5.806   6.196 -0.2029  0.0367 -0.1524
 1314ERGO    R216223  18.783   5.750   6.459 -0.0204  0.0493 -0.1102
 1314ERGO    R316224  19.015   5.609   6.452  0.0279  0.1315 -0.2265
 1314ERGO    R416225  18.956   5.641   6.737  0.1040  0.0409 -0.1892
 1314ERGO    R516226  19.142   5.694   6.637  0.0576  0.1342 -0.2415
 1314ERGO    C116227  19.275   5.445   6.893  0.2218  0.1132 -0.3445
 1314ERGO    C216228  19.540   5.442   7.104 -0.1524  0.0548  0.1571
 1315ERGO   ROH16229   9.334   1.097   6.453 -0.2798  0.0821  0.0724
 1315ERGO    R116230   9.495   1.025   6.675 -0.2710  0.2303  0.1160
 1315ERGO    R216231   9.420   1.077   6.936 -0.3964  0.1491  0.1000
 1315ERGO    R316232   9.462   0.810   6.967 -0.1465  0.1869  0.0976
 1315ERGO    R416233   9.392   0.906   7.235 -0.4416  0.0831  0.0576
 1315ERGO    R516234   9.569   0.791   7.180 -0.2837  0.2704  0.1731
 1315ERGO    C116235   9.416   0.556   7.438 -0.2333  0.0802  0.0307
 1315ERGO    C216236   9.453   0.368   7.674 -0.0522 -0.2972 -0.3186
 1316ERGO   ROH16237  12.621   9.966   6.683  0.0102  0.1112  0.0346
 1316ERGO    R116238  12.492  10.007   6.932 -0.0749  0.0525  0.0008
 1316ERGO    R216239  12.424   9.799   7.101  0.0508  0.0267  0.0203
 1316ERGO    R316240  12.567   9.943   7.282 -0.0979  0.1682  0.0273
 1316ERGO    R416241  12.423   9.744   7.442  0.0072  0.0945  0.0313
 1316ERGO    R516242  12.422   9.960   7.472 -0.1578  0.1011 -0.0118
 1316ERGO    C116243  12.557   9.847   7.811 -0.1581  0.2668  0.0443
 1316ERGO    C216244  12.644   9.891   8.168 -0.1229 -0.2874  0.2777
 1317ERGO   ROH16245  18.329  12.823   7.536 -0.0194 -0.1793  0.2297
 1317ERGO    R116246  18.485  12.879   7.765  0.0433 -0.0255  0.1509
 1317ERGO    R216247  18.759  12.843   7.772  0.0429 -0.0616  0.1149
 1317ERGO    R316248  18.759  13.103   7.849  0.0967 -0.0003 -0.0885
 1317ERGO    R416249  18.957  12.975   8.022 -0.0388  0.0704  0.1104
 1317ERGO    R516250  18.788  13.095   8.086 -0.0254  0.1804 -0.0690
 1317ERGO    C116251  19.073  13.296   8.240 -0.0358  0.2050 -0.0832
 1317ERGO    C216252  19.356  13.648   8.155  0.2280 -0.3143  0.1041
 1318ERGO   ROH16253   7.255   0.082   6.214 -0.0036  0.1243  0.0588
 1318ERGO    R116254   7.386   0.057   6.464 -0.0587 -0.0319  0.0739
 1318ERGO    R216255   7.466   0.276   6.613  0.1749 -0.1226  0.0913
 1318ERGO    R316256   7.319   0.155   6.808  0.0120  0.0354  0.0678
 1318ERGO    R416257   7.498   0.337   6.951  0.1570 -0.1287  0.0933
 1318ERGO    R516258   7.474   0.124   6.988 -0.0602 -0.1021  0.1051
 1318ERGO    C116259   7.380   0.260   7.331 -0.0063  0.0160  0.0725
 1318ERGO    C216260   7.245   0.169   7.718  0.1888 -0.0997  0.1679
 1319ERGO   ROH16261  17.362  16.679   6.653  0.0720 -0.1075  0.1772
 1319ERGO    R116262  17.185  16.740   6.866 -0.0297  0.1571  0.0235
 1319ERGO    R216263  17.215  16.634   7.119 -0.5222 -0.0522  0.0108
 1319ERGO    R316264  17.211  16.895   7.195 -0.0348 -0.0709  0.1322
 1319ERGO    R416265  17.104  16.749   7.426 -0.5438  0.0319 -0.0299
 1319ERGO    R516266  17.010  16.916   7.323 -0.1061  0.2893 -0.0319
 1319ERGO    C116267  17.036  17.061   7.675 -0.0990  0.0630  0.0602
 1319ERGO    C216268  16.905  17.046   7.957 -0.2741  0.2297 -0.4639
 1320ERGO   ROH16269   6.135   7.972   6.134  0.1452 -0.1215 -0.0505
 1320ERGO    R116270   6.101   7.899   6.405  0.1778 -0.1437 -0.0531
 1320ERGO    R216271   6.312   7.884   6.583  0.1778 -0.0083 -0.0431
 1320ERGO    R316272   6.158   8.053   6.730  0.0611 -0.1072 -0.0494
 1320ERGO    R416273   6.350   7.943   6.922  0.2275  0.1385 -0.0731
 1320ERGO    R516274   6.133   7.943   6.941  0.2321 -0.0632 -0.0051
 1320ERGO    C116275   6.227   8.136   7.256  0.1468  0.1311 -0.0964
 1320ERGO    C216276   6.094   8.338   7.546  0.1513  0.0865 -0.0993
 1321ERGO   ROH16277  11.022   9.619   6.862 -0.0731  0.1249  0.0821
 1321ERGO    R116278  11.087   9.539   7.126  0.0996  0.0605  0.0222
 1321ERGO    R216279  11.349   9.514   7.214  0.1607  0.3303 -0.0667
 1321ERGO    R316280  11.264   9.684   7.409  0.0063  0.1264  0.0464
 1321ERGO    R416281  11.532   9.605   7.492 -0.0177  0.1320  0.1191
 1321ERGO    R516282  11.351   9.591   7.611 -0.0767 -0.0322  0.0099
 1321ERGO    C116283  11.559   9.817   7.837 -0.2667 -0.1748  0.3335
 1321ERGO    C216284  11.641   9.882   8.135 -0.2355 -0.1474 -0.3558
 1322ERGO   ROH16285   6.335  18.156   5.974 -0.0455  0.1560 -0.0401
 1322ERGO    R116286   6.481  18.115   6.213 -0.0200  0.0738 -0.0700
 1322ERGO    R216287   6.444  18.271   6.439  0.0640  0.0484 -0.0424
 1322ERGO    R316288   6.403  18.030   6.558  0.0112  0.0430 -0.0695
 1322ERGO    R416289   6.473  18.211   6.778 -0.0332  0.0299 -0.0367
 1322ERGO    R516290   6.568  18.021   6.731 -0.0339  0.0220 -0.0236
 1322ERGO    C116291   6.452  17.950   7.088 -0.1394  0.0141 -0.0588
 1322ERGO    C216292   6.566  17.798   7.391 -0.1034  0.1435 -0.2514
 1323ERGO   ROH16293   2.087   6.815   6.125 -0.5667 -0.0483 -0.0348
 1323ERGO    R116294   2.255   6.791   6.351 -0.2892 -0.1259 -0.2420
 1323ERGO    R216295   2.156   6.773   6.610  0.0277  0.1040 -0.0905
 1323ERGO    R316296   2.306   6.547   6.617 -0.2124 -0.0613 -0.2005
 1323ERGO    R416297   2.266   6.615   6.897  0.3077  0.1365 -0.1781
 1323ERGO    R516298   2.456   6.579   6.800  0.1138 -0.1313 -0.4549
 1323ERGO    C116299   2.471   6.311   7.070  0.2453  0.0002 -0.3324
 1323ERGO    C216300   2.616   6.137   7.306 -0.2267  0.2640 -0.0697
 1324ERGO   ROH16301   9.169  15.081   7.621 -0.0964  0.0533 -0.0482
 1324ERGO    R116302   9.379  15.174   7.787 -0.2137 -0.0329  0.1522
 1324ERGO    R216303   9.575  15.346   7.696  0.1601 -0.4082  0.2250
 1324ERGO    R316304   9.496  15.496   7.908  0.0399 -0.0376 -0.0690
 1324ERGO    R416305   9.776  15.571   7.863  0.1300 -0.2612  0.0673
 1324ERGO    R516306   9.689  15.503   8.051 -0.0839  0.0689  0.1010
 1324ERGO    C116307   9.820  15.844   8.161 -0.0004  0.1722 -0.3006
 1324ERGO    C216308   9.766  16.201   8.275 -0.0970 -0.1516  0.0049
 1325ERGO   ROH16309  11.991  10.872   7.062 -0.3244 -0.2585  0.0756
 1325ERGO    R116310  11.801  10.915   7.267 -0.1831 -0.2065  0.1965
 1325ERGO    R216311  11.650  10.711   7.375 -0.2009 -0.1549  0.2570
 1325ERGO    R316312  11.750  10.804   7.610 -0.0260 -0.2298  0.2141
 1325ERGO    R416313  11.484  10.700   7.678 -0.0655 -0.0743  0.3361
 1325ERGO    R516314  11.561  10.900   7.722  0.0812 -0.1188  0.3117
 1325ERGO    C116315  11.482  10.780   8.075  0.1775 -0.0979  0.3418
 1325ERGO    C216316  11.298  10.738   8.378 -0.1748  0.0828  0.2262
 1326ERGO   ROH16317  10.746   9.286   6.991 -0.1691  0.4423 -0.1084
 1326ERGO    R116318  10.563   9.151   7.161  0.0009  0.2631 -0.0653
 1326ERGO    R216319  10.645   8.967   7.350  0.2238  0.3252 -0.1012
 1326ERGO    R316320  10.504   9.127   7.519  0.1222  0.1844 -0.0494
 1326ERGO    R416321  10.577   8.893   7.681  0.0678  0.0659 -0.1871
 1326ERGO    R516322  10.377   8.975   7.653  0.0705  0.0660 -0.2263
 1326ERGO    C116323  10.406   9.001   8.032 -0.1185 -0.2172 -0.1885
 1326ERGO    C216324  10.380   9.091   8.374 -0.0202 -0.1956  0.0337
 1327ERGO   ROH16325  14.924  17.498   6.644  0.0715 -0.0056 -0.0568
 1327ERGO    R116326  15.041  17.278   6.778 -0.0009 -0.0070  0.0068
 1327ERGO    R216327  15.202  17.307   7.001  0.0168  0.0047 -0.0026
 1327ERGO    R316328  15.026  17.132   7.111 -0.0449  0.1010  0.0514
 1327ERGO    R416329  15.239  17.158   7.310  0.0392 -0.0403 -0.0276
 1327ERGO    R516330  15.164  16.972   7.224 -0.1008  0.0123 -0.0105
 1327ERGO    C116331  15.095  16.907   7.594 -0.0057  0.0237  0.0086
 1327ERGO    C216332  15.265  16.695   7.807  0.1624 -0.2201  0.2292
 1328ERGO   ROH16333   4.412   9.368   5.938  0.0940  0.0350 -0.1098
 1328ERGO    R116334   4.547   9.282   6.172  0.0109 -0.0148 -0.0797
 1328ERGO    R216335   4.673   9.458   6.344 -0.0132 -0.0555 -0.0198
 1328ERGO    R316336   4.516   9.337   6.530 -0.0878 -0.0546 -0.0816
 1328ERGO    R416337   4.726   9.472   6.685 -0.1172 -0.0999 -0.0014
 1328ERGO    R516338   4.670   9.262   6.698 -0.1500 -0.0937 -0.0417
 1328ERGO    C116339   4.609   9.368   7.059 -0.2479 -0.1249 -0.0488
 1328ERGO    C216340   4.438   9.305   7.294  0.0037  0.0295  0.0855
 1329ERGO   ROH16341  13.482  11.563   6.746 -0.3342 -0.0073 -0.0368
 1329ERGO    R116342  13.360  11.570   7.001 -0.2530  0.1337 -0.0001
 1329ERGO    R216343  13.477  11.459   7.225 -0.3217 -0.0249 -0.0348
 1329ERGO    R316344  13.440  11.708   7.329  0.0181  0.0235 -0.0191
 1329ERGO    R416345  13.431  11.528   7.561 -0.4551  0.0009 -0.0583
 1329ERGO    R516346  13.280  11.676   7.505 -0.1670  0.2644 -0.1435
 1329ERGO    C116347  13.369  11.802   7.853 -0.2137  0.0612 -0.0573
 1329ERGO    C216348  13.447  11.816   8.244  0.1102  0.0598 -0.3147
 1330ERGO   ROH16349  17.351   1.108   6.654  0.0521  0.2298 -0.0627
 1330ERGO    R116350  17.327   0.995   6.913 -0.0541  0.0261 -0.1601
 1330ERGO    R216351  17.541   0.970   7.085 -0.1283 -0.0905 -0.0839
 1330ERGO    R316352  17.378   1.105   7.256 -0.2148 -0.2365 -0.0490
 1330ERGO    R416353  17.583   0.982   7.428  0.1119  0.1887 -0.1182
 1330ERGO    R516354  17.366   0.963   7.449  0.1510 -0.1392  0.0531
 1330ERGO    C116355  17.454   1.115   7.788  0.1706  0.2143 -0.1053
 1330ERGO    C216356  17.704   1.132   8.006  0.2938  0.1725 -0.0227
 1331ERGO   ROH16357   3.530   9.932   5.847 -0.0564 -0.1178 -0.1654
 1331ERGO    R116358   3.465  10.068   6.087  0.0205  0.0754 -0.2494
 1331ERGO    R216359   3.233  10.215   6.115 -0.0446 -0.0051 -0.2499
 1331ERGO    R316360   3.196  10.056   6.332  0.1699  0.1650 -0.0850
 1331ERGO    R416361   2.976  10.250   6.344 -0.2023 -0.2533 -0.3870
 1331ERGO    R516362   3.118  10.205   6.503 -0.1852  0.1989 -0.2813
 1331ERGO    C116363   2.791  10.120   6.680 -0.0928 -0.2381 -0.3121
 1331ERGO    C216364   2.589  10.350   6.780  0.2911 -0.0403 -0.2294
 1332ERGO   ROH16365   3.388  16.335   5.676  0.1415 -0.1669 -0.2335
 1332ERGO    R116366   3.367  16.309   5.957  0.1318 -0.2335 -0.2404
 1332ERGO    R216367   3.587  16.266   6.119  0.1645  0.0191 -0.2148
 1332ERGO    R316368   3.493  16.486   6.250 -0.1330 -0.1137 -0.1959
 1332ERGO    R416369   3.615  16.321   6.459  0.1253  0.0473 -0.2157
 1332ERGO    R516370   3.412  16.401   6.459  0.0084 -0.2377 -0.1899
 1332ERGO    C116371   3.544  16.559   6.780 -0.1768 -0.0607 -0.1986
 1332ERGO    C216372   3.753  16.449   7.036  0.0426  0.0353 -0.1573
 1333ERGO   ROH16373   2.734   3.807   6.192  0.2225 -0.0749 -0.0932
 1333ERGO    R116374   2.780   3.699   6.450  0.2091 -0.0683 -0.0863
 1333ERGO    R216375   3.034   3.646   6.546  0.2135 -0.0057 -0.0426
 1333ERGO    R316376   2.952   3.802   6.753  0.1344 -0.0256 -0.0607
 1333ERGO    R416377   3.162   3.632   6.867  0.1497  0.0399 -0.0163
 1333ERGO    R516378   2.959   3.657   6.944  0.1348 -0.0126 -0.0572
 1333ERGO    C116379   3.160   3.770   7.248  0.0383  0.0479 -0.0179
 1333ERGO    C216380   3.134   3.700   7.573 -0.0411  0.1736  0.0051
 1334ERGO   ROH16381  15.386   3.264   6.231 -0.0001  0.0049  0.0783
 1334ERGO    R116382  15.476   3.200   6.492  0.0360 -0.0557  0.0503
 1334ERGO    R216383  15.570   3.392   6.668 -0.0789 -0.0786  0.1305
 1334ERGO    R316384  15.381   3.287   6.832 -0.0150 -0.2611  0.0915
 1334ERGO    R416385  15.593   3.380   7.012 -0.2656  0.2455  0.1589
 1334ERGO    R516386  15.506   3.180   7.006  0.0659  0.0842  0.2608
 1334ERGO    C116387  15.429   3.274   7.367 -0.3145  0.2628  0.1388
 1334ERGO    C216388  15.614   3.256   7.612  0.0615 -0.1373  0.2332
 1335ERGO   ROH16389   0.970   9.657   6.080 -0.2754 -0.0553  0.1969
 1335ERGO    R116390   1.020   9.829   6.298  0.0990  0.1048 -0.0060
 1335ERGO    R216391   0.988   9.750   6.561 -0.1542  0.5016  0.0884
 1335ERGO    R316392   1.245   9.835   6.585  0.0630 -0.0879  0.0285
 1335ERGO    R416393   1.116   9.920   6.834  0.1979  0.5329 -0.0898
 1335ERGO    R516394   1.228  10.046   6.696  0.5444  0.1061 -0.2290
 1335ERGO    C116395   1.432  10.098   7.014  0.6067 -0.0023 -0.2497
 1335ERGO    C216396   1.445  10.189   7.368  0.1123  0.0679 -0.0473
 1336ERGO   ROH16397   5.093  14.613   8.986  0.2436  0.0734  0.1214
 1336ERGO    R116398   5.175  14.584   8.717  0.2110  0.1389  0.1050
 1336ERGO    R216399   5.014  14.469   8.524  0.2754 -0.0183  0.1491
 1336ERGO    R316400   5.062  14.702   8.392  0.0298  0.0204  0.1216
 1336ERGO    R416401   5.057  14.499   8.182  0.2277 -0.0228  0.1422
 1336ERGO    R516402   5.216  14.643   8.219  0.0876  0.1509  0.1206
 1336ERGO    C116403   5.126  14.735   7.859 -0.0307  0.0108  0.1125
 1336ERGO    C216404   4.967  14.802   7.482  0.0658  0.0900 -0.0804
 1337ERGO   ROH16405  15.973  12.903   6.589 -0.0246 -0.0079 -0.2041
 1337ERGO    R116406  15.708  12.908   6.490 -0.0687 -0.0424 -0.0936
 1337ERGO    R216407  15.503  12.764   6.607 -0.0256 -0.0052  0.0466
 1337ERGO    R316408  15.381  13.007   6.615 -0.0122  0.0011  0.0159
 1337ERGO    R416409  15.161  12.813   6.625 -0.0202  0.0274  0.0394
 1337ERGO    R516410  15.182  12.978   6.484 -0.0113  0.0034  0.0237
 1337ERGO    C116411  14.847  13.068   6.643 -0.0044  0.0521  0.0064
 1337ERGO    C216412  14.445  13.258   6.649  0.1623  0.0608  0.2031
 1338ERGO   ROH16413  10.252   5.611   6.071  0.2025 -0.3479 -0.1239
 1338ERGO    R116414  10.170   5.745   6.306  0.2733 -0.2043 -0.1801
 1338ERGO    R216415   9.957   5.660   6.460  0.1002  0.0883 -0.2517
 1338ERGO    R316416  10.141   5.664   6.660  0.0263 -0.1098 -0.1763
 1338ERGO    R416417   9.896   5.767   6.783  0.0715  0.1179 -0.2668
 1338ERGO    R516418  10.091   5.864   6.783  0.1687 -0.0701 -0.1793
 1338ERGO    C116419  10.033   5.834   7.159 -0.0147 -0.0507 -0.2049
 1338ERGO    C216420   9.913   5.758   7.421  0.0219  0.1208  0.0840
 1339ERGO   ROH16421   0.092  10.119   6.256  0.0310 -0.2299  0.0539
 1339ERGO    R116422   0.099  10.004   6.515  0.0628  0.0258  0.1707
 1339ERGO    R216423   0.052  10.151   6.744 -0.0602  0.2251  0.0246
 1339ERGO    R316424  -0.135   9.959   6.790  0.0484  0.1561  0.1796
 1339ERGO    R416425  -0.111  10.102   7.045  0.1931  0.1739  0.1553
 1339ERGO    R516426  -0.092   9.887   7.015  0.2511  0.1808  0.1497
 1339ERGO    C116427  -0.381   9.894   7.264  0.4424  0.0791  0.3769
 1339ERGO    C216428  -0.487  10.079   7.472  0.3641  0.2724  0.1745
 1340ERGO   ROH16429  13.513   2.562   6.478 -0.0161 -0.1590  0.0045
 1340ERGO    R116430  13.604   2.552   6.746  0.2448  0.0854 -0.0702
 1340ERGO    R216431  13.755   2.753   6.860 -0.1848  0.5043 -0.2091
 1340ERGO    R316432  13.559   2.750   7.048 -0.0320 -0.0170 -0.0418
 1340ERGO    R416433  13.795   2.853   7.188 -0.1101  0.3292 -0.1633
 1340ERGO    R516434  13.671   2.684   7.249  0.2610  0.0392 -0.1825
 1340ERGO    C116435  13.634   2.907   7.556  0.0766 -0.2622  0.0204
 1340ERGO    C216436  13.760   2.813   7.895  0.2196 -0.0984  0.2071
 1341ERGO   ROH16437   0.502   8.573   6.063 -0.0820 -0.0008  0.1094
 1341ERGO    R116438   0.525   8.593   6.345  0.1469 -0.0961  0.1010
 1341ERGO    R216439   0.312   8.546   6.515  0.1462  0.3221  0.2342
 1341ERGO    R316440   0.485   8.371   6.630 -0.1400 -0.0718  0.0814
 1341ERGO    R416441   0.315   8.463   6.850  0.2418  0.2998  0.2273
 1341ERGO    R516442   0.533   8.466   6.844  0.2521 -0.1836  0.0485
 1341ERGO    C116443   0.478   8.250   7.154  0.0288 -0.0827  0.0798
 1341ERGO    C216444   0.494   7.999   7.451 -0.1953  0.0480 -0.3810
 1342ERGO   ROH16445   4.929  18.445   5.627 -0.1137 -0.0196  0.1623
 1342ERGO    R116446   4.866  18.606   5.850 -0.1800 -0.0570  0.1712
 1342ERGO    R216447   4.758  18.503   6.083 -0.0601 -0.1269  0.1981
 1342ERGO    R316448   4.970  18.629   6.198 -0.1215  0.0238  0.1483
 1342ERGO    R416449   4.791  18.566   6.421 -0.0333 -0.0799  0.1867
 1342ERGO    R516450   4.873  18.762   6.372 -0.1747 -0.0289  0.1573
 1342ERGO    C116451   5.008  18.720   6.726 -0.0753  0.0889  0.1333
 1342ERGO    C216452   5.029  18.687   7.062  0.0369  0.0156  0.0217
 1343ERGO   ROH16453   0.112   7.895   5.638  0.0650 -0.0159  0.1503
 1343ERGO    R116454  -0.053   7.747   5.814  0.0750 -0.0751  0.1092
 1343ERGO    R216455  -0.015   7.744   6.088 -0.0628  0.0352  0.1298
 1343ERGO    R316456  -0.275   7.821   6.093 -0.1204 -0.1405 -0.0269
 1343ERGO    R416457  -0.236   7.677   6.345 -0.0940  0.1405  0.1314
 1343ERGO    R516458  -0.390   7.638   6.196 -0.0235 -0.1180  0.1230
 1343ERGO    C116459  -0.609   7.711   6.499 -0.1661  0.0368 -0.0148
 1343ERGO    C216460  -0.691   7.755   6.736  0.1999 -0.0662 -0.0472
 1344ERGO   ROH16461   7.731   9.812   6.540  0.1069 -0.1715  0.1113
 1344ERGO    R116462   7.820   9.787   6.808  0.1692  0.0923  0.1181
 1344ERGO    R216463   7.844  10.004   6.978 -0.2323  0.2073  0.0393
 1344ERGO    R316464   7.684   9.854   7.139  0.0520 -0.0420  0.0981
 1344ERGO    R416465   7.748  10.092   7.298 -0.4271  0.1681 -0.0072
 1344ERGO    R516466   7.776   9.885   7.358 -0.0156  0.2429  0.0903
 1344ERGO    C116467   7.542  10.003   7.635 -0.2737 -0.0887  0.0210
 1344ERGO    C216468   7.487  10.015   7.930  0.0123  0.1787 -0.3388
 1345ERGO   ROH16469   4.309  11.804   5.957  0.1900 -0.0108 -0.1065
 1345ERGO    R116470   4.420  11.905   6.197  0.0269 -0.0378 -0.0174
 1345ERGO    R216471   4.265  12.001   6.405 -0.1186 -0.1310 -0.0788
 1345ERGO    R316472   4.406  11.820   6.550 -0.1508 -0.1285 -0.0456
 1345ERGO    R416473   4.241  11.960   6.747  0.0943  0.1406 -0.0278
 1345ERGO    R516474   4.456  11.934   6.755  0.0805 -0.0144 -0.1639
 1345ERGO    C116475   4.359  11.767   7.083  0.1879  0.3011  0.0330
 1345ERGO    C216476   4.143  11.601   7.242  0.1559  0.0876 -0.2774
 1346W        W16477  14.368   9.909   5.338 -0.0107  0.3573 -0.1364
 1347W        W16478  15.001   1.994   4.719  0.1137 -0.0174 -0.3202
 1348W        W16479   9.874   1.517  13.429  0.0406 -0.0778  0.2844
 1349W        W16480  18.566   8.400  15.441 -0.2476 -0.0007 -0.0510
 1350W        W16481   2.662  15.881   0.269  0.0859  0.0930  0.0280
 1351W        W16482  17.504  12.910   4.312 -0.0974 -0.0945  0.1879
 1352W        W16483   9.757   5.613  10.360  0.1248  0.1608 -0.0411
 1353W        W16484   8.056   9.595  10.198  0.0955 -0.2539 -0.0056
 1354W        W16485  18.232   4.009  13.956 -0.0556  0.1187  0.5336
 1355W        W16486   0.179  11.929   3.499  0.0726 -0.1289 -0.1286
 1356W        W16487   2.144  18.088   4.828  0.2602 -0.0390 -0.0681
 1357W        W16488  14.620  14.249   3.844 -0.1521  0.1236  0.3717
 1358W        W16489  18.131   1.490   1.488  0.0534 -0.1504 -0.1693
 1359W        W16490  12.331   4.729   2.782 -0.0256 -0.0961 -0.1181
 1360W        W16491   7.295  14.374  11.819 -0.0724  0.1703  0.0517
 1361W        W16492  13.565   1.697  11.600  0.0591 -0.3523 -0.0872
 1362W        W16493  11.282   9.000  13.282 -0.1178  0.0377 -0.3397
 1363W        W16494  10.293   1.233  14.234  0.3125  0.0259 -0.1081
 1364W        W16495  17.658  13.789   2.632  0.0374  0.1641 -0.1164
 1365W        W16496  18.049   3.042   5.528 -0.0562 -0.0654  0.2474
 1366W        W16497  16.932  15.496   0.947  0.0971 -0.4947  0.2240
 1367W        W16498   9.170  15.685  12.539 -0.1139  0.1196 -0.1172
 1368W        W16499  14.060  11.991   4.408 -0.0014 -0.0926  0.0749
 1369W        W16500  10.473   1.659   1.169 -0.3608  0.1219 -0.0387
 1370W        W16501  17.386   6.042  15.140  0.3322 -0.1009  0.1787
 1371W        W16502  13.148   6.781   4.680 -0.1327  0.1194 -0.5897
 1372W        W16503  13.854  12.074   5.721 -0.2726  0.1972 -0.2492
 1373W        W16504  17.770  11.983  12.046 -0.0144 -0.2642 -0.3156
 1374W        W16505   8.953   4.829  13.037  0.2926  0.1741 -0.0190
 1375W        W16506  10.385  13.856   3.131 -0.1404 -0.0466  0.1852
 1376W        W16507  11.847   3.625   4.639  0.2682 -0.0096  0.2751
 1377W        W16508   3.119  11.935  14.665  0.0200 -0.4840  0.0680
 1378W        W16509   0.803   5.071   2.993  0.0843 -0.0788  0.3653
 1379W        W16510   4.761  13.434   3.603  0.0736 -0.3688  0.0843
 1380W        W16511   1.892   2.408   4.897 -0.1884  0.1566 -0.3017
 1381W        W16512   8.864  15.427  15.365  0.0009  0.0543 -0.1576
 1382W        W16513  14.343   7.043  12.728 -0.5940  0.2775  0.2814
 1383W        W16514   9.270  10.556  15.486 -0.0758  0.1670  0.0780
 1384W        W16515  12.047  15.320   1.969  0.3453  0.0647  0.0254
 1385W        W16516  10.642   8.057  13.770 -0.0093  0.2084 -0.0810
 1386W        W16517   6.839   0.072  12.904 -0.1666  0.1102 -0.1571
 1387W        W16518  17.881   9.413  14.159 -0.1212 -0.4152 -0.1429
 1388W        W16519   2.224   4.636   3.896 -0.1976  0.1461  0.1252
 1389W        W16520  16.351  14.550   3.577  0.2614  0.2446 -0.1316
 1390W        W16521   7.615  17.127  12.718 -0.2321 -0.1388  0.3254
 1391W        W16522  15.801   9.592   1.615  0.0897  0.0893  0.0033
 1392W        W16523  18.306   3.041   4.689  0.2931  0.1191 -0.0615
 1393W        W16524  13.133   4.212  14.752  0.1491 -0.0820 -0.1606
 1394W        W16525   7.411  18.050   5.671 -0.3153  0.1459 -0.0735
 1395W        W16526   9.593  14.829   3.543 -0.3307 -0.1676  0.5267
 1396W        W16527  17.529  11.658   1.763 -0.3410 -0.0704 -0.0583
 1397W        W16528  15.660  16.325   2.880  0.1672  0.1855 -0.2649
 1398W        W16529  11.154  18.288   3.715  0.3566  0.1074  0.1546
 1399W        W16530  14.230   8.587   2.945  0.0336 -0.3552  0.0845
 1400W        W16531   5.469  10.947   0.833  0.0216 -0.1822 -0.1421
 1401W        W16532   9.013   8.649  14.213  0.0794 -0.3293 -0.1547
 1402W        W16533   5.657   6.239   4.362 -0.1314  0.0351  0.1819
 1403W        W16534  11.260   0.895  15.312 -0.1218  0.0154 -0.2952
 1404W        W16535  14.240   1.103   5.896 -0.3195  0.0832  0.1220
 1405W        W16536  14.134  11.210   0.517 -0.3221  0.1756  0.1583
 1406W        W16537  10.327  17.174  11.514 -0.1024 -0.2104  0.0041
 1407W        W16538  15.390   7.241   1.147 -0.1299  0.1263  0.0836
 1408W        W16539   0.828   1.201  10.546 -0.0232  0.4069  0.0798
 1409W        W16540   6.386  12.769   5.458 -0.2214  0.3840  0.1087
 1410W        W16541   2.700   4.576  11.757  0.1801 -0.1240  0.2041
 1411W        W16542  14.453  16.002  14.588  0.0907  0.0937 -0.1213
 1412W        W16543   9.025  11.124   2.553 -0.1360  0.0063  0.3304
 1413W        W16544  14.262   6.516  12.264  0.2083  0.0795  0.0733
 1414W        W16545   3.803  12.286   9.681 -0.0550 -0.1809 -0.0237
 1415W        W16546   7.516   6.197  10.638 -0.0365 -0.0976 -0.0351
 1416W        W16547  13.595   6.058  13.100  0.1693 -0.3583 -0.1949
 1417W        W16548   7.244   9.414   0.607  0.0710  0.0343  0.0861
 1418W        W16549  10.172  18.672   4.469 -0.1474  0.0057 -0.0385
 1419W        W16550   7.459  14.111   0.460 -0.0789 -0.0605  0.1379
 1420W        W16551  12.308   8.564  12.821 -0.0676 -0.4586 -0.0791
 1421W        W16552   5.865   7.029   0.174 -0.0761  0.0916  0.0313
 1422W        W16553   6.002  18.617  10.917  0.1469 -0.0839 -0.0011
 1423W        W16554  13.245  14.643   4.024  0.0058 -0.2669 -0.0506
 1424W        W16555  18.739  14.830   5.544  0.0175 -0.0123  0.0109
 1425W        W16556  15.186   4.882  14.667  0.1354  0.1533  0.0368
 1426W        W16557   9.370   1.561   3.358 -0.0402 -0.1821 -0.3961
 1427W        W16558   6.670   3.576   1.132 -0.3416  0.3530  0.0853
 1428W        W16559   4.869   8.944   2.490 -0.0834 -0.0883 -0.1756
 1429W        W16560   9.165   5.131  15.099  0.0179 -0.1910  0.1697
 1430W        W16561  12.475  16.524   5.033 -0.0125 -0.0130 -0.4728
 1431W        W16562  12.373   1.042  15.745  0.1856  0.0380  0.1716
 1432W        W16563  16.130   4.662  13.063  0.0692  0.0061 -0.1854
 1433W        W16564   9.597  11.220   1.119  0.2249 -0.1063  0.1810
 1434W        W16565   1.942   0.408  13.752 -0.1567  0.2679 -0.3836
 1435W        W16566  14.282  10.528  12.452 -0.1613  0.0529  0.1946
 1436W        W16567   3.621  12.488  14.886 -0.2567 -0.1659  0.2126
 1437W        W16568  14.176  15.156  14.856 -0.2344  0.0903  0.0640
 1438W        W16569   7.876  14.739  15.464  0.0498 -0.0984  0.1823
 1439W        W16570  13.812  17.888  12.560  0.0406 -0.0284 -0.0196
 1440W        W16571  18.144  15.689   4.911  0.2332  0.0154  0.3447
 1441W        W16572   6.105   8.542  15.170 -0.1170 -0.0860 -0.1126
 1442W        W16573   4.804   0.678   3.287  0.1630  0.0599 -0.1917
 1443W        W16574   8.401   0.541   1.714 -0.1173  0.1636 -0.0374
 1444W        W16575   1.142  10.470   5.053 -0.1258 -0.2224  0.1961
 1445W        W16576   5.323   4.214  10.328  0.0712  0.0864  0.0338
 1446W        W16577   9.913   4.177  14.210 -0.1519 -0.4368 -0.0661
 1447W        W16578   5.942  18.564  15.264  0.0517 -0.2603 -0.1209
 1448W        W16579   3.599  11.326   5.817  0.2990 -0.0552  0.2341
 1449W        W16580  15.616   3.476   2.600 -0.1217 -0.2146 -0.2915
 1450W        W16581  12.685  14.970   1.404  0.1641  0.2789  0.3707
 1451W        W16582  10.527   1.223  12.860 -0.0935 -0.1304 -0.0958
 1452W        W16583  13.386   0.355   3.581  0.5137  0.1212 -0.2103
 1453W        W16584   9.088   6.375   0.662  0.0024 -0.0247 -0.0680
 1454W        W16585  15.640   6.746  11.688  0.0218 -0.1121  0.0442
 1455W        W16586  15.222   4.269  11.152  0.0690 -0.1111 -0.1660
 1456W        W16587   5.709  10.384  14.661 -0.4828 -0.0701  0.1368
 1457W        W16588  15.912  12.381   0.552 -0.5143  0.0052 -0.1479
 1458W        W16589  10.347  15.841  12.873  0.0226  0.1459 -0.3608
 1459W        W16590  15.466  13.608   0.212  0.0480  0.0129 -0.0982
 1460W        W16591  17.379  15.235   0.988  0.0409  0.3350 -0.1011
 1461W        W16592   4.539   0.032   9.969 -0.0821 -0.1135 -0.1476
 1462W        W16593  13.635   9.686  14.113 -0.1472 -0.0216  0.1369
 1463W        W16594   5.911  15.336  11.105 -0.4634  0.2575  0.0645
 1464W        W16595   7.511  18.340  13.010  0.3443 -0.0389 -0.0061
 1465W        W16596   1.018   0.372   0.569  0.1437  0.3455 -0.3544
 1466W        W16597   4.779  16.732  13.533 -0.0939  0.4092  0.0415
 1467W        W16598   8.342   0.015   5.307  0.2408 -0.0681  0.0460
 1468W        W16599  10.648  11.707   2.054 -0.0979 -0.1364  0.3769
 1469W        W16600   8.808   4.401  14.947 -0.1765 -0.0494 -0.0503
 1470W        W16601   5.809  13.618   4.912 -0.1373 -0.0214 -0.0941
 1471W        W16602   9.749   0.954   2.608 -0.0404 -0.0261 -0.2016
 1472W        W16603  12.137  16.635  12.133 -0.1050  0.2380  0.2460
 1473W        W16604   6.031  12.450   3.752 -0.0146 -0.2688 -0.1945
 1474W        W16605  17.279  18.622   0.883 -0.0815 -0.0293 -0.4087
 1475W        W16606   1.374  14.676   0.912 -0.0165 -0.2720 -0.1232
 1476W        W16607   9.475  10.358   0.869 -0.0882 -0.0525  0.1987
 1477W        W16608   5.678   6.987   5.093 -0.0723 -0.3285  0.3874
 1478W        W16609  16.867   4.343   2.047  0.0807  0.1461 -0.0372
 1479W        W16610  12.576   4.990  12.874 -0.4132 -0.3531 -0.1495
 1480W        W16611   1.976   9.205  13.767  0.0688  0.0723 -0.0433
 1481W        W16612  17.460  11.198  12.916  0.1940 -0.0130 -0.1019
 1482W        W16613   0.437  17.595   2.193  0.1213 -0.2098  0.2458
 1483W        W16614  10.250  15.278  12.502  0.0637 -0.1108  0.1185
 1484W        W16615   5.264  10.876   5.714 -0.2275  0.4241  0.2808
 1485W        W16616  14.740   2.011  12.191 -0.1643 -0.1931  0.1630
 1486W        W16617   7.874  15.540  12.512 -0.1291 -0.1971 -0.1894
 1487W        W16618  16.715  18.704  14.042 -0.1615  0.2350 -0.0408
 1488W        W16619   5.212   8.337  15.056  0.2071 -0.0623 -0.2241
 1489W        W16620   2.913   3.494  14.276 -0.0002  0.1253  0.3573
 1490W        W16621   6.550   9.573   4.344 -0.1106  0.1095  0.2001
 1491W        W16622  11.365   5.500   1.825  0.1532 -0.0460 -0.0060
 1492W        W16623  14.103  12.446   0.394 -0.2488 -0.3578  0.1071
 1493W        W16624  13.511  15.880   4.532  0.0456 -0.0546  0.2343
 1494W        W16625   8.065  13.166   1.345  0.2296  0.1442  0.0561
 1495W        W16626  16.763  11.627  15.609  0.0342  0.0975 -0.1162
 1496W        W16627  16.182   4.722   2.687 -0.4852  0.3318 -0.0151
 1497W        W16628  16.100  15.097  14.932 -0.2693 -0.1813 -0.1484
 1498W        W16629   4.743  16.893  15.466  0.0457  0.1828  0.1171
 1499W        W16630  13.017   0.781   1.834  0.3657  0.0313  0.2382
 1500W        W16631   7.782   7.683   1.428  0.3486  0.2326 -0.1342
 1501W        W16632  16.745  14.796  15.501  0.1586  0.3067  0.0537
 1502W        W16633   9.932   4.725   0.447 -0.2704  0.3183 -0.1478
 1503W        W16634   6.070  10.592  14.995 -0.0696  0.0835 -0.0804
 1504W        W16635  12.888   5.093   4.055  0.2132  0.0346  0.2395
 1505W        W16636   0.260  17.564   3.013 -0.0887 -0.1993 -0.0492
 1506W        W16637  14.900   3.169  13.742  0.1609 -0.0333  0.2488
 1507W        W16638  12.928   0.632  10.755  0.1594  0.3666 -0.2188
 1508W        W16639   6.570  16.356  11.575 -0.2673  0.0550  0.1611
 1509W        W16640   5.885   9.901   1.182  0.2545 -0.0058  0.1682
 1510W        W16641  13.139   4.090  12.545 -0.0681 -0.0815 -0.1089
 1511W        W16642   6.351  14.950   4.064  0.1999 -0.2535 -0.1837
 1512W        W16643   5.509  18.392   2.595  0.0125 -0.0744 -0.0500
 1513W        W16644  13.234   6.424  11.747  0.0449  0.0371 -0.0571
 1514W        W16645   3.123  11.991  10.302 -0.0949  0.1024  0.0308
 1515W        W16646  18.528  11.637  15.463 -0.1466 -0.1572 -0.0483
 1516W        W16647   1.062   7.353   0.039  0.1235  0.0066 -0.0315
 1517W        W16648  14.346   2.101   5.571  0.1696 -0.4326 -0.1814
 1518W        W16649  14.177  14.038   4.070 -0.0330 -0.1413 -0.2920
 1519W        W16650   6.889   7.782  15.609 -0.1515 -0.1791  0.3742
 1520W        W16651  18.447  12.989   4.043 -0.1407 -0.0630 -0.0052
 1521W        W16652  10.989   7.780   2.989 -0.0459 -0.2184 -0.2243
 1522W        W16653  14.934  13.569  12.097 -0.2243 -0.1412 -0.2181
 1523W        W16654   6.775   4.204   0.280  0.2300 -0.1428  0.2229
 1524W        W16655   4.094  17.530   9.843  0.1725  0.0375  0.0460
 1525W        W16656   7.734   2.052  10.591  0.4337 -0.3310  0.3737
 1526W        W16657   6.656  15.934   3.149 -0.3360  0.2318  0.2421
 1527W        W16658   4.385  11.500  14.033 -0.0075  0.1114  0.1407
 1528W        W16659  13.115  10.605  15.708 -0.0321 -0.0087  0.1721
 1529W        W16660   5.609  11.876  11.388  0.0173  0.2003  0.1167
 1530W        W16661   4.430   2.659  10.107 -0.0080 -0.2934 -0.1027
 1531W        W16662  12.343   3.815  14.396 -0.1213 -0.0898 -0.3877
 1532W        W16663  10.908   8.881   4.405  0.1319 -0.1858  0.1359
 1533W        W16664   7.171   8.344   2.631 -0.2736 -0.4689  0.0772
 1534W        W16665  12.864  17.024  15.549  0.1132  0.1183  0.2479
 1535W        W16666   7.378   6.471   5.345  0.3925 -0.2772  0.2234
 1536W        W16667  16.990  15.879   1.745  0.1224 -0.0751 -0.0362
 1537W        W16668   2.384   2.571  13.615 -0.2187  0.2008  0.0294
 1538W        W16669  12.804  12.551  14.946 -0.3315 -0.0564 -0.3502
 1539W        W16670  16.871  12.521   4.024 -0.1786 -0.1483 -0.1248
 1540W        W16671  11.692  18.636   1.593 -0.2503  0.1550  0.3967
 1541W        W16672   1.867   1.170   1.523 -0.1441  0.0887 -0.1295
 1542W        W16673  18.214   6.687  11.475 -0.2318 -0.0491  0.0729
 1543W        W16674  18.446   4.480   1.292 -0.1399  0.0917 -0.4550
 1544W        W16675   7.399  16.521   4.590  0.4722  0.3288 -0.1339
 1545W        W16676   8.508   2.078   3.693 -0.2371 -0.3057  0.2764
 1546W        W16677  10.042  16.507  10.998  0.0238 -0.0932  0.3546
 1547W        W16678   7.875  12.839  15.674  0.2183 -0.1835  0.0680
 1548W        W16679   5.367  12.103  11.999 -0.1800  0.0705 -0.1121
 1549W        W16680   6.119  16.601  13.659 -0.1163 -0.0732  0.0606
 1550W        W16681   5.494  12.897   5.330  0.2294 -0.1998  0.0467
 1551W        W16682  18.476   3.277  14.746  0.0583  0.2167  0.3163
 1552W        W16683  15.954  17.942   3.163  0.0375 -0.3814 -0.1372
 1553W        W16684   7.789  18.156   9.932  0.0248 -0.2702 -0.1844
 1554W        W16685   6.361   6.653   4.852  0.1534  0.0161 -0.0931
 1555W        W16686   7.482  13.016  11.673  0.0464 -0.2986  0.1819
 1556W        W16687   5.004  10.017   2.602  0.1164  0.0242 -0.3392
 1557W        W16688   1.184   7.545  10.826  0.1800 -0.2122 -0.1903
 1558W        W16689   1.952  14.820  10.661  0.3303 -0.2196  0.1848
 1559W        W16690  14.278  10.787   5.146  0.2284 -0.2943  0.0991
 1560W        W16691  14.818   4.729  14.246  0.0113  0.1911 -0.1582
 1561W        W16692   2.577  12.038  15.197  0.0626 -0.0116 -0.2492
 1562W        W16693   4.332   9.975   1.285 -0.1537 -0.1577  0.3588
 1563W        W16694   6.685  15.956   4.541 -0.2212  0.1259 -0.0125
 1564W        W16695   6.389   8.251  13.487 -0.4484 -0.2135  0.1547
 1565W        W16696   4.256   7.524  12.910 -0.1233  0.0657  0.0695
 1566W        W16697   1.035   6.771   5.191 -0.2037  0.0132  0.2933
 1567W        W16698   6.151   3.886  10.534  0.3218  0.0152 -0.0388
 1568W        W16699   0.335   7.405   3.187  0.0106 -0.4242 -0.2372
 1569W        W16700  14.665  10.917  11.585  0.2092 -0.2174  0.3473
 1570W        W16701   7.130   4.160   3.037  0.0836 -0.1565  0.1201
 1571W        W16702   3.012  15.727  14.602  0.0391 -0.1299 -0.2872
 1572W        W16703  17.714  10.643   2.712 -0.2898  0.1082  0.0392
 1573W        W16704   2.108  15.115  12.465 -0.1602  0.2107 -0.1224
 1574W        W16705   0.972   7.145   3.170  0.3469  0.3379 -0.0931
 1575W        W16706  11.760   3.183  15.659 -0.0430  0.0940  0.0844
 1576W        W16707   4.103   8.651  15.469 -0.1787  0.1550  0.0752
 1577W        W16708   0.126  10.574  15.560  0.0367 -0.0427 -0.0039
 1578W        W16709  16.103   2.529   0.284 -0.2647 -0.0850  0.3590
 1579W        W16710   9.584   9.972  12.148 -0.1580 -0.0641  0.2478
 1580W        W16711   3.857   9.596  15.181  0.0057  0.1398 -0.1357
 1581W        W16712  13.480   8.309   3.073 -0.2629  0.3370 -0.2711
 1582W        W16713   7.406   8.072   0.127 -0.0392 -0.0855 -0.4225
 1583W        W16714   4.745  12.815   2.347  0.0367 -0.0466  0.1876
 1584W        W16715   9.433  14.156   4.910 -0.1426  0.3064  0.0763
 1585W        W16716   8.116  17.230   2.886 -0.0063  0.3497  0.2010
 1586W        W16717   9.465  10.766  12.785  0.2778 -0.2869 -0.1073
 1587W        W16718   2.771  12.587  13.741 -0.2304  0.0566 -0.0246
 1588W        W16719  10.609   8.078   4.526 -0.2855 -0.1855  0.0813
 1589W        W16720   2.030  12.568  10.621 -0.0732  0.2012  0.1913
 1590W        W16721   7.261   5.062  11.466 -0.0659  0.0905 -0.0734
 1591W        W16722  17.667   7.163   5.177  0.0881 -0.3366 -0.1527
 1592W        W16723   7.082   7.252   4.707 -0.2234 -0.2286 -0.0543
 1593W        W16724  10.489  11.712   4.949  0.3564  0.0411 -0.1625
 1594W        W16725  10.063  14.884   4.854 -0.0715  0.2787  0.2540
 1595W        W16726  12.921   4.966  15.233 -0.1389 -0.0731  0.0958
 1596W        W16727   5.631   1.006  11.006 -0.5374  0.2293  0.0758
 1597W        W16728   6.053   8.167  14.124  0.0505 -0.0011 -0.1993
 1598W        W16729   4.099   0.220   3.934 -0.2487  0.1951  0.0979
 1599W        W16730   7.835   5.070   3.645 -0.0713  0.0211 -0.1122
 1600W        W16731  18.409  11.695  13.157 -0.0096 -0.1338 -0.4045
 1601W        W16732   3.966  16.439   0.031  0.3449 -0.0173  0.0765
 1602W        W16733  18.358   9.825   3.657  0.1449  0.1990  0.1852
 1603W        W16734   1.518  11.048   2.760  0.0580  0.0158  0.3922
 1604W        W16735  12.136   1.207   2.816 -0.0229  0.1471 -0.3547
 1605W        W16736   8.106   7.772   0.897 -0.1107  0.0574  0.1950
 1606W        W16737   5.391  14.667  15.430  0.4054 -0.1366 -0.0120
 1607W        W16738  14.202  16.677  14.030  0.2965 -0.3684  0.2914
 1608W        W16739   0.089   7.642  11.603 -0.0191 -0.0277 -0.0520
 1609W        W16740  17.776   7.522   4.760  0.1375  0.0765 -0.2210
 1610W        W16741   1.690  16.560  13.163 -0.1089  0.3294 -0.1155
 1611W        W16742  11.224  18.409   5.148 -0.2514 -0.1864  0.3311
 1612W        W16743  10.020  18.375   4.050 -0.1771  0.5865 -0.0529
 1613W        W16744   7.407  18.721   4.649  0.0820  0.1921  0.3517
 1614W        W16745  11.100   2.755   4.409  0.2566 -0.2906 -0.0293
 1615W        W16746  17.498   8.684   4.089 -0.0581 -0.1316 -0.2173
 1616W        W16747   9.732  18.395   0.076 -0.0653 -0.1628 -0.2356
 1617W        W16748  13.557   4.728  12.192 -0.0113 -0.3691 -0.1842
 1618W        W16749   4.542   3.649  14.217  0.0705  0.1579 -0.1359
 1619W        W16750  12.602  10.575  12.182  0.0240 -0.5757 -0.1680
 1620W        W16751   0.839   9.372  10.102  0.0791 -0.0982  0.0305
 1621W        W16752  10.426   5.484   0.451 -0.1051 -0.3527  0.0004
 1622W        W16753   6.432   8.736   3.942  0.3990  0.1944  0.1415
 1623W        W16754   5.803   9.745   3.549  0.2335  0.1421  0.0165
 1624W        W16755   2.706   2.376   5.437 -0.4768  0.1925 -0.0985
 1625W        W16756  14.869   3.793  11.898  0.3253 -0.3877 -0.1291
 1626W        W16757   2.442  17.050  12.970  0.0099  0.0540 -0.2322
 1627W        W16758   8.666   4.911   2.423  0.1731  0.0488  0.1238
 1628W        W16759  14.760   4.533  11.089  0.0809  0.1020 -0.0952
 1629W        W16760   1.996  10.012  10.371 -0.2275  0.0756 -0.1901
 1630W        W16761  12.976   3.625   4.351  0.1080  0.2226  0.2812
 1631W        W16762  11.018   7.435  14.320  0.1838 -0.1522  0.0788
 1632W        W16763   0.155   9.083   1.406 -0.2108  0.0967  0.0312
 1633W        W16764  13.582   1.721   5.218  0.1017 -0.1724 -0.1236
 1634W        W16765  12.812  13.952   1.470  0.0372 -0.2229 -0.0828
 1635W        W16766   1.731   6.340  15.268 -0.0785  0.4259 -0.0363
 1636W        W16767   8.067  12.375  13.471 -0.0159 -0.1315  0.0855
 1637W        W16768   6.859  15.712   1.282  0.0716 -0.0238  0.1251
 1638W        W16769  17.092   3.511  12.543  0.2576 -0.0683 -0.0019
 1639W        W16770   2.986  14.695   0.492 -0.2096  0.0454  0.1364
 1640W        W16771   3.891   7.418   3.388 -0.2804  0.0959  0.2002
 1641W        W16772  17.728  14.679  10.226 -0.5360  0.0667  0.1382
 1642W        W16773   5.647   2.556  14.496 -0.0352 -0.0432 -0.0550
 1643W        W16774  12.708  10.772  14.730 -0.0683  0.0587 -0.2546
 1644W        W16775   7.943  12.001  12.375 -0.0198  0.0019 -0.0734
 1645W        W16776  13.673   7.071  14.475 -0.1984 -0.0632 -0.1176
 1646W        W16777   5.187  15.901  13.324  0.3445  0.0073 -0.2774
 1647W        W16778   2.535  10.956  11.161 -0.1648  0.2169  0.2820
 1648W        W16779   5.760  17.215   1.803 -0.0763  0.0529 -0.1043
 1649W        W16780   3.540  10.732  13.992 -0.0509  0.1814 -0.2308
 1650W        W16781  12.303   5.480   3.446 -0.3677  0.1126 -0.1128
 1651W        W16782  13.947  17.438   2.176  0.2030  0.1038  0.2790
 1652W        W16783   4.201   5.999  13.925  0.0327  0.2204  0.0754
 1653W        W16784   6.804  13.538   2.556 -0.1366 -0.0775 -0.3042
 1654W        W16785  16.431  10.579  11.663  0.0299  0.2148 -0.2432
 1655W        W16786   5.156  15.392  14.212 -0.4941  0.1815  0.1652
 1656W        W16787   3.549  10.064  14.751  0.2259  0.1673 -0.0184
 1657W        W16788   8.092  12.192   2.002 -0.0122 -0.0991  0.1991
 1658W        W16789  10.091   5.779   2.540  0.1015  0.1639  0.0008
 1659W        W16790   6.127  13.380  12.665  0.3097  0.1320  0.0684
 1660W        W16791   9.267  11.218  13.031  0.1587  0.2645 -0.1285
 1661W        W16792   7.514   9.110  13.581  0.1231 -0.1511 -0.1257
 1662W        W16793   6.137   6.135  13.490 -0.0464 -0.1896 -0.1757
 1663W        W16794   0.658   3.990  12.772  0.1791 -0.0757 -0.0888
 1664W        W16795  14.923   4.338   4.253 -0.2526 -0.1355 -0.4144
 1665W        W16796  12.547   7.725   1.977  0.1753  0.1845  0.2518
 1666W        W16797   5.500  14.869  11.922  0.1379  0.0531  0.0577
 1667W        W16798   1.214   3.301   3.148 -0.1007  0.3518 -0.0752
 1668W        W16799   9.604  14.744   2.812  0.3008  0.0414 -0.0580
 1669W        W16800  15.675   3.678   3.361 -0.5306  0.0843  0.0161
 1670W        W16801  18.701  10.586   4.525  0.0406  0.1085 -0.1471
 1671W        W16802  17.236  13.718  12.644  0.3996  0.0366 -0.4302
 1672W        W16803   5.816  10.156  13.621 -0.0858  0.0718  0.1775
 1673W        W16804  15.687   9.133  13.429  0.2700 -0.0699 -0.3601
 1674W        W16805  15.332   9.820  11.636  0.0281  0.0243  0.0491
 1675W        W16806   0.352  14.605  14.168  0.0474 -0.0766  0.2539
 1676W        W16807   1.364   6.302  12.339 -0.0198  0.1197  0.1899
 1677W        W16808   6.102   9.024  11.366 -0.0638 -0.1136 -0.0455
 1678W        W16809   6.862   2.439  15.482  0.3097  0.2213  0.0418
 1679W        W16810  11.814   5.617   0.476 -0.0263 -0.0800  0.1833
 1680W        W16811  13.557  10.684   1.859 -0.0183  0.4887 -0.0327
 1681W        W16812  15.890  11.271  14.781 -0.2964  0.3951 -0.1096
 1682W        W16813   6.845  10.033  14.068 -0.2860 -0.2111 -0.0803
 1683W        W16814  18.177   7.211  13.393 -0.2196 -0.0045 -0.1080
 1684W        W16815   8.805  11.271   4.393 -0.0873 -0.1843 -0.0228
 1685W        W16816   4.698   6.042  13.178 -0.2128 -0.0380  0.4356
 1686W        W16817   2.526  11.868   4.315  0.1360  0.0057  0.2271
 1687W        W16818   9.510   0.152  11.477 -0.1733  0.0997  0.0950
 1688W        W16819   4.342   7.337   0.242 -0.1864  0.2798  0.0661
 1689W        W16820   6.293  11.796   5.571 -0.0217  0.0389 -0.0029
 1690W        W16821   6.227  11.323  10.280 -0.0828  0.0124  0.3296
 1691W        W16822   8.066   7.304   0.964  0.0344  0.1044 -0.0632
 1692W        W16823  12.543   8.477  13.931  0.0779 -0.1681  0.1121
 1693W        W16824  11.187   3.525   5.461 -0.2930 -0.0083 -0.3141
 1694W        W16825  14.581  16.898  11.959  0.1292 -0.2376  0.1789
 1695W        W16826  17.916  11.692   2.118  0.0353 -0.1797 -0.1113
 1696W        W16827   7.137  12.707   4.651 -0.1965  0.0521  0.3595
 1697W        W16828   1.419   8.692   1.000  0.0178 -0.1604  0.3277
 1698W        W16829   5.653  10.519  10.752 -0.0668  0.1684 -0.2174
 1699W        W16830  10.898   6.958   0.476 -0.0755  0.0057 -0.0189
 1700W        W16831  16.305  13.880   1.016 -0.1813  0.2389 -0.0190
 1701W        W16832  14.205   6.545   5.527  0.2284 -0.0135 -0.0099
 1702W        W16833   9.377  17.429   3.378 -0.1940 -0.0007  0.2465
 1703W        W16834  16.083  16.126  14.955  0.0648 -0.1165  0.1686
 1704W        W16835   8.367  10.835   3.095 -0.0583 -0.1691  0.4429
 1705W        W16836   6.128  14.403   5.412  0.1925 -0.1041  0.3077
 1706W        W16837  13.059  16.463  15.214 -0.2863 -0.0935  0.1704
 1707W        W16838  13.979  11.058   0.018  0.2069  0.3136  0.1193
 1708W        W16839   6.463   1.426  12.148  0.1446 -0.0698  0.3084
 1709W        W16840   8.589   7.728   0.860  0.1351 -0.3398  0.1378
 1710W        W16841   7.583   5.555  14.935  0.0508 -0.2812  0.1594
 1711W        W16842  10.215   7.656   2.509 -0.0068 -0.1642 -0.0096
 1712W        W16843  11.234   8.059   4.367 -0.0217 -0.1915  0.0218
 1713W        W16844   3.181  15.765   0.412  0.0956  0.1836  0.1181
 1714W        W16845   7.373  17.571  14.826 -0.0714 -0.3336 -0.1268
 1715W        W16846   6.809   2.266   9.807  0.0480 -0.0321  0.0618
 1716W        W16847   0.227  13.607  15.146 -0.1090  0.3302 -0.0072
 1717W        W16848  11.195  16.524   4.725  0.2183 -0.0194  0.1720
 1718W        W16849  16.634   1.137  14.624  0.0315  0.0561 -0.0239
 1719W        W16850   8.160  10.446  11.347  0.1215 -0.1841  0.1658
 1720W        W16851  15.384  18.719  14.399  0.0242 -0.1759 -0.1084
 1721W        W16852   6.683  17.944   0.831  0.1569  0.1900 -0.1463
 1722W        W16853  13.094  13.308  11.643 -0.2739 -0.1465  0.1866
 1723W        W16854   9.136   6.978  13.840 -0.3390  0.1339 -0.0464
 1724W        W16855   9.627  17.225   2.044  0.3291 -0.1446  0.0834
 1725W        W16856   7.220  16.359   5.137  0.0012 -0.1787 -0.0582
 1726W        W16857   8.068   4.163  15.618 -0.0130 -0.0393  0.0578
 1727W        W16858   8.139  16.027   1.261  0.0330  0.2596  0.0259
 1728W        W16859   8.667   3.807  11.466 -0.0631 -0.0436 -0.2798
 1729W        W16860  16.286   1.914   3.503 -0.3850  0.1813  0.4037
 1730W        W16861   0.901   7.319   2.169  0.1203 -0.1730 -0.1808
 1731W        W16862   9.340  11.716  14.484  0.0839 -0.1772  0.0660
 1732W        W16863   6.545  10.047   4.143 -0.0350 -0.1201 -0.1596
 1733W        W16864   7.437   1.875   2.544  0.2589 -0.2281  0.1999
 1734W        W16865   5.400   1.760  11.050  0.0735  0.0874 -0.1361
 1735W        W16866   1.120  13.430  10.643  0.3346  0.1893 -0.0684
 1736W        W16867  13.899  10.304   0.475  0.1348 -0.1628  0.1046
 1737W        W16868   9.256  12.842  15.360 -0.0034 -0.4411 -0.0597
 1738W        W16869   7.784   8.383   1.837 -0.1157 -0.3828  0.0992
 1739W        W16870  13.760   3.459   5.085 -0.0744 -0.3430 -0.0068
 1740W        W16871   7.856  17.472  13.960  0.2092 -0.2561 -0.0208
 1741W        W16872   9.492   9.815  14.022 -0.2513 -0.1262 -0.0866
 1742W        W16873   6.534  11.001  10.099  0.0580 -0.3985  0.1213
 1743W        W16874   7.977   8.398   9.988  0.0249 -0.1003 -0.3597
 1744W        W16875   3.189  16.556  12.964 -0.2992 -0.0787 -0.0244
 1745W        W16876  17.950  13.234   5.126  0.0074 -0.2712  0.2523
 1746W        W16877   4.266  13.222   2.619  0.2362  0.0175 -0.0079
 1747W        W16878  11.872   9.288   2.003  0.0896 -0.0815  0.2973
 1748W        W16879  16.450  14.572   2.560  0.0354 -0.1156 -0.3207
 1749W        W16880  17.994   6.858   2.744 -0.1527 -0.3926  0.2468
 1750W        W16881   1.206   4.089   0.988 -0.0646 -0.0433  0.3190
 1751W        W16882  14.824   1.530  13.632  0.2635  0.0743 -0.4186
 1752W        W16883  10.282   1.992  15.540  0.2557  0.0689 -0.2492
 1753W        W16884   5.686   9.496   2.956  0.2113  0.0531 -0.0343
 1754W        W16885  11.535   3.727   2.776  0.0608  0.2092  0.2434
 1755W        W16886  10.901   0.399   2.656 -0.0804  0.0696  0.2088
 1756W        W16887   7.293  11.375   0.509  0.1983  0.0831  0.4560
 1757W        W16888  14.821   0.126   5.289  0.0065  0.0621  0.4520
 1758W        W16889   9.290  18.436  10.758  0.0135  0.1017  0.2082
 1759W        W16890  15.555   6.071  14.382 -0.0828  0.0909 -0.2652
 1760W        W16891   6.953   0.056   2.561 -0.1379  0.1200  0.3186
 1761W        W16892  16.147  13.967   4.800 -0.0323  0.0631 -0.1305
 1762W        W16893  10.154  17.109  15.647 -0.0186  0.1000  0.1187
 1763W        W16894  15.490   7.783   3.411 -0.0113 -0.2415 -0.3470
 1764W        W16895  17.545   4.537   3.670  0.0558  0.2854 -0.2366
 1765W        W16896   7.891  12.263  14.338  0.0076  0.1163 -0.1179
 1766W        W16897   2.754   8.041  11.223  0.1880 -0.3977 -0.0450
 1767W        W16898   5.161   8.267  11.868 -0.0878 -0.2536  0.1220
 1768W        W16899  10.304   5.693   5.623 -0.1428  0.1923 -0.2632
 1769W        W16900   1.090   4.658  12.240 -0.0281  0.1177  0.0523
 1770W        W16901  14.566  18.185  14.045  0.2059  0.1414 -0.2392
 1771W        W16902   1.498  12.880  12.817 -0.1740 -0.1426  0.0703
 1772W        W16903   2.491   4.625   0.876  0.0689 -0.1239 -0.2051
 1773W        W16904   7.699   2.962  11.675 -0.0955 -0.4009  0.0664
 1774W        W16905   4.963   7.756   1.003 -0.1499 -0.1847  0.0617
 1775W        W16906  16.293  12.060  10.151 -0.0343  0.2441 -0.0670
 1776W        W16907  16.275   5.386   4.813 -0.0048  0.1702 -0.1458
 1777W        W16908   6.162   9.514   2.665 -0.1256  0.3805 -0.0689
 1778W        W16909   0.043  11.877  10.637 -0.1323  0.3301 -0.1418
 1779W        W16910  14.335   9.639  13.109  0.0413 -0.2984 -0.1546
 1780W        W16911   5.800   9.071   1.726 -0.5000  0.0144  0.0260
 1781W        W16912   3.536   3.800   0.957 -0.0087  0.1490 -0.2252
 1782W        W16913   4.596   9.115  14.723  0.1846 -0.3486  0.3967
 1783W        W16914  12.926  18.086  14.126 -0.0905  0.2003  0.0165
 1784W        W16915   6.536   0.202   0.221 -0.0820 -0.4922  0.1138
 1785W        W16916   5.470   6.742  14.733  0.2031  0.2097 -0.0601
 1786W        W16917   8.976  11.190   1.553 -0.0966 -0.1242 -0.2139
 1787W        W16918   7.341  15.261  10.458  0.1274 -0.0903  0.0632
 1788W        W16919   0.436  12.364  15.160 -0.3837 -0.1565  0.1688
 1789W        W16920  16.744   3.856  14.331 -0.1150  0.2066  0.4954
 1790W        W16921   2.138   7.599  14.852 -0.0737 -0.0172 -0.4040
 1791W        W16922  16.623  16.162  12.001  0.2666  0.1314 -0.1180
 1792W        W16923  10.026   9.474  11.460 -0.1554 -0.0158  0.0297
 1793W        W16924  12.245  11.846   0.095 -0.0591  0.3747  0.0186
 1794W        W16925   9.329  17.508  11.933 -0.0874  0.1371  0.1640
 1795W        W16926  11.303  13.320  14.036  0.1228  0.2272  0.1923
 1796W        W16927  12.073   3.116  15.248  0.2124 -0.0311 -0.1142
 1797W        W16928   2.227  15.303   1.988 -0.1105 -0.0237 -0.2150
 1798W        W16929   3.254  17.928  14.398  0.1884 -0.0525 -0.0433
 1799W        W16930  12.533  10.605   4.609 -0.1420  0.2157  0.0746
 1800W        W16931   9.195   5.995   3.882  0.2027  0.0552 -0.3558
 1801W        W16932   1.144  10.795  12.597  0.2324  0.0458  0.0944
 1802W        W16933   6.203   5.978   0.245 -0.2803 -0.2644 -0.1104
 1803W        W16934  11.346  11.383  11.283  0.0447  0.1310  0.0269
 1804W        W16935   4.433   6.647  13.908 -0.4058 -0.1402  0.2940
 1805W        W16936   2.977  16.670   4.546 -0.0399 -0.2131 -0.0211
 1806W        W16937   3.616   3.364   2.300 -0.2564  0.0744 -0.0276
 1807W        W16938  14.622   3.020   5.411  0.1124 -0.0096  0.0484
 1808W        W16939   3.009   0.764  13.676 -0.1019 -0.0614  0.4521
 1809W        W16940   9.128   2.830   4.987 -0.0216  0.3190  0.1484
 1810W        W16941   1.890  12.427   3.062 -0.2153 -0.2070  0.1500
 1811W        W16942  11.013   9.451  15.705  0.2470  0.0554 -0.0100
 1812W        W16943  13.391   8.069  14.120 -0.0118  0.2367 -0.0989
 1813W        W16944   3.938   6.245   4.099  0.1739 -0.1680 -0.1123
 1814W        W16945   8.444  14.105  13.051 -0.2383  0.0141 -0.3187
 1815W        W16946  18.017   2.092  14.881  0.0650  0.3265  0.1695
 1816W        W16947  11.162   3.640   1.833 -0.0719 -0.5751  0.2965
 1817W        W16948  10.952  15.719  14.047 -0.3086 -0.2284  0.1638
 1818W        W16949   5.372  16.505   1.450  0.1596  0.0743  0.1468
 1819W        W16950  13.714   5.289  14.154  0.0769 -0.0993 -0.0354
 1820W        W16951  15.635   5.390  10.090 -0.2638 -0.0237 -0.1351
 1821W        W16952   0.678   7.321  15.380 -0.3040 -0.1946  0.0336
 1822W        W16953   5.299   2.777   1.937 -0.1099  0.1273  0.1986
 1823W        W16954  12.353   9.306   3.112 -0.1612 -0.0771  0.1510
 1824W        W16955   2.106  17.088  14.714 -0.3478 -0.0822 -0.2234
 1825W        W16956   3.773   9.372  10.987 -0.0753  0.2843 -0.0810
 1826W        W16957  16.847  15.301  15.399  0.0467 -0.2942  0.0295
 1827W        W16958   4.814   5.670   4.910  0.0021  0.0717  0.1163
 1828W        W16959   2.545  17.378   3.701  0.3375  0.0678  0.0543
 1829W        W16960   7.438   4.716  14.691  0.3083  0.0861  0.0582
 1830W        W16961   0.431   3.491  10.402 -0.2187  0.3037 -0.4628
 1831W        W16962   6.015   3.442   2.826 -0.2112  0.1252  0.2355
 1832W        W16963  14.283   4.187  11.101 -0.0129  0.2616 -0.0884
 1833W        W16964  12.665   2.935   0.259  0.1764 -0.0380 -0.1275
 1834W        W16965  13.097  17.051  14.606 -0.1749 -0.1175  0.3397
 1835W        W16966  11.813  10.105   2.510 -0.2543  0.2544  0.2616
 1836W        W16967  18.422   7.447   9.770 -0.1353  0.2444  0.1552
 1837W        W16968   2.815   1.371  14.903 -0.1839  0.2102  0.0510
 1838W        W16969  15.799   6.749   4.371 -0.1047 -0.0920  0.0633
 1839W        W16970   7.062   8.257  15.094  0.0902 -0.0502 -0.0783
 1840W        W16971   2.901  14.987   0.843  0.1332 -0.0675 -0.1242
 1841W        W16972   2.774   9.593  10.316 -0.0926 -0.4570 -0.0646
 1842W        W16973  16.572   0.059  14.986  0.0240  0.0707  0.0709
 1843W        W16974  16.409   5.931  13.493 -0.0289  0.3598  0.0806
 1844W        W16975   0.635  15.662   0.717  0.1056  0.0171 -0.2730
 1845W        W16976   0.110  17.890   2.465 -0.0795  0.2458  0.3099
 1846W        W16977  17.021   1.354  13.626 -0.1058 -0.6652 -0.0111
 1847W        W16978   2.261  10.506  14.939  0.0631  0.0403  0.0674
 1848W        W16979  11.341  18.426  10.965  0.0278 -0.0943 -0.0175
 1849W        W16980   9.997   2.719  11.314  0.0676 -0.0153 -0.0312
 1850W        W16981   1.121   8.421   4.808 -0.0580  0.0732 -0.0874
 1851W        W16982  13.877   1.158  12.552 -0.3138 -0.2379  0.1453
 1852W        W16983  16.309  14.141  12.100  0.1591  0.3089  0.0905
 1853W        W16984   7.860   3.744  13.113 -0.3319  0.0251 -0.0634
 1854W        W16985   6.778  10.681   0.316  0.1328 -0.1192 -0.0812
 1855W        W16986  15.733  13.684  15.475  0.0981 -0.0050 -0.1446
 1856W        W16987   0.286   8.121  11.598  0.0592 -0.3303 -0.0967
 1857W        W16988   2.002   2.530  11.268  0.1216  0.0815  0.0717
 1858W        W16989   3.217   8.655   1.166  0.2022 -0.2203 -0.3628
 1859W        W16990   5.913   7.779   5.177 -0.3239 -0.2357 -0.0766
 1860W        W16991   6.379  10.425  13.652 -0.1209 -0.1610 -0.0434
 1861W        W16992   5.259   0.358   1.458 -0.2283 -0.1074 -0.2448
 1862W        W16993   2.484   0.494   3.734 -0.0408  0.0256 -0.0721
 1863W        W16994  14.359   7.437  13.198 -0.2104 -0.0662  0.2071
 1864W        W16995   6.905   6.855   5.669 -0.0048  0.1250 -0.4590
 1865W        W16996  16.443  15.345  10.093 -0.2266  0.3804  0.2573
 1866W        W16997   2.219   6.872   0.634  0.2176 -0.1694 -0.0718
 1867W        W16998   6.386  11.162   1.952 -0.4152  0.0520  0.0450
 1868W        W16999  14.950  16.487   2.097  0.0336 -0.0779  0.1856
 1869W        W17000  13.477   1.069   2.208  0.1933 -0.2172 -0.1057
 1870W        W17001  12.066   5.845   2.552 -0.1375  0.1746 -0.0734
 1871W        W17002  10.968   1.539  12.651 -0.2535 -0.2701 -0.0710
 1872W        W17003   9.176   9.597  11.768 -0.2701  0.1755 -0.3036
 1873W        W17004  14.566  10.411   0.553 -0.0227  0.2233 -0.0103
 1874W        W17005   4.111   3.595  10.303  0.2191  0.1133 -0.1701
 1875W        W17006  16.905   0.235   1.762  0.3218 -0.0356  0.2860
 1876W        W17007   2.867  10.716  10.913 -0.1651 -0.0696 -0.0391
 1877W        W17008   1.997  14.390  12.277  0.0141 -0.0866  0.0535
 1878W        W17009  17.827   4.531   1.077 -0.1230  0.1178  0.0182
 1879W        W17010   9.812   0.077   1.712  0.1208 -0.1059 -0.0479
 1880W        W17011   8.519  14.905  11.799 -0.2590 -0.1849  0.1663
 1881W        W17012   3.130  18.384   5.079  0.0588 -0.2835 -0.0423
 1882W        W17013   3.632   3.829   4.323 -0.0488  0.1685 -0.5384
 1883W        W17014   0.096  11.501   4.995 -0.1232  0.0174 -0.1787
 1884W        W17015  14.486  16.913   2.180 -0.1119 -0.3714  0.2154
 1885W        W17016   3.600   1.784   0.708 -0.1869  0.0167 -0.1175
 1886W        W17017   4.388   4.440  10.598 -0.0980 -0.0932  0.0594
 1887W        W17018  11.279   0.987   2.331  0.1553  0.2203 -0.2874
 1888W        W17019  17.238  13.150   4.665 -0.0650  0.3233  0.0634
 1889W        W17020  16.737   8.062   0.724 -0.2198 -0.1171 -0.0274
 1890W        W17021  17.999  11.018   4.928  0.2689  0.2524  0.0615
 1891W        W17022  18.135   3.980   2.789  0.1268  0.0661  0.1449
 1892W        W17023  12.704  14.815  11.417 -0.1458  0.1156 -0.2737
 1893W        W17024   1.329   2.180   1.757  0.1399  0.5844 -0.1688
 1894W        W17025   7.677  10.385  12.971  0.1630 -0.2304  0.2716
 1895W        W17026  14.643  16.842  15.578 -0.2057  0.1566  0.0397
 1896W        W17027   2.809   1.538  10.867  0.1560 -0.0799 -0.0624
 1897W        W17028   5.271  15.582   3.314 -0.1437  0.2405 -0.0930
 1898W        W17029  18.085   8.734   3.882 -0.5342  0.0106  0.3665
 1899W        W17030  15.977  10.340  11.352 -0.1151 -0.1776 -0.3284
 1900W        W17031  14.756  16.899   1.782 -0.1552  0.3481  0.1435
 1901W        W17032   9.864  16.423  13.678 -0.0494  0.1972  0.0267
 1902W        W17033  10.976   4.145  14.193 -0.1493  0.0353 -0.1148
 1903W        W17034   7.412  17.827  14.456 -0.0768 -0.0455  0.0973
 1904W        W17035   6.729   8.466   4.316 -0.5835  0.0107  0.2305
 1905W        W17036  11.677   2.210  12.012  0.1482  0.1647 -0.0723
 1906W        W17037   3.512  17.721  13.437 -0.2216  0.1298  0.0632
 1907W        W17038  18.591  13.016  14.868  0.0837  0.4155  0.0639
 1908W        W17039   4.655   1.941   9.991  0.0584 -0.0820  0.1746
 1909W        W17040  13.003  15.779   4.455 -0.0086 -0.0175  0.0687
 1910W        W17041   9.022   6.055  13.586 -0.0759 -0.0449  0.3471
 1911W        W17042   5.061   6.103   4.894 -0.1381  0.0324 -0.0070
 1912W        W17043  18.189   7.950  15.502 -0.0784  0.1443 -0.0680
 1913W        W17044  17.343   9.825  14.087 -0.0260 -0.0801 -0.0283
 1914W        W17045   6.808  11.429   2.031  0.1427  0.1233  0.0552
 1915W        W17046   4.559  11.051   0.852 -0.1144  0.0552 -0.0761
 1916W        W17047   4.846   3.106   0.037 -0.0852 -0.3389 -0.0524
 1917W        W17048   0.605  17.043   4.687 -0.1702  0.1967  0.2693
 1918W        W17049  17.139   7.607  10.530 -0.1180 -0.1220  0.1105
 1919W        W17050  17.900   6.777  10.653 -0.0326  0.2477  0.2640
 1920W        W17051   0.689  11.393   1.384  0.0822 -0.0888  0.1869
 1921W        W17052   2.054   6.221  12.291  0.0352  0.2919  0.1124
 1922W        W17053  14.569   2.688  14.759  0.1944  0.0305  0.2331
 1923W        W17054  10.696   8.139   2.318 -0.1053 -0.0417 -0.0619
 1924W        W17055  11.515   4.386   4.044 -0.0317 -0.0015 -0.1955
 1925W        W17056   0.258   1.229   9.797  0.2075  0.1142  0.4757
 1926W        W17057  16.886  13.422   4.985  0.2985  0.2166  0.1095
 1927W        W17058  16.811  13.027  11.121 -0.1839 -0.1098 -0.0009
 1928W        W17059   4.846   4.100  14.836  0.1226  0.1561 -0.0541
 1929W        W17060   2.845   4.042  11.445 -0.1838 -0.2040 -0.2678
 1930W        W17061   9.815  16.545   4.994 -0.1699 -0.3131  0.0993
 1931W        W17062   8.711  13.586   4.595 -0.0008  0.0586  0.0685
 1932W        W17063   1.731   7.192  11.513  0.1937 -0.0656 -0.2311
 1933W        W17064   8.261   6.761  11.359  0.1369  0.0552  0.0456
 1934W        W17065   5.789   8.885   2.209  0.0363  0.2276  0.0218
 1935W        W17066  11.327  17.158  11.454 -0.1065 -0.1829 -0.0794
 1936W        W17067   2.562   6.112   0.026 -0.0184  0.1593  0.2637
 1937W        W17068   3.228   5.029   3.339 -0.0550 -0.1445 -0.0262
 1938W        W17069   8.494  12.508   4.507  0.1383  0.0505  0.0592
 1939W        W17070  15.564   8.771  12.340  0.0580  0.1593 -0.3370
 1940W        W17071   0.845   2.955  10.374 -0.3911  0.3710 -0.4310
 1941W        W17072   9.221   7.974  11.315  0.0426  0.1889  0.1984
 1942W        W17073  10.704   5.800  11.628 -0.0671 -0.2874  0.0920
 1943W        W17074  10.106   0.844  10.671 -0.0333  0.0560  0.0632
 1944W        W17075   8.512   1.547  13.390 -0.1958  0.0967  0.0304
 1945W        W17076   8.144   2.229  15.343  0.2013  0.2286  0.2364
 1946W        W17077   5.324  14.489   4.886 -0.1418  0.2131  0.1306
 1947W        W17078   1.092   3.323   4.009  0.2901  0.2176  0.0700
 1948W        W17079   5.376   5.678  12.627 -0.1313  0.2581  0.2234
 1949W        W17080   2.591  10.075   5.708 -0.4309  0.1191 -0.0601
 1950W        W17081  15.101   8.249  11.860  0.1870 -0.0859  0.0402
 1951W        W17082  13.379  13.070   3.218  0.0131 -0.1157 -0.0541
 1952W        W17083  17.035   8.317   2.551 -0.0492 -0.3167 -0.0119
 1953W        W17084   6.644   7.979  12.835 -0.0118  0.0201  0.0399
 1954W        W17085   0.492   6.791   3.393 -0.0266 -0.1135  0.0094
 1955W        W17086  15.514  11.705  12.968 -0.0695 -0.0263  0.0567
 1956W        W17087  17.147   7.859   3.231 -0.0159  0.1602  0.3971
 1957W        W17088   6.478   1.679   1.358  0.0293  0.0960 -0.0813
 1958W        W17089   3.113  13.835   9.525 -0.0130 -0.0450  0.1814
 1959W        W17090   2.385   3.254  12.333  0.1261 -0.0034  0.0532
 1960W        W17091  14.581  17.425  11.448 -0.0261 -0.1454 -0.1391
 1961W        W17092  14.709   2.331  15.554  0.1054 -0.1522 -0.1133
 1962W        W17093   8.765  12.155   2.856  0.1238 -0.2547 -0.0749
 1963W        W17094   2.150  12.202   5.221 -0.2633  0.3165 -0.4103
 1964W        W17095   5.309   5.349  11.110 -0.1752  0.1412 -0.0121
 1965W        W17096  17.906   1.637   4.520  0.0238  0.1418  0.0233
 1966W        W17097   6.607   7.398   1.709  0.0955 -0.2112 -0.2399
 1967W        W17098   1.467  18.547  13.234 -0.0547 -0.5104 -0.0121
 1968W        W17099   4.355   7.983  13.173  0.1615  0.2520  0.1798
 1969W        W17100  16.495   5.874   3.587  0.1542  0.1049 -0.2170
 1970W        W17101  15.968  16.442   5.176 -0.0097  0.0881 -0.1448
 1971W        W17102  12.078   9.232   3.928 -0.0271  0.3476 -0.2361
 1972W        W17103   8.987  18.722   2.370 -0.0615 -0.0511  0.1609
 1973W        W17104  12.981  16.165  12.430  0.3359 -0.0299 -0.0067
 1974W        W17105   9.258  18.251  14.589 -0.0664 -0.3114 -0.3084
 1975W        W17106   4.366  17.499   0.708 -0.0622 -0.0246  0.2183
 1976W        W17107   1.006   1.891   0.795  0.0551 -0.2218  0.1239
 1977W        W17108  10.219  12.203  14.407 -0.1935 -0.3994 -0.2924
 1978W        W17109   0.612   8.864  12.848 -0.0436  0.1705 -0.0438
 1979W        W17110   1.991   4.862   4.635  0.1858 -0.2309  0.0005
 1980W        W17111   9.892  15.560   2.681  0.1470  0.0733  0.2189
 1981W        W17112   2.943   2.291   9.383  0.2151 -0.1160 -0.0868
 1982W        W17113  12.317   0.834   9.877  0.4961  0.1307  0.1025
 1983W        W17114   1.449   5.551  12.836  0.1191  0.2751 -0.0936
 1984W        W17115  10.144   9.638   6.531  0.1227  0.0698 -0.0164
 1985W        W17116  12.032   0.442   5.953  0.0746 -0.2303 -0.1216
 1986W        W17117  12.298  14.227  12.015 -0.2903 -0.1203  0.1982
 1987W        W17118  12.900   3.128   1.936  0.2373  0.3940  0.1940
 1988W        W17119  10.935   4.660   4.664 -0.2113 -0.1238 -0.2501
 1989W        W17120  10.645  11.891  13.987 -0.1262 -0.0376  0.1421
 1990W        W17121  14.004   7.421  15.330 -0.0882 -0.1339 -0.3900
 1991W        W17122   9.861  13.083  14.374 -0.0627  0.2397  0.0164
 1992W        W17123   3.062  11.505  15.474 -0.0870 -0.2003  0.1261
 1993W        W17124   6.429  17.182  13.654  0.3909  0.1748 -0.2671
 1994W        W17125  12.107   2.719  12.021  0.0526  0.3340 -0.0568
 1995W        W17126  10.935   6.069  12.543  0.0981 -0.1578  0.1205
 1996W        W17127   2.545  17.949  12.815 -0.0261 -0.1063 -0.0500
 1997W        W17128   6.091  10.723  14.438 -0.1339  0.0193  0.1990
 1998W        W17129  12.417  14.933  11.837 -0.2975  0.1741  0.2029
 1999W        W17130   7.636   2.678   3.886  0.0203  0.0107 -0.1556
 2000W        W17131  15.589  18.245   2.645  0.2487 -0.2584  0.3563
 2001W        W17132  16.818   0.952   5.728 -0.0249  0.1826 -0.0443
 2002W        W17133   1.265  13.209   0.357 -0.1093  0.1121 -0.5125
 2003W        W17134   3.693  10.405  13.657 -0.0920 -0.2024  0.2196
 2004W        W17135   7.862   3.397  14.858  0.0860 -0.4002  0.0629
 2005W        W17136  17.421  16.774  13.263 -0.1967 -0.2457  0.3168
 2006W        W17137  10.761  10.826  12.762 -0.0448  0.0983 -0.2557
 2007W        W17138  10.787   4.949  15.071  0.0791  0.2448 -0.1038
 2008W        W17139  14.297   3.225  13.849 -0.4918 -0.0422  0.0440
 2009W        W17140  12.154  16.859  11.003 -0.2881  0.3245  0.2013
 2010W        W17141   1.607  13.201  12.401 -0.1573 -0.0311  0.0902
 2011W        W17142   6.367   0.206  14.610 -0.1461 -0.0956  0.1396
 2012W        W17143   0.775   2.461  15.277 -0.4107 -0.3157 -0.2618
 2013W        W17144  10.910  12.143  12.544 -0.0143  0.1835 -0.0514
 2014W        W17145  17.442   5.898  13.159 -0.1321 -0.1716 -0.0154
 2015W        W17146  13.000   9.534  13.561  0.3252  0.0375 -0.3670
 2016W        W17147   3.001  17.726  12.996  0.1002  0.3737 -0.1195
 2017W        W17148   1.914   4.566  13.557 -0.0446 -0.0396  0.1637
 2018W        W17149  11.679   7.371   3.018 -0.0165  0.0056  0.0990
 2019W        W17150   0.877  14.384  14.495 -0.0793  0.1054 -0.0117
 2020W        W17151  12.526  13.789   1.054 -0.0296 -0.0731 -0.0546
 2021W        W17152  16.141  17.092   0.116 -0.0731  0.0059  0.2961
 2022W        W17153   3.936  11.025   5.575  0.1835  0.0460  0.2382
 2023W        W17154   0.282  18.139   5.387 -0.0066  0.1101  0.3104
 2024W        W17155   6.723   1.938  11.575 -0.1054  0.0734  0.1825
 2025W        W17156   8.403   3.627   4.396  0.1549 -0.0050 -0.1908
 2026W        W17157  13.843   4.309  11.429 -0.0214 -0.2527 -0.1331
 2027W        W17158   3.172  15.773   4.333  0.2149 -0.3562 -0.1861
 2028W        W17159  12.783   4.300   0.141 -0.0793 -0.0005 -0.1528
 2029W        W17160  14.925  10.052  14.025  0.2153  0.1336  0.1396
 2030W        W17161   0.828  12.863  15.636 -0.3179  0.3160 -0.0893
 2031W        W17162   8.882   5.809  12.818 -0.1027 -0.1651 -0.2233
 2032W        W17163   6.069  11.874  13.247  0.0952 -0.2162  0.1700
 2033W        W17164   3.784  12.214  11.396  0.1196  0.2969  0.2385
 2034W        W17165  12.076   1.431  10.619  0.0617  0.0365 -0.0830
 2035W        W17166  12.557   7.942   1.481 -0.0938  0.0554 -0.1564
 2036W        W17167   6.709  16.786  10.069  0.2170 -0.0516  0.0142
 2037W        W17168   6.141   4.542   3.171  0.1738  0.0607 -0.3922
 2038W        W17169   7.765  15.773  12.943  0.1009  0.0109  0.0045
 2039W        W17170  11.277  14.640   1.768  0.0505 -0.2438 -0.0785
 2040W        W17171   6.143   4.855  11.282  0.1294  0.0287  0.1946
 2041W        W17172  16.004   5.219   4.358 -0.1374 -0.6302 -0.1443
 2042W        W17173  14.105   6.531  10.863 -0.0855 -0.2152  0.4226
 2043W        W17174   2.508  15.820   1.686 -0.3693 -0.2764 -0.4114
 2044W        W17175   8.391  17.811   5.529 -0.1553 -0.0528 -0.1713
 2045W        W17176  15.325  14.391  12.618 -0.1887 -0.0942  0.2357
 2046W        W17177   5.744  17.028   3.000 -0.3519  0.1219 -0.0048
 2047W        W17178   4.182  10.008   5.172 -0.2051  0.3333 -0.3019
 2048W        W17179   2.759   0.382   5.194  0.1722  0.1091 -0.3076
 2049W        W17180  17.047   9.729  10.003 -0.1799 -0.1316 -0.0046
 2050W        W17181  16.686   7.734  12.911  0.1967  0.0798 -0.0340
 2051W        W17182   6.080  13.622   2.154  0.1959  0.1976  0.3424
 2052W        W17183   1.695   3.570  15.446 -0.4963  0.0552 -0.0974
 2053W        W17184   3.072   8.358   2.842  0.2882 -0.2046  0.1168
 2054W        W17185   8.682   6.202   0.210  0.2272  0.4143  0.1365
 2055W        W17186  12.063   8.888  13.200 -0.0142  0.1917  0.1020
 2056W        W17187  16.971  17.540   4.169  0.0639  0.1836  0.2685
 2057W        W17188  14.540   6.750   4.645  0.1912 -0.2208  0.1951
 2058W        W17189  12.132   8.256   0.860  0.1481  0.4343  0.0532
 2059W        W17190  12.096   9.046  14.981 -0.0423  0.0141 -0.2711
 2060W        W17191  15.236   8.894   4.768  0.1101 -0.1062  0.2686
 2061W        W17192   8.449  15.914   4.505  0.2479 -0.1439  0.2212
 2062W        W17193   3.249   9.883  14.222 -0.1621  0.1217  0.1104
 2063W        W17194  17.812  10.662   5.131  0.2182  0.3601 -0.0959
 2064W        W17195   4.357  17.931   3.657 -0.0385  0.0110 -0.3557
 2065W        W17196   1.377   0.418   4.737 -0.2303  0.0374 -0.2232
 2066W        W17197  13.673  11.246  12.712 -0.3339 -0.1676  0.0208
 2067W        W17198   8.560  15.160  14.714 -0.0701  0.0767  0.0738
 2068W        W17199  16.340  18.655  11.322  0.1227 -0.0794  0.5780
 2069W        W17200  15.445  10.213   3.917  0.3289 -0.0220  0.1652
 2070W        W17201   6.904  11.322  14.326  0.1680 -0.3153 -0.3802
 2071W        W17202   0.104   7.539   4.840 -0.3022  0.0252  0.5044
 2072W        W17203   2.307  17.886   2.729 -0.3034 -0.1016 -0.0038
 2073W        W17204   7.344   7.802   3.872  0.5695  0.0544 -0.2496
 2074W        W17205  12.876   9.031  12.516  0.0200 -0.1389 -0.2404
 2075W        W17206   0.553   0.824  13.816  0.3461  0.2099 -0.0286
 2076W        W17207  16.259  11.447   2.727 -0.0121  0.1384 -0.1844
 2077W        W17208  18.603  16.604  12.613  0.1450  0.1292  0.0529
 2078W        W17209  18.549  15.375   4.835  0.0009  0.1527  0.3458
 2079W        W17210  13.824   8.867   3.892  0.4277  0.1962 -0.1623
 2080W        W17211  10.720  12.931  11.485  0.1328 -0.1125  0.1306
 2081W        W17212  10.499  18.016  11.333  0.2162 -0.3024 -0.1116
 2082W        W17213   8.700   3.472   4.783  0.0074 -0.1506 -0.1364
 2083W        W17214  18.163   1.659   2.463  0.3566 -0.0042  0.0559
 2084W        W17215   1.183   9.202   5.307 -0.3664  0.0288  0.5111
 2085W        W17216   4.803   9.949   0.859  0.0136  0.0430  0.0293
 2086W        W17217  10.497   7.633   4.737 -0.0163 -0.2130  0.0193
 2087W        W17218  15.731   3.265  11.079  0.2096 -0.1345  0.1401
 2088W        W17219  17.161   1.682   1.853 -0.2729  0.0475  0.0678
 2089W        W17220   2.264   8.752  11.877 -0.0778 -0.0236 -0.0171
 2090W        W17221  10.267   2.885   1.675  0.1016  0.0169 -0.1255
 2091W        W17222   6.360   7.723  12.522  0.1075  0.3208  0.0553
 2092W        W17223   1.951  11.786   1.116 -0.2181 -0.1794  0.0848
 2093W        W17224  17.064  10.683   0.286 -0.0170 -0.3061 -0.2424
 2094W        W17225  16.361  13.695  12.616  0.1622 -0.4104 -0.1844
 2095W        W17226  10.105  16.422   3.332  0.2107  0.4536 -0.2112
 2096W        W17227   3.487   6.800  15.223  0.2314 -0.2628  0.0234
 2097W        W17228  18.532   0.288  15.484 -0.3291  0.1927  0.0976
 2098W        W17229   8.068   1.054  10.128  0.0684  0.2156  0.1929
 2099W        W17230  17.688   0.236  13.708  0.1580 -0.4911  0.0090
 2100W        W17231   0.116  14.583  15.133  0.0314 -0.1757  0.3601
 2101W        W17232  11.041  10.455   3.604 -0.1777  0.0717 -0.0935
 2102W        W17233   5.149  13.822  13.590 -0.2917  0.5333 -0.0571
 2103W        W17234   1.020  13.558   1.516 -0.4257  0.0052 -0.0340
 2104W        W17235  13.818  13.461  15.260  0.0572  0.2624  0.0033
 2105W        W17236   3.321   8.936   0.711  0.1313  0.1625 -0.1187
 2106W        W17237  11.604  15.945   0.435 -0.1147  0.2825 -0.1336
 2107W        W17238   7.654   1.350  12.967  0.2619 -0.0463 -0.2343
 2108W        W17239  10.231  17.812  10.550  0.2804  0.1560  0.2386
 2109W        W17240  10.274   1.224  15.265  0.3363  0.0125  0.1905
 2110W        W17241   0.809   0.793  10.857 -0.1640 -0.3035 -0.2675
 2111W        W17242   9.408  11.493   2.993  0.1144  0.0262 -0.2013
 2112W        W17243   0.170   9.577   0.406  0.1459  0.2219  0.0430
 2113W        W17244   1.164   0.449  15.218  0.2098  0.3474 -0.1086
 2114W        W17245  14.263   9.045   2.776 -0.3722 -0.4026  0.0738
 2115W        W17246   5.523   0.113   9.611  0.1098 -0.2478  0.1221
 2116W        W17247   2.467  13.862   4.554 -0.0970  0.3350  0.0744
 2117W        W17248  12.720  10.598   0.270  0.0164 -0.2302 -0.0276
 2118W        W17249   2.003  12.838   1.009  0.0877  0.0431 -0.2634
 2119W        W17250  10.562   8.789  12.724  0.0933 -0.0145  0.0688
 2120W        W17251   9.687  14.317   2.203  0.1701 -0.0435  0.1323
 2121W        W17252   2.480  14.234  12.452  0.4502 -0.2678  0.1758
 2122W        W17253  12.144   0.508   0.697 -0.1113  0.0035 -0.1313
 2123W        W17254   9.476  12.214  10.528 -0.0906 -0.5791 -0.0247
 2124W        W17255   3.908  14.222  11.552 -0.3098 -0.2054  0.3091
 2125W        W17256   7.742   1.281   5.520 -0.0333 -0.1131 -0.2369
 2126W        W17257   4.018  15.411   9.497 -0.0304  0.0039  0.4385
 2127W        W17258  11.773  14.502   3.684 -0.0814 -0.1196 -0.0501
 2128W        W17259  17.340   0.378   4.558 -0.0071 -0.0473 -0.0627
 2129W        W17260  15.129  14.625  11.674 -0.2827 -0.0851  0.1219
 2130W        W17261   1.176  17.322   1.287 -0.0775 -0.1253 -0.2278
 2131W        W17262   2.226   2.369   3.451  0.0081 -0.0062  0.4770
 2132W        W17263  10.989   6.519  10.434 -0.0978 -0.0555  0.1962
 2133W        W17264  10.222   6.531   3.884  0.1317 -0.1250  0.1843
 2134W        W17265   8.982   9.899   0.183 -0.1088 -0.0860  0.0017
 2135W        W17266  14.881  12.951   0.712 -0.0708  0.0377 -0.4795
 2136W        W17267   7.547  12.999   3.734  0.2965 -0.1781 -0.1351
 2137W        W17268   0.039  14.229   2.336 -0.1367 -0.1533 -0.0652
 2138W        W17269  12.556  12.757  12.749 -0.2126  0.1888 -0.1843
 2139W        W17270  12.056  12.444   2.895  0.0369 -0.3962 -0.0418
 2140W        W17271  16.623   1.739   0.084 -0.0266  0.0323 -0.2648
 2141W        W17272  12.976   4.709   0.516  0.2174 -0.0033 -0.1555
 2142W        W17273   2.521  10.905   0.111 -0.1007  0.3460  0.0149
 2143W        W17274  14.953  18.432   5.226  0.1321  0.0535  0.0322
 2144W        W17275   6.581  13.227   1.509 -0.1855 -0.1809  0.0658
 2145W        W17276  16.348   6.646   1.448  0.0485 -0.2111  0.3702
 2146W        W17277  15.371  13.086   2.698 -0.2233  0.1171  0.1505
 2147W        W17278   4.664  14.942  11.326  0.4091 -0.1436 -0.1779
 2148W        W17279   5.057  17.710  14.971 -0.1316 -0.2788 -0.0372
 2149W        W17280   7.175   1.930  11.174 -0.3436 -0.0275 -0.4274
 2150W        W17281  17.725  10.633  11.698  0.1389  0.0720 -0.1274
 2151W        W17282  15.792   1.925   3.281  0.1872  0.0746 -0.0349
 2152W        W17283  13.946  11.909  14.090  0.1429 -0.1316  0.1195
 2153W        W17284  10.637   4.582  14.151 -0.1145 -0.0236 -0.3240
 2154W        W17285   3.505  11.835  12.065 -0.2120 -0.0669  0.0354
 2155W        W17286   7.040  11.752   6.424 -0.0220  0.1352  0.2097
 2156W        W17287   7.574   5.117   4.138 -0.3928 -0.1341  0.0141
 2157W        W17288  11.527   3.719   5.088  0.0051  0.0814 -0.0780
 2158W        W17289   2.953  18.346  12.554 -0.0189 -0.0787 -0.4150
 2159W        W17290  18.007   7.768  13.885 -0.4939  0.0384  0.1453
 2160W        W17291   6.025   8.054   0.157 -0.0117  0.5323  0.2769
 2161W        W17292   7.275  14.283  13.499 -0.3642 -0.0933 -0.0028
 2162W        W17293   7.039   7.332  13.965  0.0999 -0.1491 -0.0353
 2163W        W17294   1.502  15.286   2.779  0.0848  0.5780 -0.3070
 2164W        W17295   4.852   0.074  11.622 -0.1281  0.0913 -0.0244
 2165W        W17296   8.207  11.628  11.481  0.0357  0.3189  0.1493
 2166W        W17297  11.241   0.442   2.275  0.0007 -0.2787  0.0752
 2167W        W17298   3.239   2.150  15.628 -0.3757 -0.2455 -0.3845
 2168W        W17299   8.172   0.474  11.259  0.1845  0.2002  0.0258
 2169W        W17300   6.675   1.540   0.341 -0.0786  0.0220 -0.1081
 2170W        W17301   4.231  12.179   5.178 -0.1817  0.0516 -0.0183
 2171W        W17302   3.912  18.430   2.762 -0.0961 -0.1972  0.0178
 2172W        W17303   0.527   7.849   3.450  0.1648  0.6208 -0.1400
 2173W        W17304   4.278  16.597   5.122 -0.0183 -0.3467 -0.1380
 2174W        W17305  15.933   0.667   6.510  0.0430  0.3313  0.2079
 2175W        W17306  13.157  10.019   1.851  0.4760  0.3272 -0.0233
 2176W        W17307   5.407  15.886  15.471 -0.0219 -0.1717  0.1507
 2177W        W17308   5.502   1.970  13.747  0.1915  0.0937  0.0428
 2178W        W17309   5.774  12.156  10.496  0.2484  0.0485 -0.3151
 2179W        W17310   3.939  10.676   1.925  0.0104  0.0988  0.1006
 2180W        W17311  15.232   1.218  14.257 -0.3633  0.1976  0.2203
 2181W        W17312  12.072   3.897  13.268 -0.2628  0.0930 -0.6221
 2182W        W17313   3.407  17.200  10.386 -0.2902  0.3675  0.2749
 2183W        W17314  15.434  12.055  12.182  0.1958  0.0132  0.0465
 2184W        W17315   0.695   5.439   4.756  0.2527  0.5623 -0.3888
 2185W        W17316  15.310   1.652   3.356 -0.0039 -0.1766 -0.2275
 2186W        W17317  11.351   0.492   0.119 -0.2086 -0.0362  0.1156
 2187W        W17318  13.811   4.903  11.353  0.2292  0.1490 -0.1827
 2188W        W17319   4.875   1.598  15.348 -0.0988 -0.0619  0.1150
 2189W        W17320   0.641  14.150   3.074 -0.1723 -0.0747  0.1339
 2190W        W17321  12.276  16.720   5.433  0.2240 -0.1450 -0.2200
 2191W        W17322   2.375   3.227   5.598 -0.2888  0.1286  0.2556
 2192W        W17323   1.767   7.827   9.444  0.0018  0.4074 -0.1072
 2193W        W17324  17.939   6.714   3.201 -0.0993  0.2480 -0.2155
 2194W        W17325  14.490  18.022   0.528  0.1258  0.0572  0.0547
 2195W        W17326   8.584   1.837   3.199  0.4131  0.0477  0.0528
 2196W        W17327   2.170   3.462   3.335  0.0490 -0.2273  0.1621
 2197W        W17328   1.417  12.477   4.763  0.1158  0.2376  0.3711
 2198W        W17329  11.641   1.406   3.112  0.2667  0.0451  0.2662
 2199W        W17330   3.446  17.508  10.761 -0.0248  0.0567  0.4385
 2200W        W17331   0.695  10.249  12.327 -0.0381 -0.0220 -0.0577
 2201W        W17332  12.238  18.733   1.880  0.1880  0.0612  0.2982
 2202W        W17333   1.146   3.038  15.761 -0.0189  0.0174  0.0992
 2203W        W17334  11.376  14.916   1.226  0.0579  0.1693  0.1647
 2204W        W17335  13.373   1.646   6.030  0.0102 -0.2208  0.2521
 2205W        W17336   4.071   6.579   0.279  0.3829 -0.1647 -0.0400
 2206W        W17337   9.422  14.892   4.066 -0.1146  0.1468 -0.2154
 2207W        W17338  16.694  13.966   1.364 -0.0770 -0.2179 -0.1589
 2208W        W17339   8.852   1.250  10.480 -0.1737 -0.0709 -0.0768
 2209W        W17340   1.699  12.215  15.686  0.1011  0.1585 -0.0555
 2210W        W17341   2.554   7.618   2.891 -0.1497 -0.0386 -0.2268
 2211W        W17342  17.080  17.189   3.776 -0.1414 -0.2836 -0.3793
 2212W        W17343   7.490   3.042   0.709 -0.2615  0.1711 -0.0457
 2213W        W17344   6.120   5.593  10.531 -0.1968  0.1344 -0.1506
 2214W        W17345  15.203   6.874  13.235  0.1715 -0.2201 -0.1063
 2215W        W17346   1.616  15.288  12.303 -0.3307 -0.0587  0.0538
 2216W        W17347  10.940  11.912   0.495 -0.1552 -0.1934  0.0721
 2217W        W17348  10.599   7.328   0.216  0.1236  0.0131  0.0295
 2218W        W17349  16.751   3.460  12.960 -0.2912  0.3609 -0.0988
 2219W        W17350  15.349  11.385   2.994  0.1028 -0.1192  0.2150
 2220W        W17351   9.937   7.654  14.697 -0.0802 -0.2786  0.0734
 2221W        W17352   2.326  10.024   4.682 -0.0704 -0.2921 -0.2343
 2222W        W17353   3.281  17.838   0.002  0.6140  0.1395 -0.0367
 2223W        W17354  11.502   2.662  13.614  0.1496  0.2649 -0.0445
 2224W        W17355   1.313  13.829  13.130 -0.3312 -0.2883  0.0227
 2225W        W17356   6.267   8.968   2.471  0.1588  0.1615 -0.1258
 2226W        W17357  16.511   3.808  13.221  0.3063 -0.1062  0.2156
 2227W        W17358   0.707   3.547  11.040  0.3618 -0.0394  0.1097
 2228W        W17359  18.161   9.689   5.171 -0.2743  0.1700 -0.4038
 2229W        W17360   0.765   3.834  13.299 -0.2524 -0.2481 -0.1498
 2230W        W17361  18.052  16.470   5.758 -0.2169 -0.0482 -0.2000
 2231W        W17362  14.453   1.285  13.834  0.1393  0.2422 -0.0767
 2232W        W17363   0.657   6.061   0.140  0.2963 -0.1464  0.1307
 2233W        W17364   7.083  10.068   5.454  0.0686 -0.0857  0.2498
 2234W        W17365   4.573   9.541  13.982 -0.1111  0.0269 -0.1411
 2235W        W17366   9.555   5.897   3.526  0.0562  0.1203  0.4452
 2236W        W17367  17.099  17.736   3.689  0.0520  0.0838 -0.5236
 2237W        W17368  10.963  11.977   4.670  0.2151  0.1419 -0.1019
 2238W        W17369  15.112  14.595   0.435 -0.1921  0.2200 -0.0466
 2239W        W17370   1.615  17.999  15.721 -0.4703  0.2196 -0.0973
 2240W        W17371   5.711   1.756   5.074  0.1529  0.3661  0.3098
 2241W        W17372  11.314  16.404  15.303  0.0362 -0.2443  0.0712
 2242W        W17373   1.627  13.383   1.029  0.0706  0.0906  0.1607
 2243W        W17374  16.566   1.651  13.920  0.0282 -0.1601 -0.2163
 2244W        W17375  18.038  17.527   1.071 -0.2582  0.0802  0.2276
 2245W        W17376   2.992   3.245  11.600  0.0738  0.0342  0.2902
 2246W        W17377  12.830   3.428   2.433 -0.1335 -0.1038 -0.0537
 2247W        W17378  10.273  15.814  12.209 -0.2651  0.0194  0.0850
 2248W        W17379   6.987   1.077   4.025  0.1494  0.1836 -0.2151
 2249W        W17380  15.201  14.242   2.380 -0.3078 -0.2614  0.0929
 2250W        W17381  14.318   5.185   3.982 -0.0475 -0.0691 -0.2128
 2251W        W17382   0.767  11.455   0.334 -0.0938 -0.1062  0.0053
 2252W        W17383   2.462  17.091  13.515 -0.0371 -0.0463  0.0258
 2253W        W17384   9.955  15.655  11.191  0.0567 -0.0924 -0.0759
 2254W        W17385  11.176   5.092  14.115  0.2815  0.2626  0.0536
 2255W        W17386   1.307   4.354  15.058  0.0394  0.3899 -0.1487
 2256W        W17387  17.738  10.989  12.366  0.3449 -0.1246  0.0481
 2257W        W17388   7.453   2.861  14.305  0.3523 -0.1649  0.0153
 2258W        W17389  14.219  15.211   0.703  0.0634 -0.0437  0.1082
 2259W        W17390   1.213   3.127  13.589  0.2760 -0.0328  0.0316
 2260W        W17391  14.345   4.459  13.574  0.1611  0.0213  0.1401
 2261W        W17392   0.281  18.003  11.730  0.0359  0.1230  0.0121
 2262W        W17393   3.308   5.253   1.119 -0.2030  0.1427  0.3058
 2263W        W17394   8.055   0.155  14.831  0.1174  0.0069  0.2872
 2264W        W17395  13.438   6.281   5.296  0.0886 -0.2168 -0.2785
 2265W        W17396  14.205   5.633  14.049 -0.3243  0.1245 -0.0044
 2266W        W17397   4.932   9.931  14.690 -0.1339 -0.1436  0.3083
 2267W        W17398  14.210  11.527  13.889  0.1301  0.1804  0.1597
 2268W        W17399   5.926   8.740   4.113 -0.0541 -0.0404 -0.0112
 2269W        W17400  18.084   6.507   0.016 -0.3548  0.1060 -0.2045
 2270W        W17401  13.331   2.010   4.833  0.0544  0.0886 -0.2613
 2271W        W17402   8.274   4.280  14.953  0.0482 -0.1028 -0.1754
 2272W        W17403   9.609   9.044   0.536  0.3554  0.2691  0.2745
 2273W        W17404  11.107   1.861  13.396 -0.0884  0.4957 -0.0876
 2274W        W17405   1.543  17.802  10.591  0.1779  0.2207 -0.1337
 2275W        W17406   3.265  15.676  13.705  0.2349 -0.2043 -0.0392
 2276W        W17407   3.328   0.917   2.849 -0.0630  0.1370  0.0199
 2277W        W17408  17.583   3.571  12.717  0.0489  0.0658  0.0726
 2278W        W17409   9.216  14.434   3.955  0.1897  0.2148 -0.3650
 2279W        W17410  17.077  14.882  15.138  0.0187  0.3872 -0.2520
 2280W        W17411  13.486   5.391   1.053  0.3010 -0.2310  0.1611
 2281W        W17412   0.820  16.912  11.419 -0.1129  0.3078 -0.0651
 2282W        W17413  12.472  14.915  13.788  0.0037 -0.2124  0.4973
 2283W        W17414   1.616  10.520  10.992 -0.0082 -0.0013 -0.1245
 2284W        W17415   1.346   3.202   4.468 -0.2188  0.0602 -0.0561
 2285W        W17416   6.169  10.233  14.601 -0.2425 -0.1663 -0.1591
 2286W        W17417   3.016  11.867  15.133 -0.1114  0.3792 -0.0532
 2287W        W17418   1.399   5.531  15.613 -0.0017 -0.0654  0.1962
 2288W        W17419   5.002   0.057  14.403  0.1228  0.4816  0.0729
 2289W        W17420   5.720  17.108  13.652  0.3459  0.1339  0.0016
 2290W        W17421  14.571   2.301  12.612  0.0629  0.0472 -0.0494
 2291W        W17422  17.299   2.176   3.013  0.1695  0.2704 -0.2634
 2292W        W17423   4.485   5.824  13.566 -0.1158  0.0473  0.1012
 2293W        W17424  17.358  14.383  14.278 -0.0054  0.1030  0.0865
 2294W        W17425  12.627  14.860   4.736  0.0175 -0.1409  0.1778
 2295W        W17426   1.996  17.114   1.105  0.0425  0.0906 -0.0271
 2296W        W17427  12.124   6.584   1.205 -0.2790  0.3190 -0.0684
 2297W        W17428  14.948   4.210   3.024  0.0384 -0.1861 -0.0916
 2298W        W17429   6.064  14.820  11.076 -0.2431 -0.3226  0.0031
 2299W        W17430  17.756   7.784  12.799 -0.1068 -0.0444  0.0777
 2300W        W17431  10.923   4.783   1.689 -0.0617  0.2302  0.0847
 2301W        W17432   0.680   8.895  14.929  0.0532 -0.0452  0.1020
 2302W        W17433  15.117  11.713   1.997  0.1253 -0.1276  0.2215
 2303W        W17434  18.350  10.800  12.814  0.3991  0.2174 -0.1873
 2304W        W17435  11.820   7.406   0.895 -0.1554  0.2822  0.2391
 2305W        W17436   3.388  15.155  10.635 -0.1615  0.0410  0.0960
 2306W        W17437  11.638   2.862  12.755  0.2935  0.1121 -0.0390
 2307W        W17438   2.589   4.851  14.383 -0.0868  0.0909  0.0855
 2308W        W17439   1.822   2.609   0.723 -0.0819  0.0315  0.1415
 2309W        W17440   2.194   2.271  12.967  0.2423 -0.1081 -0.1596
 2310W        W17441  18.598   0.878   3.074 -0.2017 -0.1427 -0.2179
 2311W        W17442  16.110  11.978  14.936 -0.0022 -0.0327 -0.2518
 2312W        W17443  14.433  16.314   1.012 -0.0723 -0.2893  0.2863
 2313W        W17444  15.733   6.545   0.708  0.0400  0.0954 -0.3150
 2314W        W17445   5.058  16.757   2.514 -0.4065  0.1023  0.0807
 2315W        W17446   1.379  14.399  13.320  0.4278 -0.2594  0.0137
 2316W        W17447   3.999   0.940  13.018  0.0047 -0.1230  0.2974
 2317W        W17448   8.201  10.670  14.542 -0.4364  0.1304 -0.1572
 2318W        W17449  17.261   7.144  12.881  0.0791  0.0570  0.0974
 2319W        W17450   0.934  15.690   1.574 -0.1156 -0.2763  0.2077
 2320W        W17451   1.059  10.826  11.135 -0.1359 -0.0675  0.0370
 2321W        W17452   7.496  10.101   2.974  0.1611 -0.4352 -0.1134
 2322W        W17453   8.065  15.996  15.616  0.2597  0.0800 -0.1146
 2323W        W17454  16.836   8.138   4.597 -0.4343  0.0583  0.3739
 2324W        W17455   1.105   2.958  11.685 -0.0177 -0.0687  0.5207
 2325W        W17456   3.201   1.098  14.135  0.1114  0.3341 -0.1869
 2326W        W17457  10.790  10.075  14.957 -0.1503 -0.3046  0.1150
 2327W        W17458   1.687   2.022   2.662  0.3396  0.1414  0.2335
 2328W        W17459   4.557  11.956   4.311 -0.1819 -0.0858 -0.2315
 2329W        W17460  11.902   0.946   0.296  0.0345  0.1783 -0.0751
 2330W        W17461  14.043  13.314  10.400  0.3436  0.1016  0.0974
 2331W        W17462   5.295   1.448   8.904 -0.0825 -0.3235  0.0895
 2332W        W17463   1.143  11.835  14.703 -0.2284  0.1887 -0.0652
 2333W        W17464  13.721   7.746   3.237  0.4161 -0.3492 -0.0796
 2334W        W17465  16.920  13.655   1.044 -0.0720 -0.1628  0.0599
 2335W        W17466   2.195   6.742  12.256  0.1638  0.2654  0.0561
 2336W        W17467   5.495   0.111   2.797  0.1223 -0.3384 -0.1827
 2337W        W17468   7.754  18.118  13.412  0.0446 -0.1632 -0.1012
 2338W        W17469  12.130  14.111   2.976  0.1351  0.1439 -0.0568
 2339W        W17470  14.606   4.508   4.813  0.0724  0.5332 -0.1737
 2340W        W17471   0.618   4.895  14.858  0.0489  0.0780  0.2216
 2341W        W17472   3.566  15.367   2.376 -0.1587 -0.0266  0.0794
 2342W        W17473   2.115   5.898  10.562 -0.1041 -0.0764 -0.4836
 2343W        W17474  15.109  15.683  12.256 -0.1303  0.1166 -0.1217
 2344W        W17475  13.406   5.989  12.088  0.0477  0.0401  0.0422
 2345W        W17476   7.212  14.820   4.451 -0.1052 -0.0555 -0.0885
 2346W        W17477   6.458  11.391  12.679 -0.1899 -0.0844 -0.1814
 2347W        W17478   5.588  17.685  10.750  0.2606 -0.2029  0.1563
 2348W        W17479  10.920   1.282   4.465  0.2037  0.0634 -0.1631
 2349W        W17480  15.315   8.093   4.752  0.1638  0.0112  0.2675
 2350W        W17481  18.695  12.141  13.546 -0.1755  0.2412  0.0874
 2351W        W17482   3.907   7.064   0.360 -0.0440 -0.2513 -0.2933
 2352W        W17483   0.769  15.938   4.701  0.0072 -0.0348  0.0283
 2353W        W17484  12.803   5.653   0.062  0.1414 -0.1254 -0.2024
 2354W        W17485   8.393   8.200  11.077  0.2150  0.3055 -0.0475
 2355W        W17486   1.021  18.386  13.340  0.1498  0.0533 -0.2465
 2356W        W17487   8.652  10.902  14.571  0.0826  0.2310 -0.1699
 2357W        W17488  11.718   4.176   4.531 -0.0615  0.3464  0.1101
 2358W        W17489   8.220  14.460   1.443  0.3169  0.2550  0.3598
 2359W        W17490  17.584   4.170   5.933  0.1949 -0.2138  0.3782
 2360W        W17491   0.683   4.931  15.391 -0.5166  0.0993  0.0098
 2361W        W17492   4.289  13.204   5.885  0.1383  0.0626  0.3293
 2362W        W17493  15.446   7.090   4.453 -0.3746 -0.1900 -0.3068
 2363W        W17494   3.078   2.095   2.618  0.0302  0.0643  0.0788
 2364W        W17495  17.687  15.989  14.436  0.5372  0.0090 -0.4031
 2365W        W17496  12.938  17.387   0.083 -0.0460 -0.0537  0.2835
 2366W        W17497  11.847  17.447  12.832 -0.2222 -0.2190 -0.3975
 2367W        W17498  18.539  11.211   3.969  0.3054  0.2715 -0.2631
 2368W        W17499   9.153  17.726   0.461 -0.1263 -0.2373 -0.2594
 2369W        W17500  16.034  15.486  12.291  0.1756  0.2361  0.0466
 2370W        W17501  15.864   6.843  15.514  0.0044 -0.1898 -0.2967
 2371W        W17502   1.643   6.728  13.071 -0.0695 -0.2506  0.1595
 2372W        W17503  12.629  17.480  12.994 -0.0134 -0.0041 -0.0289
 2373W        W17504   0.330   0.070   4.154  0.0377 -0.3866 -0.0267
 2374W        W17505   1.931  14.583  11.542  0.1313  0.3033  0.1245
 2375W        W17506   6.620   0.445   1.317 -0.0243  0.2863 -0.0843
 2376W        W17507  16.568  17.211   1.705 -0.1840  0.1177  0.2195
 2377W        W17508  14.782   8.539   3.044 -0.0889 -0.0366 -0.1247
 2378W        W17509   5.184  15.997  14.106 -0.0503  0.0677 -0.0731
 2379W        W17510   0.664   1.126  13.256  0.4655  0.2373 -0.2407
 2380W        W17511  15.854  18.482   1.534  0.0846  0.0477  0.1434
 2381W        W17512  15.646  17.914   5.576  0.0064 -0.3488 -0.2887
 2382W        W17513   6.368   2.122  15.230  0.1714 -0.0950 -0.0369
 2383W        W17514   9.157  14.242   1.435  0.0627 -0.4282 -0.0692
 2384W        W17515  15.496   7.227  15.402  0.1759  0.4267  0.0803
 2385W        W17516  14.346   8.739   5.299  0.0659  0.0386  0.0127
 2386W        W17517  13.272   5.909   0.392 -0.0299  0.1069 -0.1887
 2387W        W17518   4.614   2.809   0.390  0.1464 -0.3878 -0.1392
 2388W        W17519  14.455   6.753   1.311  0.0464 -0.1434  0.0905
 2389W        W17520   5.437  17.055   1.425 -0.2384 -0.0848  0.0832
 2390W        W17521   5.705   9.339   2.475  0.3031 -0.2193 -0.1833
 2391W        W17522   7.407  17.723  10.102  0.1812 -0.1990  0.1244
 2392W        W17523  13.983  18.301  11.355 -0.1635  0.0067 -0.0045
 2393W        W17524  14.578  16.901   4.687 -0.3152  0.6069 -0.4687
 2394W        W17525   2.071  13.225   4.945  0.2718  0.1140  0.2525
 2395W        W17526  12.978  12.842   2.443  0.2307  0.3516 -0.1284
 2396W        W17527  16.263   9.520   2.275 -0.0206  0.0130 -0.1908
 2397W        W17528  11.233  11.725   1.682  0.0461  0.0420 -0.0627
 2398W        W17529  10.585   4.950  12.304  0.2519 -0.1567  0.2739
 2399W        W17530   6.514   1.087  14.430 -0.1432  0.0220  0.2378
 2400W        W17531  10.131   5.054  13.781 -0.0884 -0.1049  0.1523
 2401W        W17532   0.922  10.079  10.581 -0.0553 -0.2423 -0.0373
 2402W        W17533  13.641   0.361  11.036  0.2135  0.0638  0.1406
 2403W        W17534   1.709   8.294  12.936 -0.1650  0.3004 -0.1086
 2404W        W17535  17.622  11.364  10.900 -0.1701  0.3388  0.0607
 2405W        W17536  10.038  13.274   4.624  0.2584  0.4085 -0.1187
 2406W        W17537   4.214  13.781  14.668  0.0766  0.4375 -0.0848
 2407W        W17538  14.332   4.676  11.338 -0.2485 -0.1763 -0.1353
 2408W        W17539   7.619   9.412   4.306  0.0161 -0.3730 -0.0828
 2409W        W17540  12.077   0.036   0.939 -0.1917 -0.2724  0.4271
 2410W        W17541   5.772  13.418   1.403 -0.1345 -0.2232 -0.1400
 2411W        W17542  11.516  10.750  13.503  0.0851  0.0329  0.2086
 2412W        W17543   2.283   1.891   4.830 -0.1645  0.3714 -0.0530
 2413W        W17544   8.544   0.291   5.660  0.1860  0.2188  0.2051
 2414W        W17545   7.467   3.628  11.081  0.0446 -0.0606 -0.1103
 2415W        W17546   2.243  15.636  13.401 -0.0145  0.3263  0.1218
 2416W        W17547  10.622   3.541   0.455  0.2718  0.1742 -0.3103
 2417W        W17548  15.064   8.943  11.928 -0.1168  0.0668 -0.0740
 2418W        W17549  16.159  10.981   1.816  0.1007  0.2915 -0.0097
 2419W        W17550  10.339   8.305   4.219 -0.3151 -0.0893  0.0876
 2420W        W17551  10.320  10.893   0.744  0.1767 -0.3000 -0.2220
 2421W        W17552   3.307   2.099   0.504 -0.1795  0.1113  0.0413
 2422W        W17553   0.147   4.568  12.059  0.3244 -0.1387 -0.1030
 2423W        W17554   3.728  10.911  12.809 -0.2916  0.0284 -0.1297
 2424W        W17555  16.667  12.315  10.404  0.4000  0.0393  0.3009
 2425W        W17556  11.128   4.939  12.330  0.1265 -0.3768  0.0518
 2426W        W17557   1.110   6.354   4.359  0.0814  0.1501  0.0744
 2427W        W17558   8.425   6.025   4.634  0.1771 -0.0141 -0.4906
 2428W        W17559   4.264  12.602   3.233  0.0940 -0.0107 -0.2787
 2429W        W17560  10.162   6.187   4.213 -0.1197  0.0675  0.0883
 2430W        W17561  12.628   2.207   5.408 -0.1665  0.3515 -0.1418
 2431W        W17562  10.645  10.699   2.771  0.1627 -0.0790  0.0091
 2432W        W17563   8.901  16.737  11.917  0.2597  0.0907  0.0319
 2433W        W17564   6.377   4.955  13.490  0.2561  0.2188 -0.0148
 2434W        W17565   2.600  15.295   1.052 -0.1362  0.2060 -0.0829
 2435W        W17566  13.735   1.355  15.373 -0.0684 -0.0663  0.3716
 2436W        W17567  16.636  15.416   2.842  0.0082 -0.0664  0.2494
 2437W        W17568   2.849   4.490  15.108 -0.0897  0.0985 -0.0923
 2438W        W17569  11.937   4.614   1.321 -0.1482  0.1682  0.3455
 2439W        W17570  15.726   8.531   5.384 -0.0490  0.0024  0.0643
 2440W        W17571   5.753   0.951  12.474  0.1942  0.1630 -0.1739
 2441W        W17572  10.477  15.215   2.883  0.0867 -0.0719  0.2388
 2442W        W17573   6.425  12.166  11.371 -0.1256  0.5754  0.2708
 2443W        W17574  13.844   9.397  12.193  0.1826  0.0769 -0.0342
 2444W        W17575  15.907   7.554   4.403 -0.3936 -0.0215 -0.1617
 2445W        W17576  17.619   2.917  13.342 -0.1968  0.1187  0.1299
 2446W        W17577   7.330   1.513   3.989 -0.0688  0.0229  0.2345
 2447W        W17578  11.261  14.392  12.884 -0.5192 -0.2492  0.0742
 2448W        W17579   0.914  12.955  10.341 -0.0972  0.0546  0.2038
 2449W        W17580   2.878  12.917  14.663  0.2256  0.0395 -0.3198
 2450W        W17581  10.679  15.824  10.915  0.1363  0.0491 -0.1570
 2451W        W17582  15.012   5.242  13.718 -0.0418 -0.3790  0.1439
 2452W        W17583   6.856   1.145  13.560  0.2889 -0.0265 -0.2864
 2453W        W17584  15.481   9.419   0.443  0.0536 -0.0852  0.0901
 2454W        W17585   4.644   0.749   2.701 -0.2658 -0.0874  0.0988
 2455W        W17586  11.578  15.400  11.818 -0.1102  0.1855  0.0968
 2456W        W17587  10.373   5.905  15.212  0.0539 -0.1697  0.3905
 2457W        W17588  17.824  16.666  14.769  0.1254  0.2294  0.2706
 2458W        W17589  14.607  13.445  14.969  0.0840  0.2229 -0.0752
 2459W        W17590   4.663   8.755   1.589 -0.0600  0.2014 -0.2002
 2460W        W17591   5.909   8.633  11.724  0.2688  0.0384 -0.0973
 2461W        W17592   8.706  14.528   1.297  0.0590  0.1205  0.1524
 2462W        W17593  11.591   0.268   5.934 -0.0447  0.1358 -0.1904
 2463W        W17594  14.536   7.840   2.308 -0.1646 -0.0305 -0.2148
 2464W        W17595  17.128   9.374   3.733  0.1113 -0.0424  0.2125
 2465W        W17596   0.025  13.016   3.004  0.1941 -0.2162  0.1242
 2466W        W17597   9.864   7.678  12.660 -0.0324  0.2224 -0.1179
 2467W        W17598   0.889  13.222   5.068  0.0935 -0.2839 -0.0948
 2468W        W17599   9.638  17.522   5.929 -0.0386  0.0982  0.3780
 2469W        W17600   7.344   5.850   5.499 -0.1043 -0.3841 -0.0401
 2470W        W17601   8.736  10.738   1.404  0.0894 -0.2298  0.0055
 2471W        W17602   1.532  16.917   2.771  0.1666 -0.0661  0.1063
 2472W        W17603  15.087  14.040   3.595 -0.0417  0.0746  0.0313
 2473W        W17604   6.288   3.866   2.860 -0.0555 -0.3867  0.0496
 2474W        W17605  16.938   0.537  13.064  0.1759  0.1317 -0.0147
 2475W        W17606   5.117   8.377   0.545 -0.2196 -0.0250 -0.1649
 2476W        W17607  16.282   8.355   3.742 -0.0102 -0.2432 -0.0591
 2477W        W17608   6.814   3.992  14.725  0.2669 -0.4097  0.0198
 2478W        W17609  18.683   8.026  15.142  0.3031  0.0615 -0.0784
 2479W        W17610   4.782   7.985   1.412  0.1443 -0.0834 -0.1415
 2480W        W17611  16.447  15.874   0.416 -0.0017 -0.0977 -0.0551
 2481W        W17612   6.011  15.272  13.037  0.3720  0.1007  0.2100
 2482W        W17613  15.496  14.333   2.754 -0.0622  0.4023 -0.1263
 2483W        W17614   6.128   5.312   4.030 -0.3809  0.2771  0.2855
 2484W        W17615  12.058  10.432   4.395  0.3996 -0.1499 -0.2359
 2485W        W17616  10.715   8.220  10.551 -0.0378 -0.3709  0.1883
 2486W        W17617   1.164  10.555  14.374  0.1790  0.0470 -0.1782
 2487W        W17618  13.201  17.928   4.496 -0.1538 -0.1166 -0.0253
 2488W        W17619  15.713  10.208  15.542  0.0487  0.3968 -0.0097
 2489W        W17620   0.045   6.669  15.386  0.3669  0.1459 -0.1504
 2490W        W17621  10.748   5.829   5.337  0.0979  0.0645 -0.0842
 2491W        W17622  17.707  10.200  14.243  0.2529 -0.1862  0.2992
 2492W        W17623  14.525   6.020  10.572 -0.2569  0.0462 -0.1613
 2493W        W17624  13.378   3.976  15.170 -0.3851  0.2796  0.0093
 2494W        W17625   9.838  11.027   4.430  0.2840 -0.0907 -0.1872
 2495W        W17626   4.812  16.628   2.109 -0.1946  0.0714  0.0245
 2496W        W17627   7.903   7.908   5.878  0.1275  0.1193 -0.2804
 2497W        W17628  14.941   6.840  11.101 -0.0036 -0.0272 -0.0527
 2498W        W17629  14.683  15.261  12.942  0.3015  0.0751 -0.0195
 2499W        W17630   5.612   1.070   3.857 -0.3935 -0.1537 -0.0510
 2500W        W17631  12.983   4.449  14.324 -0.1777  0.1594 -0.1111
 2501W        W17632  13.190  10.650   2.587  0.2357  0.1766 -0.0932
 2502W        W17633  17.652   9.059   3.729  0.2523  0.2393  0.2652
 2503W        W17634   4.437   3.165  15.479 -0.3381  0.2311  0.2504
 2504W        W17635  13.348   3.342   5.422  0.0920 -0.1878 -0.0415
 2505W        W17636  12.880  12.839   0.898 -0.0188 -0.2219  0.2583
 2506W        W17637  11.589   9.625   2.418  0.0467 -0.0960 -0.2262
 2507W        W17638   1.749   9.183   0.990  0.3780  0.0179 -0.4473
 2508W        W17639  13.496   2.205   3.849  0.2163  0.0209 -0.4060
 2509W        W17640   5.460   5.214   3.434 -0.0242  0.4371  0.0533
 2510W        W17641  16.653   2.225  12.394  0.1306 -0.3850  0.1223
 2511W        W17642   3.439   5.467   0.012  0.1071  0.1901 -0.3111
 2512W        W17643  12.308   6.667   5.892 -0.0251 -0.0174 -0.2485
 2513W        W17644  10.572  15.171  15.278  0.2082  0.3409 -0.2241
 2514W        W17645   3.073   5.455   9.814 -0.1677  0.0260 -0.5114
 2515W        W17646   0.089   1.932  12.373  0.0758 -0.0435  0.2713
 2516W        W17647   9.752  17.557  14.764 -0.0315 -0.1829  0.1097
 2517W        W17648  10.449   2.359   0.082  0.4883  0.1285  0.1798
 2518W        W17649  15.953  14.763   5.951  0.0860 -0.1518 -0.0655
 2519W        W17650   5.994   4.939   1.224 -0.0528 -0.0111 -0.0521
 2520W        W17651  14.197  14.229  12.544  0.1907  0.1709 -0.2525
 2521W        W17652   3.103  15.559  12.337  0.0437 -0.1198  0.0439
 2522W        W17653   4.969   4.974  13.798 -0.0121  0.1072  0.0195
 2523W        W17654  17.526  16.480  15.128  0.5131  0.3583 -0.0239
 2524W        W17655   0.771  11.104  12.581  0.1270 -0.3047  0.2441
 2525W        W17656  17.304  17.071   3.262  0.1377  0.0766  0.1307
 2526W        W17657   2.781  10.494  14.650  0.0641  0.2247  0.2415
 2527W        W17658  16.910   0.375   2.229 -0.3275 -0.2965 -0.0798
 2528W        W17659   0.117   3.735  15.240  0.2247  0.4505 -0.2908
 2529W        W17660   6.608   4.431   3.841 -0.0834 -0.1556 -0.2968
 2530W        W17661  13.185   7.159   0.128  0.1674 -0.2767 -0.2617
 2531W        W17662  12.678  17.419   5.426  0.0571 -0.0386  0.0279
 2532W        W17663   4.052  12.896   0.303 -0.0787 -0.0920 -0.0443
 2533W        W17664  11.038   1.810  14.182  0.0723 -0.0646 -0.0087
 2534W        W17665  12.632   8.968   3.448 -0.1196 -0.0396  0.1720
 2535W        W17666   3.069  11.575   3.492  0.0476 -0.1617 -0.4531
 2536W        W17667   9.760  16.728   2.122  0.0677  0.3393  0.0753
 2537W        W17668   6.852  18.439  12.447 -0.3230 -0.0844 -0.4263
 2538W        W17669   3.807   1.820  14.194  0.0729  0.3144 -0.0888
 2539W        W17670  16.196   2.366  12.559 -0.1165 -0.0422 -0.3860
 2540W        W17671  10.040  14.438  15.284  0.0491  0.1515  0.3313
 2541W        W17672   7.352   5.064   0.753 -0.0377  0.1554 -0.1001
 2542W        W17673   2.120   0.795   2.353  0.2775  0.4035  0.0136
 2543W        W17674  10.551   4.395  12.566  0.0117 -0.1117  0.0479
 2544W        W17675  17.694  14.634  12.800  0.1389 -0.0688  0.0832
 2545W        W17676   7.356  11.082  11.769 -0.1880 -0.0071 -0.0803
 2546W        W17677   8.885   1.270   4.056 -0.0896  0.0940 -0.1028
 2547W        W17678   5.050   9.399  10.689  0.0259 -0.1880 -0.0406
 2548W        W17679   7.214   1.115  15.250  0.2839 -0.0807 -0.3414
 2549W        W17680  15.999   5.762  13.297 -0.0847  0.3388  0.0178
 2550W        W17681   1.321  12.286   1.393  0.1723  0.0538  0.3530
 2551W        W17682   4.494   2.149   4.421 -0.2097  0.2738 -0.2687
 2552W        W17683   6.528  17.189   5.795 -0.0769  0.0270  0.1456
 2553W        W17684   5.261   6.407  10.288  0.1024  0.2136 -0.2152
 2554W        W17685   4.883   9.465   5.675  0.2454 -0.1867 -0.1791
 2555W        W17686  13.657   5.304   2.383  0.2834  0.1503 -0.1302
 2556W        W17687  13.358   5.343   5.238  0.2505  0.2342  0.1566
 2557W        W17688   7.751   2.268  13.472  0.0126  0.0259 -0.0845
 2558W        W17689   6.293  12.805   2.672 -0.2623  0.1786 -0.2335
 2559W        W17690   2.904   9.316   9.677  0.1446 -0.5562  0.0060
 2560W        W17691  12.563  18.632  15.346  0.1617 -0.1631  0.0227
 2561W        W17692  16.106   9.356  11.044 -0.2692  0.2866 -0.0328
 2562W        W17693   6.746  12.046   5.307 -0.1138 -0.2186  0.1348
 2563W        W17694  15.298  13.053   5.554  0.1801  0.0125 -0.3170
 2564W        W17695  10.130   8.426  13.966 -0.1640 -0.3102  0.0596
 2565W        W17696  14.501   9.927  12.081 -0.1733 -0.3706  0.0538
 2566W        W17697   2.205  11.758  10.071  0.2090  0.2251 -0.0256
 2567W        W17698   8.203   2.889  11.554 -0.1825  0.1143 -0.0780
 2568W        W17699   1.536   9.940  13.635 -0.0979  0.1579  0.0183
 2569W        W17700  10.378   7.152   3.117 -0.3643 -0.3801 -0.0155
 2570W        W17701  15.346   5.541   4.967  0.2932 -0.1860  0.1249
 2571W        W17702  10.506   0.522  13.028  0.0735  0.0784  0.0716
 2572W        W17703  12.727   6.389  13.968  0.0137 -0.3187 -0.1133
 2573W        W17704   7.098   8.744   4.593 -0.1517 -0.0429 -0.3757
 2574W        W17705  18.263   7.719  14.893  0.3880 -0.0174  0.3208
 2575W        W17706   5.008  18.486   1.274 -0.1617 -0.0650  0.0229
 2576W        W17707   3.785   1.410   0.395  0.1998 -0.2529  0.2597
 2577W        W17708   7.417   3.161  11.304 -0.2101 -0.3953  0.2710
 2578W        W17709   9.286   6.016  14.722  0.1585 -0.0467  0.0788
 2579W        W17710   7.312  10.688   4.235  0.0431  0.1859  0.2567
 2580W        W17711  10.921  13.836   3.693  0.0528 -0.0532 -0.1660
 2581W        W17712   4.374   0.271  11.748  0.1545  0.0800  0.0394
 2582W        W17713   0.378   3.201  14.175 -0.1113  0.1761  0.0408
 2583W        W17714   6.095  14.631   3.159  0.2707 -0.0548  0.1897
 2584W        W17715  17.793  16.539   0.391 -0.0793  0.1918 -0.1796
 2585W        W17716  17.954   3.957   1.504 -0.0347  0.1669 -0.2116
 2586W        W17717   2.508  12.769   0.663 -0.2030 -0.0317  0.1698
 2587W        W17718  10.145   4.915   0.853  0.0304 -0.2787 -0.0165
 2588W        W17719   4.155  15.291  13.463  0.1316  0.0966  0.2564
 2589W        W17720   4.719   7.558  12.670 -0.0837  0.1050  0.0579
 2590W        W17721  15.493  13.039  12.607 -0.2842 -0.1830 -0.0023
 2591W        W17722   9.393   1.542   0.505  0.2138 -0.4527  0.3666
 2592W        W17723   5.395   3.955   2.211  0.3803 -0.1751 -0.4597
 2593W        W17724   8.643   1.189  15.725 -0.1845 -0.1677 -0.4357
 2594W        W17725  15.145   6.575  11.983  0.1123 -0.1434 -0.2098
 2595W        W17726   1.980  13.260   1.831 -0.2224 -0.0606  0.2130
 2596W        W17727   7.766  12.048   0.562  0.0324 -0.3032  0.1119
 2597W        W17728  16.538  18.708   1.612 -0.1544  0.3043  0.2544
 2598W        W17729  11.186  11.028  12.551  0.2228  0.3070  0.1668
 2599W        W17730   5.483   3.596   5.094 -0.1560  0.0262  0.0832
 2600W        W17731  13.355   4.073   2.997 -0.1733 -0.0935  0.1733
 2601W        W17732  15.756  10.402  14.951 -0.2480 -0.1510 -0.2494
 2602W        W17733  16.458   8.148  14.680  0.2629 -0.0312 -0.0064
 2603W        W17734   7.494  17.148   3.461 -0.1397  0.1922 -0.4427
 2604W        W17735   1.644  10.253   2.506  0.1908 -0.0804 -0.0806
 2605W        W17736  17.199   8.333   3.823  0.1131 -0.0588  0.0964
 2606W        W17737   3.342   6.153   1.912  0.0206 -0.0762 -0.1620
 2607W        W17738  11.229  14.075  10.853 -0.0834  0.0786  0.0922
 2608W        W17739  12.104  17.494   0.013 -0.2116  0.1164  0.2560
 2609W        W17740   8.981  14.751   1.619 -0.4280  0.0656  0.1298
 2610W        W17741   8.264  13.970   1.690 -0.0236 -0.0121  0.0536
 2611W        W17742   6.430   6.273   0.633 -0.1810  0.0864  0.0717
 2612W        W17743   6.773   4.654   2.866  0.0297 -0.0858  0.0480
 2613W        W17744   1.593  10.340   1.566 -0.1986 -0.1361  0.2353
 2614W        W17745   4.577   4.600   4.996  0.2850 -0.1263  0.0960
 2615W        W17746  16.952  10.785   4.765  0.1851  0.1204  0.3617
 2616W        W17747   6.547   2.717   2.762  0.0668 -0.0459  0.1033
 2617W        W17748  18.130   7.828   0.254 -0.0420 -0.0717 -0.1318
 2618W        W17749  16.532   6.394   3.339  0.1587 -0.0804 -0.1469
 2619W        W17750  17.309   7.953   0.847 -0.1225  0.0183 -0.1040
 2620W        W17751   2.294  10.855   1.404 -0.2342 -0.1378  0.2547
 2621W        W17752  18.552  12.421  11.148 -0.0946 -0.2318  0.0698
 2622W        W17753  11.681  15.360   0.229  0.0503  0.0514  0.0481
 2623W        W17754   6.206  10.175   5.458  0.0429 -0.0154 -0.0884
 2624W        W17755   1.283  11.219   4.012  0.1104  0.0435 -0.0118
 2625W        W17756   1.168   6.666   4.715 -0.0156 -0.0113 -0.1933
 2626W        W17757  12.515   3.839   4.373  0.0753  0.4344 -0.1876
 2627W        W17758   5.500   5.097  10.724  0.0441 -0.0345 -0.0010
 2628W        W17759  17.102  14.003  11.743  0.0915 -0.2849  0.1615
 2629W        W17760  10.160   2.796   0.359  0.1561 -0.1033 -0.0314
 2630W        W17761   2.907   0.437   3.013 -0.1021 -0.1342  0.2058
 2631W        W17762   3.230   6.459   2.279  0.1297  0.2128 -0.2255
 2632W        W17763  17.328   0.036   2.794  0.0208  0.0295 -0.0453
 2633W        W17764   5.114   1.599  14.458  0.0932 -0.1922  0.1430
 2634W        W17765  16.102  18.472   0.797 -0.3673 -0.1327 -0.1750
 2635W        W17766  13.816  18.117  13.984  0.4182  0.0287  0.2798
 2636W        W17767   4.733   5.211  12.022  0.0076  0.3508  0.0337
 2637W        W17768   0.481   5.038   0.384 -0.3593  0.0285 -0.1469
 2638W        W17769   6.656  10.492  13.253  0.0057 -0.1322  0.0663
 2639W        W17770  11.105  11.350   6.191  0.0178  0.0047 -0.0868
 2640W        W17771   2.651   9.522   0.726  0.1750  0.2489 -0.0677
 2641W        W17772   6.710  12.369  11.787  0.1533  0.1707 -0.1272
 2642W        W17773  13.503   7.140  11.115 -0.1261  0.0462  0.1416
 2643W        W17774   3.215   1.743   4.380 -0.0357 -0.0923 -0.0707
 2644W        W17775   3.489   6.052  13.177 -0.0295  0.4238 -0.0374
 2645W        W17776   8.221  16.827  10.649 -0.0256  0.1574  0.2755
 2646W        W17777   4.542  17.674   2.297  0.1293  0.1050 -0.0543
 2647W        W17778  13.211  10.046   4.701  0.6582 -0.0393 -0.2719
 2648W        W17779  14.764   8.303  12.600 -0.0435  0.1247 -0.0141
 2649W        W17780  13.043   9.111  13.134  0.1313 -0.2842  0.4365
 2650W        W17781   0.405  11.053   2.800  0.1214  0.1558  0.0076
 2651W        W17782   3.918   9.456  13.080 -0.0096  0.1026  0.1369
 2652W        W17783  15.121  17.634   4.665 -0.1952  0.1245  0.1069
 2653W        W17784  14.602   4.007  13.637  0.3846 -0.0514 -0.0160
 2654W        W17785  13.753   4.753   4.674  0.0916  0.0972  0.1538
 2655W        W17786  10.626   0.609  13.522 -0.1184 -0.2347  0.3669
 2656W        W17787   1.633   4.678   3.345  0.0259 -0.4253  0.2083
 2657W        W17788   6.939  13.744  12.211 -0.1353 -0.3515  0.0286
 2658W        W17789  17.374  16.022   0.246  0.2039  0.1388  0.0272
 2659W        W17790   7.397   7.488  15.623 -0.2389  0.1651 -0.1110
 2660W        W17791   9.228   5.444  14.165 -0.2723 -0.1967  0.0013
 2661W        W17792   7.595   8.829   3.910 -0.2769  0.0319 -0.1405
 2662W        W17793   6.084   6.321   3.605 -0.2409 -0.0731  0.4461
 2663W        W17794  15.795  18.577  15.024  0.0760 -0.0061 -0.1917
 2664W        W17795   2.458  10.433   4.446  0.2198  0.0993 -0.1418
 2665W        W17796   8.091   1.834  14.360 -0.0948 -0.0695  0.1320
 2666W        W17797  12.756  10.423   4.086  0.1871 -0.0223  0.0714
 2667W        W17798  17.096   6.351  10.254  0.3523  0.1104  0.1771
 2668W        W17799   3.553   6.173   2.764  0.4078  0.3057 -0.5603
 2669W        W17800   3.059   7.028  15.153  0.0299 -0.0297  0.0110
 2670W        W17801  16.559   2.713  12.577  0.0506  0.2793  0.1270
 2671W        W17802  10.211   9.528  12.716  0.1780  0.0633  0.2886
 2672W        W17803  10.273   0.710   0.776  0.1321 -0.1506 -0.1055
 2673W        W17804   8.693   0.837  15.006  0.3057  0.1018 -0.1076
 2674W        W17805   4.527   0.855   0.912  0.4502 -0.0636 -0.0107
 2675W        W17806  17.427   3.857  11.808 -0.0812 -0.2015  0.0891
 2676W        W17807   0.608  14.958   2.869  0.2382  0.1513 -0.0357
 2677W        W17808  18.735  14.047  13.176  0.3242  0.0986 -0.0034
 2678W        W17809  16.771   0.543   0.933 -0.3895  0.0322 -0.0495
 2679W        W17810   1.680   3.174   0.570 -0.2216 -0.1676  0.0512
 2680W        W17811  14.190  18.487  13.837 -0.0861  0.3128 -0.3077
 2681W        W17812  14.794   8.801  13.498  0.1019 -0.1098 -0.1522
 2682W        W17813   8.524   9.375  15.638 -0.3922  0.4311 -0.2638
 2683W        W17814  14.951  10.122  11.686 -0.0985 -0.4214 -0.3613
 2684W        W17815   0.610   7.627   1.333 -0.0870 -0.0051  0.1652
 2685W        W17816  15.504  11.681   1.075 -0.0634 -0.1384 -0.0273
 2686W        W17817   6.453   7.715   0.587  0.0159 -0.0423 -0.0882
 2687W        W17818  13.262  12.964  15.334  0.2435  0.0281 -0.0075
 2688W        W17819  12.362   9.084  10.289 -0.0866 -0.1103 -0.0404
 2689W        W17820  13.281   8.529  14.250  0.2632 -0.1175 -0.0792
 2690W        W17821  16.042  11.119   4.913  0.4066  0.0292  0.1697
 2691W        W17822  18.296   0.067   2.500 -0.0170  0.1585  0.0279
 2692W        W17823   9.007  16.571   2.807  0.0533 -0.2338 -0.4786
 2693W        W17824  12.151  18.212   0.856  0.3290 -0.0516  0.2623
 2694W        W17825  15.666  17.343   5.945  0.1119 -0.0361 -0.0530
 2695W        W17826  12.529  16.086  10.397 -0.2288 -0.5686  0.2607
 2696W        W17827  16.252   0.907   3.257  0.2921  0.2360 -0.0588
 2697W        W17828  15.317   1.277   3.725 -0.0593 -0.2848  0.1097
 2698W        W17829  13.389  14.944   0.955 -0.3597  0.2738  0.4417
 2699W        W17830   2.891  18.380  10.979  0.0995  0.0103  0.0655
 2700W        W17831   6.936   7.814  14.222 -0.0993  0.1814  0.1846
 2701W        W17832   9.316  11.532   5.666 -0.0109  0.0324  0.0495
 2702W        W17833   5.619  15.616  14.997  0.2453  0.3896 -0.0164
 2703W        W17834   8.811  10.968   0.937  0.0079 -0.0852  0.0297
 2704W        W17835   1.648   1.615   3.358 -0.0572  0.1571 -0.0303
 2705W        W17836   4.228  16.689   2.087 -0.1999 -0.0321 -0.0910
 2706W        W17837   6.679   0.374  15.572  0.1797  0.1369 -0.1223
 2707W        W17838  17.547  15.609  13.839 -0.0184  0.2534  0.1720
 2708W        W17839  16.683  13.605   0.205 -0.0979  0.3060  0.0647
 2709W        W17840   2.284  14.280  14.425 -0.1432  0.0251  0.0120
 2710W        W17841   9.478   3.110  15.645 -0.1884  0.1007  0.0831
 2711W        W17842   5.059  12.631   0.190 -0.1845  0.1538  0.0488
 2712W        W17843   7.548   2.247   3.422 -0.2594  0.0326  0.4435
 2713W        W17844   4.647   1.828  11.596 -0.1254 -0.1175 -0.2146
 2714W        W17845  13.277   5.547  12.658 -0.3952 -0.2833  0.1638
 2715W        W17846  18.409  13.295   4.735 -0.2111 -0.1337  0.1140
 2716W        W17847  10.642   0.730  12.569 -0.0847  0.2030  0.0130
 2717W        W17848  10.902   0.705  15.759 -0.0289 -0.0060  0.0829
 2718W        W17849   8.670   4.231   1.639  0.0354 -0.1696 -0.1960
 2719W        W17850  14.972   2.048  12.825 -0.4351  0.1185 -0.1323
 2720W        W17851  15.195   2.013  11.753  0.1966  0.1918 -0.0772
 2721W        W17852   7.829   4.023  14.003 -0.3435 -0.1554  0.0797
 2722W        W17853   6.050  15.759  14.138 -0.4201 -0.1840 -0.0964
 2723W        W17854   7.490  11.354  13.919  0.0958 -0.0572  0.3166
 2724W        W17855   0.257   1.797   2.183 -0.4190  0.1024  0.2535
 2725W        W17856   0.850  16.699  14.355 -0.2770  0.2530 -0.0376
 2726W        W17857   2.604  13.167  11.136  0.0181  0.2121 -0.0373
 2727W        W17858  14.863   7.039  11.852 -0.2128 -0.1698  0.1126
 2728W        W17859   5.039  12.628  13.801  0.1694 -0.3630  0.0968
 2729W        W17860   6.605   6.230  11.040 -0.0035  0.0686  0.0739
 2730W        W17861  11.156   9.137   4.076 -0.1380 -0.0560 -0.0427
 2731W        W17862   4.443   7.725  12.286  0.2551  0.0794 -0.0261
 2732W        W17863  17.630   3.468  14.143  0.1718 -0.4470 -0.0795
 2733W        W17864  12.321  11.481   2.023 -0.0354 -0.1443  0.0358
 2734W        W17865   8.556  13.929   0.153  0.1541  0.0619 -0.1878
 2735W        W17866   3.613  13.224  14.793 -0.0331 -0.1157 -0.2186
 2736W        W17867  18.110  13.256  12.573  0.2923  0.2867  0.0574
 2737W        W17868   7.498   1.326   4.401  0.1857  0.2223 -0.0266
 2738W        W17869  10.401   8.980   0.789  0.0159  0.2373 -0.0894
 2739W        W17870  11.740  17.577  10.859  0.2611  0.1913 -0.2411
 2740W        W17871  15.037   6.312   3.706  0.3345 -0.0731 -0.0801
 2741W        W17872   2.061  17.783  12.974 -0.0740  0.1578  0.0834
 2742W        W17873  17.359   1.896   2.444 -0.0524 -0.1840  0.1946
 2743W        W17874   3.763   7.900  15.107  0.0426 -0.0939  0.4350
 2744W        W17875   5.192   8.511   2.708 -0.3841 -0.1610  0.0667
 2745W        W17876   9.901  18.395   4.857 -0.0420 -0.0934 -0.0954
 2746W        W17877   9.321   9.126  14.204  0.0053  0.2419  0.1668
 2747W        W17878  14.862   3.453   0.594  0.1610  0.1726 -0.1435
 2748W        W17879   4.287   5.349  10.950  0.1613  0.1398 -0.1623
 2749W        W17880  13.556   4.275   4.436  0.3681 -0.4166  0.1659
 2750W        W17881   1.985   8.749  12.723  0.0640  0.0518 -0.0743
 2751W        W17882   5.638   7.938  11.132  0.0462 -0.1215  0.1079
 2752W        W17883   0.110  14.902   4.675  0.2566 -0.5135  0.1239
 2753W        W17884   8.925   9.680   0.631 -0.2058  0.1806  0.2579
 2754W        W17885   4.395  15.682   4.635  0.0914 -0.0698 -0.2877
 2755W        W17886   7.403  17.838   1.219 -0.2232 -0.0564 -0.0182
 2756W        W17887  17.186  12.575   3.126  0.0893  0.1119  0.1137
 2757W        W17888   0.220   6.026   4.002  0.0302 -0.0441 -0.3317
 2758W        W17889   1.824  15.810   0.245  0.0109  0.2868 -0.1605
 2759W        W17890   6.901   9.542   4.714  0.0297  0.1629 -0.1044
 2760W        W17891  12.886   4.987  11.407 -0.0852  0.1026  0.0970
 2761W        W17892  15.818  17.216  14.644  0.1134  0.1323 -0.1295
 2762W        W17893   0.290   3.342   0.772 -0.2110  0.2945 -0.0204
 2763W        W17894   0.182  13.522   3.048  0.0707 -0.5462 -0.3850
 2764W        W17895   1.274  12.219  13.486  0.2148  0.0473  0.0173
 2765W        W17896   2.369  10.568  11.798  0.1765 -0.2330 -0.0543
 2766W        W17897   8.947  13.721  14.545 -0.2931  0.0985 -0.0959
 2767W        W17898   6.386   7.048   0.172  0.0800 -0.1305  0.1114
 2768W        W17899  12.940  11.281   1.007  0.0779 -0.0616 -0.0537
 2769W        W17900   6.028  12.351   4.950  0.1422 -0.3548 -0.0163
 2770W        W17901   5.959  14.429  11.395  0.0779 -0.2457  0.0787
 2771W        W17902   7.476   2.771   3.340 -0.0120 -0.0842 -0.0496
 2772W        W17903  18.463   5.671  11.977 -0.3009  0.0037 -0.1045
 2773W        W17904   6.042   8.535   9.841 -0.0678 -0.1278 -0.1575
 2774W        W17905   0.795   3.013  14.512  0.0284  0.2987  0.1175
 2775W        W17906  10.597  14.391  14.382 -0.0502  0.0119  0.2355
 2776W        W17907  12.085  18.251  13.154 -0.0302 -0.2113 -0.0905
 2777W        W17908   6.851   8.509  13.769 -0.0832 -0.0572 -0.4035
 2778W        W17909  17.720  11.743  13.689  0.1311 -0.1020 -0.2416
 2779W        W17910   8.350   0.170   3.781 -0.0299  0.2711  0.1174
 2780W        W17911   6.809  14.141  11.833 -0.0702 -0.1448 -0.1036
 2781W        W17912  13.756  17.811  11.091  0.1440  0.0759  0.3928
 2782W        W17913  18.455  15.790   4.514  0.1261  0.1187 -0.1615
 2783W        W17914   8.909   0.342  13.351  0.3644 -0.0670  0.1248
 2784W        W17915   2.568  11.541  11.244  0.0404  0.3182 -0.1881
 2785W        W17916  13.025  13.806  11.680  0.0667  0.3401  0.1033
 2786W        W17917  12.528   5.738   4.891  0.1005  0.2498 -0.0230
 2787W        W17918   6.145  13.203   0.136  0.0184 -0.1745  0.2745
 2788W        W17919  10.485   0.606   1.821 -0.2000 -0.3862 -0.1322
 2789W        W17920  10.224  13.956  13.487 -0.0324 -0.1471 -0.0078
 2790W        W17921   7.534  14.178  12.603 -0.0736  0.1510  0.2895
 2791W        W17922   6.298   3.582   1.961 -0.2974 -0.1138 -0.1363
 2792W        W17923  16.366   1.524  14.391  0.0467  0.1522 -0.1350
 2793W        W17924   9.519  13.130   6.020  0.0228 -0.0371  0.1012
 2794W        W17925  12.177  11.091   4.335  0.2549  0.0376  0.0164
 2795W        W17926   5.144   0.338  10.491  0.0141  0.2157 -0.2126
 2796W        W17927  13.631  14.465  12.448  0.1583 -0.1463 -0.1264
 2797W        W17928  17.454  18.438   2.081 -0.1566 -0.0022 -0.0823
 2798W        W17929  16.059  14.303   0.706  0.0671 -0.0036  0.1503
 2799W        W17930  18.667   1.849   3.187  0.0685 -0.0051 -0.3829
 2800W        W17931   5.735   2.922  13.297  0.0668  0.1602  0.3755
 2801W        W17932  12.241   1.055  13.553 -0.2076  0.1834 -0.0521
 2802W        W17933   6.309  17.657  10.551  0.4715  0.3256 -0.1292
 2803W        W17934  13.802   6.276  12.120  0.2727  0.0659 -0.1360
 2804W        W17935  17.586   4.771  13.946 -0.1858  0.0703  0.1177
 2805W        W17936   1.849   5.858   3.937 -0.1965  0.0213 -0.1800
 2806W        W17937   4.987  13.335   0.390 -0.2792 -0.3176  0.0903
 2807W        W17938   5.266   0.693  13.835 -0.1638 -0.1033 -0.0883
 2808W        W17939  16.133  11.050   3.700 -0.3362 -0.0484 -0.3454
 2809W        W17940  12.464  12.173   0.586 -0.0491 -0.2064 -0.2378
 2810W        W17941   1.069   6.608   2.946  0.2988 -0.2491  0.2359
 2811W        W17942   3.184   5.926   3.066  0.0967  0.0831  0.1192
 2812W        W17943   5.057   1.918  14.036 -0.0152 -0.2647 -0.2981
 2813W        W17944  12.826  16.170   6.070  0.0661 -0.2138 -0.0882
 2814W        W17945   1.945  12.907   3.261 -0.2190  0.2280 -0.1175
 2815W        W17946   1.066   6.000   0.410  0.2797  0.3770 -0.1603
 2816W        W17947   5.624   7.482   2.655  0.0909  0.1459 -0.0993
 2817W        W17948   6.400   5.499   3.510  0.3349 -0.1203 -0.4002
 2818W        W17949   4.296   2.708  12.252 -0.2072 -0.0399 -0.3891
 2819W        W17950  10.037  14.489  11.227  0.1771  0.1415  0.0415
 2820W        W17951  18.216  18.705   3.918 -0.0793  0.0821  0.0721
 2821W        W17952   1.089  14.066   3.276  0.0370  0.0221  0.0898
 2822W        W17953   5.457   8.765   0.544  0.0328  0.0319  0.2095
 2823W        W17954   0.361  17.406   6.194  0.1444  0.0870  0.0539
 2824W        W17955  18.118   2.417  10.762 -0.1200  0.5064 -0.4977
 2825W        W17956   5.606   3.372  14.920 -0.1389  0.2781  0.0175
 2826W        W17957   4.460  13.377   1.710 -0.1745 -0.2846 -0.1678
 2827W        W17958  12.635  11.079   1.930 -0.0082  0.2214  0.0589
 2828W        W17959  16.435  17.427   4.765  0.2729 -0.3847 -0.0760
 2829W        W17960  12.650  10.261  11.681  0.1567  0.1186  0.0457
 2830W        W17961   2.083   0.151  14.765  0.2246 -0.0057  0.0368
 2831W        W17962   7.022  10.210   4.066  0.1660 -0.0403  0.1120
 2832W        W17963   7.189   0.747  13.504  0.1387 -0.1441 -0.2987
 2833W        W17964   4.222  14.994  12.319  0.0334  0.1419  0.1032
 2834W        W17965   5.033  14.960  10.952  0.0798  0.1663  0.0545
 2835W        W17966   0.260   8.083  15.596  0.1665  0.0203  0.3171
 2836W        W17967  13.653   0.857  15.365  0.2295  0.1429 -0.0924
 2837W        W17968   6.207  11.166   5.149  0.1808  0.3926  0.0868
 2838W        W17969   3.897   5.817  12.757  0.1449  0.1504  0.1174
 2839W        W17970   2.791   4.736   4.749  0.0864 -0.0431  0.1295
 2840W        W17971   6.087  15.830   1.875  0.0379 -0.1326  0.0020
 2841W        W17972  15.246  10.458   4.319  0.0044 -0.4300  0.0275
 2842W        W17973   0.530   7.869  13.680 -0.0694  0.0095 -0.0273
 2843W        W17974  15.035   5.091  13.216  0.1834  0.0190  0.0299
 2844W        W17975   3.925  12.387   3.751  0.1000 -0.4173 -0.0005
 2845W        W17976  14.811   2.409  13.183  0.1946 -0.1255  0.2098
 2846W        W17977  11.669   5.755  12.063  0.0437 -0.2185  0.0292
 2847W        W17978  16.038  18.134   1.193 -0.1399 -0.3653  0.1161
 2848W        W17979   4.838   6.985  14.011 -0.0608 -0.1448  0.0344
 2849W        W17980  15.756   9.641  11.817  0.3894 -0.1043 -0.1672
 2850W        W17981   1.093  14.832  12.374 -0.0459 -0.1155  0.1327
 2851W        W17982  15.748   0.856  10.582 -0.0541 -0.1596 -0.3508
 2852W        W17983  14.382  13.342   0.077 -0.2817  0.1447 -0.0702
 2853W        W17984   3.767  18.540  14.838  0.0249  0.0413 -0.0288
 2854W        W17985   4.415   6.235   3.836  0.0977 -0.1542  0.3347
 2855W        W17986   5.366  11.521   4.044  0.0961  0.1790  0.0864
 2856W        W17987  11.377   6.298   3.131 -0.1195  0.0518 -0.0857
 2857W        W17988  11.927   4.074   1.249  0.1167  0.0450 -0.1062
 2858W        W17989   3.557  13.554   5.280  0.0791 -0.4750  0.0273
 2859W        W17990  12.417  18.379   1.650  0.0156  0.0248  0.4530
 2860W        W17991  17.663  17.648   4.401  0.1453 -0.0768 -0.1450
 2861W        W17992  10.406  17.722   5.122  0.1340 -0.0524 -0.2305
 2862W        W17993   0.902  11.256  10.410 -0.0604  0.2220  0.2023
 2863W        W17994  18.192  17.014   4.929  0.2694 -0.0050  0.2998
 2864W        W17995  14.975   4.992   3.553 -0.0791 -0.1421  0.1317
 2865W        W17996  11.315   6.154   1.163 -0.0821 -0.1835  0.2822
 2866W        W17997   2.217  13.393  14.318  0.1235 -0.2066  0.0787
 2867W        W17998  13.335   2.961  11.657 -0.0931  0.0020 -0.2564
 2868W        W17999   6.509   8.070  11.380  0.1919  0.2673 -0.6479
 2869W        W18000   7.150   6.935   1.975  0.2303  0.1686  0.3327
 2870W        W18001  17.033  16.328  12.832  0.0689  0.3077  0.3519
 2871W        W18002  16.438   2.021  11.624  0.1241  0.0259 -0.1647
 2872W        W18003  17.574  11.269  13.400  0.2561  0.0132 -0.1375
 2873W        W18004   1.804   3.620  11.726 -0.1211  0.2085 -0.3668
 2874W        W18005   2.269  12.729  11.090 -0.0659 -0.1840 -0.3270
 2875W        W18006  11.156  12.043   0.916  0.3058  0.0610  0.3001
 2876W        W18007   5.511  18.445   0.810  0.2793  0.0458 -0.1692
 2877W        W18008  11.154   0.438  12.718  0.3906  0.1667  0.0161
 2878W        W18009  13.987   2.026  15.026  0.3305  0.1134 -0.0274
 2879W        W18010   9.436   3.638   4.431 -0.1013 -0.0286 -0.3030
 2880W        W18011   2.446   9.240   1.129  0.1989 -0.1862  0.0137
 2881W        W18012  12.836   1.247   4.500 -0.1308 -0.2155 -0.0730
 2882W        W18013   8.082  18.682  11.820  0.3620  0.0489 -0.2263
 2883W        W18014   3.322   0.571  14.071 -0.0501  0.1046 -0.0440
 2884W        W18015  15.018  14.246   1.354  0.2169  0.0244 -0.0448
 2885W        W18016   0.546  16.161  14.681 -0.0018 -0.1118 -0.1495
 2886W        W18017  14.272  17.678  12.654 -0.1014 -0.2091 -0.0008
 2887W        W18018   5.407   9.573   5.773 -0.1577  0.0772  0.2017
 2888W        W18019   8.275   7.276  11.352 -0.0167  0.2240 -0.0554
 2889W        W18020   9.335  12.899   2.590 -0.1347  0.0578 -0.1857
 2890W        W18021   4.513  14.652   0.845 -0.1460  0.0924  0.3962
 2891W        W18022  15.830   5.708   2.974 -0.2796  0.0581 -0.2105
 2892W        W18023  11.390   5.215   2.574  0.1332 -0.0346  0.0255
 2893W        W18024  15.787   1.405   3.135 -0.0306 -0.0542  0.2472
 2894W        W18025  14.883  12.763   1.260 -0.0785 -0.1086 -0.0750
 2895W        W18026   3.396  11.524  11.593 -0.2461 -0.1612 -0.0468
 2896W        W18027  11.481  17.981  10.872  0.1503 -0.0799  0.1330
 2897W        W18028  12.990   1.104  12.626  0.3532 -0.0801 -0.1928
 2898W        W18029  16.948  15.813   2.766 -0.0312 -0.0864  0.0988
 2899W        W18030  10.351   1.336   4.360 -0.0595  0.0059  0.0340
 2900W        W18031  18.315   5.362   4.693  0.2442 -0.1542  0.0872
 2901W        W18032   2.886  14.033  14.682 -0.3070  0.2318 -0.0925
 2902W        W18033   8.774  12.886  15.047  0.1519  0.0748  0.1580
 2903W        W18034   3.539   4.017   5.194  0.1356  0.3411  0.1037
 2904W        W18035   1.317  14.283  12.519  0.2363 -0.2108  0.0818
 2905W        W18036  12.806   1.281   4.993 -0.2161 -0.0606  0.2793
 2906W        W18037   5.048   7.412  11.751  0.0255 -0.0950 -0.3440
 2907W        W18038   9.954   9.988   0.877  0.0639  0.0320 -0.1169
 2908W        W18039  18.042   8.264   2.901  0.2699  0.0000  0.0814
 2909W        W18040  18.754   1.183  13.958  0.1630 -0.1895  0.0608
 2910W        W18041   2.280   7.197  15.726  0.1365 -0.2097  0.1704
 2911W        W18042  10.097   5.771  10.958  0.0085  0.1085 -0.1943
 2912W        W18043  18.096  10.432  13.060 -0.0491 -0.1395 -0.0735
 2913W        W18044  13.886   7.246   0.022 -0.0588 -0.1081 -0.0720
 2914W        W18045  18.005   5.620   4.360 -0.1280  0.1123 -0.2000
 2915W        W18046   1.343  18.009  12.407 -0.1667  0.1283  0.0723
 2916W        W18047  10.805  11.356   1.636 -0.0850  0.0786 -0.1447
 2917W        W18048   8.745  13.835   1.474  0.0402  0.1740 -0.1351
 2918W        W18049  16.396   6.515  13.831 -0.4314 -0.0337 -0.3796
 2919W        W18050  12.898  11.099  14.386 -0.2780  0.2080 -0.1315
 2920W        W18051   4.659   8.537   4.173 -0.1512  0.1580 -0.1471
 2921W        W18052  17.852  10.858  12.866 -0.3322  0.0286 -0.2173
 2922W        W18053   5.214  10.305  11.784 -0.0908  0.1968 -0.0767
 2923W        W18054  14.948   2.278   3.721 -0.1608 -0.1652 -0.4716
 2924W        W18055   4.006   6.950   3.055  0.3072 -0.0758  0.2948
 2925W        W18056   1.026   8.593   3.847 -0.1008  0.0490  0.0323
 2926W        W18057  15.074   0.390  15.310 -0.1735 -0.2641  0.1735
 2927W        W18058  10.355  14.009   5.085  0.1334 -0.0733  0.1206
 2928W        W18059   3.262  16.947   4.884 -0.0474 -0.1344  0.3934
 2929W        W18060   3.600  18.498   4.344 -0.2630  0.0621 -0.0641
 2930W        W18061   2.806   8.119   0.804 -0.3109 -0.1069  0.2869
 2931W        W18062   9.152  17.329   2.081  0.1202  0.0748 -0.3181
 2932W        W18063   7.768   9.047   3.434 -0.4217 -0.1581  0.2536
 2933W        W18064  11.701   9.949  10.312  0.1732 -0.2417 -0.0194
 2934W        W18065  10.104   4.830   1.367 -0.3311 -0.1943 -0.2583
 2935W        W18066   0.078   4.327   1.555  0.0568 -0.3230  0.1828
 2936W        W18067   4.162   5.144   5.131 -0.0885 -0.1892  0.1310
 2937W        W18068   4.010   8.007   1.897 -0.0382 -0.1481 -0.0614
 2938W        W18069  17.467  10.914  10.779 -0.0277 -0.1502 -0.0923
 2939W        W18070   8.059  15.697   4.342  0.0327 -0.1274 -0.0792
 2940W        W18071   1.787  13.102   4.470 -0.3039  0.4370 -0.0575
 2941W        W18072   6.361  18.211   2.748  0.0963  0.0961 -0.1821
 2942W        W18073  14.559   6.147  12.609  0.0540  0.0994  0.0251
 2943W        W18074   0.081  10.905  14.510 -0.1542  0.1694  0.3226
 2944W        W18075  18.496  15.797   5.704  0.1182  0.2743 -0.1170
 2945W        W18076   1.066   6.054  12.738 -0.1132 -0.1017 -0.1575
 2946W        W18077  17.339   4.395   2.509 -0.0887 -0.0920  0.2323
 2947W        W18078  16.002   4.927  11.114 -0.0908  0.1645  0.0993
 2948W        W18079   5.241  15.961   9.690 -0.0642 -0.0741  0.2787
 2949W        W18080  10.507   0.038   3.518  0.2026  0.2111  0.3811
 2950W        W18081   0.348  14.631  12.771 -0.0633 -0.2280 -0.0614
 2951W        W18082   2.590   6.666   2.923 -0.2276 -0.0503  0.1419
 2952W        W18083   2.691  13.844  13.324 -0.0573  0.0317 -0.3012
 2953W        W18084  14.030  16.682  14.961 -0.0614  0.1470 -0.0231
 2954W        W18085  16.014   1.975   1.826 -0.0881  0.1619 -0.1944
 2955W        W18086   6.529   0.606   9.919  0.2564  0.2196 -0.1003
 2956W        W18087   1.335  14.323   1.956 -0.0622 -0.3191 -0.1919
 2957W        W18088  15.420   6.827   0.137  0.0060 -0.2547 -0.1554
 2958W        W18089   5.317   4.966  11.936  0.2326 -0.0688 -0.0622
 2959W        W18090  18.315  11.142  15.717  0.0447  0.0226  0.0478
 2960W        W18091  16.413  13.507   2.483  0.2291 -0.0728 -0.0484
 2961W        W18092   7.402  13.842   5.209 -0.0145  0.1148  0.0419
 2962W        W18093  11.095  17.527   3.984 -0.2737  0.3044 -0.1403
 2963W        W18094   7.844   7.567  13.003 -0.1021  0.5794  0.0930
 2964W        W18095   8.476  16.909  14.824 -0.1971  0.2624 -0.2447
 2965W        W18096  16.405  17.510  12.703 -0.0816  0.2300  0.2040
 2966W        W18097   1.923  16.023   5.151 -0.1235  0.3647 -0.1985
 2967W        W18098  16.959   9.584   4.820 -0.3128  0.0486  0.0238
 2968W        W18099  16.373   1.389  10.342  0.0352  0.0619 -0.0366
 2969W        W18100   3.140  14.218   0.711  0.1092  0.2311 -0.1270
 2970W        W18101  15.125   6.677  10.635 -0.2645  0.3068  0.0689
 2971W        W18102   1.425  11.763  11.617  0.2347  0.3127 -0.2356
 2972W        W18103  13.622   2.512   3.490 -0.7242  0.0970 -0.1504
 2973W        W18104   9.661   4.949   2.858  0.0224  0.1144  0.0323
 2974W        W18105   1.432   0.726   3.773  0.4462  0.1204 -0.0457
 2975W        W18106   5.775   1.975   1.699  0.0175  0.2647  0.0032
 2976W        W18107  11.250   6.850   1.303 -0.0032 -0.0234 -0.0223
 2977W        W18108  15.100  14.868   3.268 -0.1406 -0.1381 -0.0730
 2978W        W18109  16.320   4.160  15.198 -0.1297 -0.0699  0.2683
 2979W        W18110  10.698  14.563   1.834 -0.0815 -0.2178 -0.1257
 2980W        W18111  11.748   7.218   2.496  0.2667  0.0175  0.3012
 2981W        W18112   9.257   3.499  14.408  0.0934 -0.0047  0.3579
 2982W        W18113  12.199   5.561  12.232 -0.0359  0.0183 -0.1371
 2983W        W18114   6.490   8.927  15.246 -0.1252  0.3226 -0.3700
 2984W        W18115   8.916  16.665  13.076 -0.1320  0.1635  0.2632
 2985W        W18116   2.170  12.132  13.139 -0.1195  0.0078  0.0762
 2986W        W18117   7.271   1.568  11.607 -0.3409 -0.1673 -0.2566
 2987W        W18118   4.875  16.947   3.223  0.0119 -0.3160  0.0918
 2988W        W18119   6.986   4.127   1.948 -0.1926  0.2896  0.0875
 2989W        W18120   2.934  18.291   3.623  0.1658  0.1829 -0.0891
 2990W        W18121   2.127  11.981  12.246 -0.0233 -0.0797 -0.0305
 2991W        W18122   6.365   1.432  13.143  0.2232 -0.0469 -0.2272
 2992W        W18123   2.429   0.394  12.214  0.1353  0.1494  0.0392
 2993W        W18124  14.369   4.813   1.399  0.1011  0.2261  0.1882
 2994W        W18125  13.926  17.397   4.319  0.2034  0.0282  0.0742
 2995W        W18126  18.030   6.222   0.454  0.4114  0.1582  0.4285
 2996W        W18127   3.186  13.906  15.687  0.1463  0.4982  0.1372
 2997W        W18128   1.153   9.068  11.507  0.3061 -0.0396  0.0491
 2998W        W18129  14.204   3.002  14.970  0.0567 -0.4686 -0.3252
 2999W        W18130  10.705  13.069  12.430  0.1660  0.1248 -0.0540
 3000W        W18131  11.575  10.268  12.985  0.0645  0.1760  0.0222
 3001W        W18132   0.648   3.414   1.167 -0.2475 -0.0137  0.1376
 3002W        W18133   4.846   0.882  12.012 -0.1185 -0.0510  0.1331
 3003W        W18134   2.596   3.873  10.098 -0.5765  0.1730  0.0441
 3004W        W18135  12.066   3.073  12.312 -0.2289  0.2908 -0.2309
 3005W        W18136  16.234  10.217  15.416 -0.0286 -0.2338  0.0352
 3006W        W18137  18.010   8.170  12.508  0.0669 -0.1102 -0.4502
 3007W        W18138   0.458   4.694   3.671 -0.0197 -0.2133  0.2605
 3008W        W18139  16.007   4.927   4.816  0.1979  0.2068  0.1556
 3009W        W18140  17.320   6.133  11.491  0.1784  0.6011  0.6379
 3010W        W18141   6.605   5.929   2.408 -0.2247 -0.2788 -0.2563
 3011W        W18142  12.596  16.912  12.878 -0.0802 -0.0308  0.0106
 3012W        W18143  16.280  15.877  14.009 -0.1779 -0.2460 -0.4763
 3013W        W18144  10.661   2.583   3.161  0.2296  0.0485 -0.1846
 3014W        W18145   9.830  12.237   1.329  0.0011  0.2655  0.0189
 3015W        W18146   1.391   7.710   5.018  0.0369 -0.0914  0.1458
 3016W        W18147   8.013  16.574  12.543 -0.1312 -0.1412 -0.1746
 3017W        W18148   6.683   8.919  14.312 -0.0835 -0.1581 -0.3814
 3018W        W18149   5.745  18.094   1.041  0.1262 -0.2451 -0.2077
 3019W        W18150   7.690   4.177  14.500  0.3951 -0.1221  0.1324
 3020W        W18151   7.221  10.159   4.997  0.4591  0.1221 -0.1392
 3021W        W18152  13.486  13.570   3.359 -0.0863 -0.3971  0.1166
 3022W        W18153  11.928   4.862  13.468  0.0527  0.0888 -0.1293
 3023W        W18154  11.752  17.890  15.674  0.0488 -0.2064 -0.1886
 3024W        W18155   2.137   9.092   1.533  0.1837  0.0000 -0.3119
 3025W        W18156   0.527  12.105   3.898  0.0071  0.0587 -0.0621
 3026W        W18157   3.721   6.279  12.784 -0.1798 -0.3866 -0.1778
 3027W        W18158   8.730   1.462  12.916 -0.1279 -0.0745  0.1057
 3028W        W18159  15.216  15.006   4.572 -0.0558  0.1096 -0.0115
 3029W        W18160   7.096   6.300  10.956  0.1807  0.0189 -0.1526
 3030W        W18161   1.586  10.457   0.251 -0.0669 -0.1232  0.2869
 3031W        W18162   4.235   5.694  11.776  0.0615 -0.1286 -0.1645
 3032W        W18163   6.523  11.376  14.008  0.3330  0.0759  0.3042
 3033W        W18164  12.765   1.767   4.299 -0.1750 -0.1501  0.2677
 3034W        W18165  10.763   2.533  12.965  0.0873  0.1053  0.1223
 3035W        W18166   3.628   0.493  10.755 -0.0263 -0.1851 -0.0965
 3036W        W18167  14.050   2.098   4.758  0.1628 -0.1180  0.2741
 3037W        W18168   6.518   5.654   1.156 -0.2726  0.1479  0.1600
 3038W        W18169   0.246   2.930  14.584  0.1112  0.0927 -0.0735
 3039W        W18170  15.198  11.804  14.860  0.0232 -0.1289  0.2880
 3040W        W18171   0.178   9.753  11.792 -0.1173  0.0568  0.1953
 3041W        W18172  13.698   9.881   0.582  0.0299 -0.0649 -0.2606
 3042W        W18173   2.608   2.834  12.504 -0.2516  0.0782 -0.0937
 3043W        W18174  10.998   0.121   3.188  0.0890  0.2975 -0.3245
 3044W        W18175  16.046   0.605   3.540  0.0586  0.0105 -0.0044
 3045W        W18176   9.021   2.602  14.862  0.1732 -0.2251 -0.0235
 3046W        W18177  17.733   5.200  11.943 -0.1030 -0.1361  0.1430
 3047W        W18178   0.612  14.842   0.445  0.3598 -0.0077 -0.2696
 3048W        W18179   5.155  15.081   3.401  0.2869 -0.1512 -0.1897
 3049W        W18180  10.762   2.306   4.075  0.0098 -0.2134 -0.0868
 3050W        W18181   7.850  15.212  15.107  0.0917 -0.2010 -0.1469
 3051W        W18182  10.219  12.793  14.521 -0.1199 -0.0054  0.0136
 3052W        W18183   1.185  14.032  12.117 -0.4443  0.0801  0.5429
 3053W        W18184  13.153   8.724  14.726 -0.1246 -0.0337  0.0346
 3054W        W18185   6.914   7.304   2.260 -0.0464 -0.0524  0.2981
 3055W        W18186   4.882   4.081  12.589 -0.2475  0.2355  0.1342
 3056W        W18187  12.507   9.062   0.056 -0.0883 -0.1639  0.1251
 3057W        W18188   3.422   7.014   0.371 -0.4489 -0.1664 -0.0238
 3058W        W18189  12.772  11.705  13.309  0.2599  0.0228  0.2564
 3059W        W18190   4.098  13.902   4.216 -0.0626  0.2069  0.1471
 3060W        W18191  10.414   4.424   2.465  0.2898 -0.1188  0.1090
 3061W        W18192   8.363   8.705   4.162 -0.2094 -0.0883 -0.1118
 3062W        W18193   6.266  17.138  11.823  0.1160 -0.0644  0.1815
 3063W        W18194  11.920  11.807   4.908  0.0154 -0.1861  0.4178
 3064W        W18195   7.183  15.773   2.424  0.0007 -0.3104  0.3509
 3065W        W18196   2.124  13.703  11.685 -0.1047 -0.0400 -0.0317
 3066W        W18197   3.286  10.691   3.693 -0.0403 -0.0975  0.0843
 3067W        W18198   7.180   3.213   2.935  0.0278  0.0536  0.0479
 3068W        W18199   9.181   5.808   2.428 -0.0314  0.1172 -0.3846
 3069W        W18200   3.040   9.018   3.307 -0.3641  0.1596  0.1084
 3070W        W18201  15.083  13.705   2.322  0.1078  0.2524 -0.3775
 3071W        W18202   0.569   4.746  12.245 -0.0216  0.0919 -0.0443
 3072W        W18203   6.222  13.657   3.432 -0.0499 -0.1152  0.1755
 3073W        W18204  13.426  16.357   3.063 -0.1766  0.0161  0.0404
 3074W        W18205  15.960   7.657  12.069  0.0221 -0.1068 -0.1375
 3075W        W18206  13.944   1.999   1.296  0.8069 -0.1701  0.1010
 3076W        W18207  10.862   9.844   0.227 -0.3097  0.1313 -0.1463
 3077W        W18208  16.480  16.592   4.454 -0.1669  0.0724  0.0072
 3078W        W18209   7.959   2.799   0.864 -0.2021  0.0631 -0.0250
 3079W        W18210  11.505   8.022   4.767 -0.0384  0.2226  0.1253
 3080W        W18211   0.975  10.029   1.738 -0.1139  0.0151 -0.1931
 3081W        W18212   5.255   7.572  13.464 -0.1147 -0.1215 -0.0690
 3082W        W18213  14.452   0.574   5.920 -0.2714  0.0073  0.0482
 3083W        W18214   9.185  15.635  14.104  0.1701  0.0459 -0.0875
 3084W        W18215   0.395   0.978   5.245 -0.3517  0.1621  0.1102
 3085W        W18216   4.056   7.808   4.218 -0.0879 -0.0650 -0.0287
 3086W        W18217  11.738   1.166  11.010 -0.1292  0.1887  0.2903
 3087W        W18218   4.159   1.343   3.380  0.2266  0.1475  0.0151
 3088W        W18219  12.419   7.121  11.883 -0.0226 -0.3715  0.2050
 3089W        W18220   7.153  16.315  13.875 -0.2879  0.3856 -0.1941
 3090W        W18221  15.815   6.119   2.535 -0.3571  0.2710  0.2829
 3091W        W18222   1.023  10.351   4.611 -0.3854 -0.0562 -0.1702
 3092W        W18223   7.677  15.121  11.766  0.0265 -0.3288 -0.0123
 3093W        W18224   5.628   6.249  14.441 -0.1302 -0.1594 -0.0850
 3094W        W18225   9.090  13.343   0.686  0.2667  0.0766 -0.1293
 3095W        W18226  14.036  15.795   5.018  0.0183  0.0299 -0.0418
 3096W        W18227   5.472   5.877  14.902  0.2339  0.4307 -0.2352
 3097W        W18228   9.598  18.739  10.443  0.1175 -0.0485 -0.3567
 3098W        W18229  13.221   7.292  12.722 -0.3463 -0.1822 -0.1415
 3099W        W18230   1.060  17.345  11.528 -0.1167 -0.0978 -0.1297
 3100W        W18231  12.295  14.942   2.488 -0.3022 -0.0626  0.0778
 3101W        W18232  13.208  11.593  13.037 -0.2420  0.1257 -0.1068
 3102W        W18233  16.128  15.949  11.859  0.3020  0.0804  0.3387
 3103W        W18234  10.171  10.824   5.325 -0.1003 -0.0185  0.2530
 3104W        W18235  10.233   0.149   9.840 -0.0979  0.0203  0.1019
 3105W        W18236   8.157   2.797   4.741 -0.5043  0.2468 -0.0310
 3106W        W18237   7.716   9.094  11.865 -0.3300  0.0767  0.1045
 3107W        W18238   4.499   8.249  14.291 -0.0744  0.1262  0.1083
 3108W        W18239  18.286  17.779  15.749 -0.4101  0.0867  0.0397
 3109W        W18240  15.036   7.067   1.672 -0.1070 -0.1254 -0.0296
 3110W        W18241  12.161  15.059  12.936  0.2655  0.1333 -0.1194
 3111W        W18242   1.345   1.662   4.874  0.3066  0.0335  0.1272
 3112W        W18243   4.617   2.502  10.505  0.0704 -0.0587 -0.0760
 3113W        W18244   4.736   2.008  10.491  0.0789  0.1359 -0.0038
 3114W        W18245   3.448   4.048  14.614  0.1194  0.0208  0.0789
 3115W        W18246   8.820   0.624  11.724 -0.1404 -0.0899  0.2998
 3116W        W18247   5.485  17.756  12.429  0.1561 -0.0215 -0.3416
 3117W        W18248  11.917  13.295  12.989  0.0528  0.3530  0.1682
 3118W        W18249   4.991   5.793   0.834  0.3249 -0.1887 -0.3567
 3119W        W18250  11.586   1.198   5.262  0.0947  0.0499 -0.0497
 3120W        W18251   7.845   7.700   3.069 -0.1746  0.0353 -0.0487
 3121W        W18252  17.022   6.880   3.813 -0.0753 -0.0727  0.0343
 3122W        W18253   5.150   7.758  15.755 -0.0269 -0.0637 -0.1493
 3123W        W18254  13.130  17.797   3.480 -0.2273  0.0403  0.2143
 3124W        W18255   4.608  16.120   4.875 -0.2723 -0.0334 -0.2120
 3125W        W18256  15.744   2.747   0.580  0.2167  0.1587 -0.0574
 3126W        W18257  14.276   0.761   2.248 -0.1596  0.0906 -0.4003
 3127W        W18258   0.296   2.528  13.340  0.1885 -0.2641  0.0605
 3128W        W18259  13.322  10.811   5.014  0.1726 -0.0483  0.0063
 3129W        W18260  14.405   4.536   9.768 -0.2867  0.1361  0.3908
 3130W        W18261  15.645   0.735  11.924 -0.3537  0.0558  0.0981
 3131W        W18262   4.836   0.605  12.997 -0.0780 -0.1328  0.0294
 3132W        W18263   3.398   6.273  14.087  0.0470  0.0986 -0.1024
 3133W        W18264   7.056  14.430  15.436 -0.0265  0.2634  0.4005
 3134W        W18265   3.821   4.521   0.227 -0.3600 -0.1092 -0.1090
 3135W        W18266  15.194  13.481   5.196  0.2008 -0.1344  0.0643
 3136W        W18267   4.532  13.731  12.999  0.0652  0.0791 -0.0187
 3137W        W18268   0.906  16.412  12.981  0.1238  0.1652  0.0983
 3138W        W18269   8.697   8.778   2.505 -0.2359  0.0190 -0.4122
 3139W        W18270  13.568   8.935  14.008  0.1533  0.1400 -0.3509
 3140W        W18271   3.642   4.209   3.443 -0.0640  0.0613  0.0358
 3141W        W18272  15.723   0.977   3.596  0.2441 -0.2045  0.3190
 3142W        W18273  17.533   7.970  13.173  0.0596 -0.0939 -0.1482
 3143W        W18274  12.448   6.605   2.314  0.1831  0.0806  0.0540
 3144W        W18275   9.501  13.345   0.875 -0.2013  0.0162  0.1462
 3145W        W18276   8.067  10.381   4.376  0.1595 -0.2094  0.2570
 3146W        W18277   1.674   1.245   4.992 -0.1435  0.1444 -0.1396
 3147W        W18278  17.854   2.463   4.097 -0.0824  0.0662  0.0679
 3148W        W18279  17.518  16.749  15.622  0.0734  0.0281  0.0992
 3149W        W18280  16.270  12.510   1.499  0.0370  0.2011  0.2107
 3150W        W18281   0.473   2.133   0.854 -0.0121  0.3226  0.2438
 3151W        W18282  12.608  12.572  12.244 -0.2141  0.0878  0.0392
 3152W        W18283  17.772   5.195   0.507 -0.0114 -0.1165  0.0689
 3153W        W18284  16.586  10.475   2.603 -0.0828 -0.0982 -0.2008
 3154W        W18285  13.213   1.716   3.197  0.0123 -0.1641 -0.2343
 3155W        W18286  12.471  14.757  10.133 -0.0876  0.1374 -0.0842
 3156W        W18287  10.448  12.149   4.579  0.2408  0.1996  0.0667
 3157W        W18288  16.540   7.654  12.358 -0.1230 -0.0375 -0.2493
 3158W        W18289   2.134  12.155   0.231 -0.0308 -0.1536 -0.2137
 3159W        W18290  16.516   2.642   5.476  0.1427  0.0521 -0.2245
 3160W        W18291   9.589   3.964   4.740  0.0448  0.1170 -0.3021
 3161W        W18292   4.996  10.968   2.106  0.0520 -0.1797 -0.0136
 3162W        W18293   7.030   0.147   0.208 -0.0272  0.0395 -0.0637
 3163W        W18294   3.322  14.876   4.878  0.1286  0.2013 -0.2319
 3164W        W18295  17.593  11.880  12.552  0.0068 -0.0038 -0.1184
 3165W        W18296   6.100  12.475   2.368 -0.0756 -0.0376  0.0491
 3166W        W18297   2.547  14.410  13.489 -0.1517  0.0380  0.1655
 3167W        W18298   5.772   8.733  14.750  0.1453  0.0330  0.5510
 3168W        W18299  15.472  14.077  12.957 -0.0329 -0.2133 -0.2104
 3169W        W18300   4.490   7.935  10.561  0.1066 -0.0864 -0.0492
 3170W        W18301  10.426   4.070  14.887  0.0030 -0.1481  0.0205
 3171W        W18302  14.899  15.620  11.446 -0.1862  0.1157 -0.0352
 3172W        W18303  15.220   5.555   0.062 -0.0426 -0.0790 -0.5167
 3173W        W18304  12.769  10.856  13.877  0.2520  0.2301  0.0041
 3174W        W18305  15.043   6.161  10.487 -0.0061 -0.0148  0.0618
 3175W        W18306  10.575  17.263  13.380  0.2168  0.1857  0.0621
 3176W        W18307   3.251   1.799   3.861 -0.2250  0.1262  0.3074
 3177W        W18308   3.640  15.523   3.676 -0.0031 -0.2134  0.1582
 3178W        W18309  11.032   3.142   3.683 -0.1074  0.2520  0.0161
 3179W        W18310   1.879   9.619   1.850  0.0500  0.4131 -0.0817
 3180W        W18311  12.664   9.269   3.835 -0.3156  0.3203 -0.2958
 3181W        W18312   5.133  16.138  11.502 -0.0783 -0.1801 -0.1640
 3182W        W18313  15.426  17.007  11.393 -0.0132  0.0615 -0.3827
 3183W        W18314  16.428   9.753  12.466  0.2041  0.1856 -0.0403
 3184W        W18315   4.093   5.513   4.279 -0.0986 -0.1224  0.1482
 3185W        W18316   7.635   2.062   0.516  0.0581  0.2259  0.1633
 3186W        W18317  13.844  13.509  12.554  0.0247  0.0027  0.0683
 3187W        W18318   3.521   1.455   4.903 -0.1731  0.3487 -0.0503
 3188W        W18319  12.152   8.535   1.736 -0.0620  0.0915 -0.1916
 3189W        W18320   0.803   1.455  14.889  0.0023  0.1711 -0.1446
 3190W        W18321   5.400   7.570  14.369 -0.0137  0.0139 -0.1433
 3191W        W18322   5.454  14.007   1.386 -0.3397  0.1003  0.4464
 3192W        W18323   6.674  11.924  13.838 -0.0337 -0.1682 -0.3785
 3193W        W18324  14.383  17.207   1.258 -0.1715  0.4074  0.0040
 3194W        W18325  14.868   2.052   5.532  0.0847 -0.1538 -0.1478
 3195W        W18326   7.872   7.452  10.999  0.1880 -0.1690  0.1054
 3196W        W18327   5.684   4.422   1.818  0.2235  0.2378 -0.1137
 3197W        W18328   4.637   3.508   2.506 -0.3383  0.1959 -0.0912
 3198W        W18329   0.379  10.279   2.612 -0.2813 -0.2538  0.1561
 3199W        W18330   0.395   6.643  11.225 -0.1084 -0.3683 -0.1300
 3200W        W18331  15.856  16.321   3.381  0.1463 -0.2760 -0.0178
 3201W        W18332   9.356  10.490  11.952  0.0357 -0.0386  0.1342
 3202W        W18333  17.885   7.078   3.600 -0.0496 -0.3244 -0.0906
 3203W        W18334  13.418   0.156  12.723  0.1766 -0.1380 -0.1586
 3204W        W18335  15.595   5.048  12.291  0.0930  0.3304  0.2944
 3205W        W18336   6.397   6.589  13.539  0.2746  0.1785  0.1049
 3206W        W18337  18.499  18.143   5.513  0.1760 -0.0925  0.1144
 3207W        W18338   3.553   9.233  15.349 -0.0835  0.1771 -0.0619
 3208W        W18339   7.624  17.445   4.315  0.2538 -0.2071  0.2595
 3209W        W18340   5.866  17.174  12.929  0.0182 -0.1302  0.1278
 3210W        W18341   1.117  13.164  14.269  0.2268 -0.2470  0.1365
 3211W        W18342  10.242  14.498   5.078  0.0437  0.1221  0.0320
 3212W        W18343  11.642   2.184   4.778  0.0802  0.3964 -0.0172
 3213W        W18344  16.798   4.792   1.686  0.2376 -0.1739 -0.0781
 3214W        W18345  17.675   5.959  12.464 -0.3882 -0.0374 -0.0979
 3215W        W18346   3.820   2.393   5.014 -0.3450 -0.0963 -0.2909
 3216W        W18347   4.373  10.167  11.627 -0.1354 -0.2626  0.2129
 3217W        W18348  12.776  10.810  11.671  0.2227 -0.1192  0.2770
 3218W        W18349   2.972   8.346  11.758 -0.0773  0.1472  0.3258
 3219W        W18350   5.105  15.983  11.989 -0.1960 -0.0160 -0.2999
 3220W        W18351   1.176  17.430  10.533 -0.2308  0.1116 -0.2700
 3221W        W18352  11.231   7.637  12.661 -0.0441 -0.3882  0.0444
 3222W        W18353  13.942   9.076  14.292 -0.0931  0.0620  0.0421
 3223W        W18354   9.254   2.015   1.513  0.1647  0.1815  0.1339
 3224W        W18355   3.562   2.283  13.966  0.0401  0.0740 -0.1028
 3225W        W18356   0.831  17.607  10.853 -0.0150  0.0446  0.1059
 3226W        W18357  10.568   1.066  15.679 -0.1353  0.1321  0.0608
 3227W        W18358  10.895   0.313   4.134 -0.3014  0.0808 -0.0137
 3228W        W18359   2.295  17.288  15.593 -0.1531  0.0134  0.1577
 3229W        W18360   7.512  14.852   1.344 -0.1597 -0.0950  0.4347
 3230W        W18361  17.145   9.982   1.435 -0.0647  0.0837 -0.0179
 3231W        W18362   2.568  14.216   9.537  0.2281 -0.1906  0.2941
 3232W        W18363  10.626  14.996  13.368 -0.1909  0.0770  0.2770
 3233W        W18364   0.413   9.745   5.390 -0.1168 -0.1220  0.2018
 3234W        W18365  12.546   3.485  15.695 -0.0952  0.2212 -0.1344
 3235W        W18366  10.858  13.845  14.919  0.0565  0.0465 -0.0050
 3236W        W18367   6.708  18.508  13.417 -0.0284 -0.0919  0.2304
 3237W        W18368   3.488  11.081   2.778 -0.0794  0.0598  0.0314
 3238W        W18369   3.533   7.540   2.921  0.1907 -0.0180  0.4077
 3239W        W18370  11.195  16.619  11.623 -0.0555 -0.0651 -0.3143
 3240W        W18371   0.431  10.659  13.232  0.0611 -0.0034  0.0995
 3241W        W18372   8.873  14.370  15.322  0.1040 -0.2289 -0.0410
 3242W        W18373  11.731  12.645   2.557  0.0418  0.2450 -0.0722
 3243W        W18374   5.853   2.993  10.697  0.1586 -0.0814 -0.1145
 3244W        W18375   8.501  15.426   4.507 -0.1861 -0.3778 -0.3403
 3245W        W18376   5.754   3.034   3.164  0.2133  0.0753 -0.1123
 3246W        W18377   5.083   9.548  12.384 -0.0044 -0.1043  0.2538
 3247W        W18378   0.869   4.465  14.092  0.0250 -0.3845 -0.1100
 3248W        W18379  11.671  16.412   1.241 -0.1663 -0.0135  0.1336
 3249W        W18380  17.826  15.758   3.174  0.1868 -0.2650  0.1495
 3250W        W18381  14.445   8.611   4.767  0.1376 -0.1868 -0.0725
 3251W        W18382  11.008   0.081  12.165  0.0502  0.1667 -0.1004
 3252W        W18383   0.864  17.471  15.589 -0.2393  0.3365 -0.1176
 3253W        W18384  12.060   0.387   5.019  0.0440 -0.1814  0.2643
 3254W        W18385   9.611   5.155  11.233  0.1132 -0.1335 -0.2461
 3255W        W18386  13.068   7.476   3.226 -0.0731  0.2017 -0.2984
 3256W        W18387  13.144  17.026   2.205 -0.1234 -0.1937 -0.3365
 3257W        W18388   4.850  17.734   3.880  0.1749  0.2396 -0.0560
 3258W        W18389   2.033  18.082   3.210 -0.1529  0.0842  0.1302
 3259W        W18390  15.094   8.882   3.147  0.0947  0.1932 -0.1737
 3260W        W18391  10.217   7.807   5.135  0.3286  0.0431 -0.2560
 3261W        W18392   5.401  17.413  11.177  0.0287  0.2092 -0.3483
 3262W        W18393   5.933  18.229   0.606 -0.1136 -0.1149 -0.0108
 3263W        W18394  13.840  11.292  13.617  0.0535  0.0116 -0.2221
 3264W        W18395  10.394  18.620  12.791 -0.2600 -0.3715  0.5390
 3265W        W18396   6.297  15.319  15.490  0.3514 -0.2003 -0.0787
 3266W        W18397   1.692  17.934  14.707  0.0570  0.1301 -0.1280
 3267W        W18398   3.568   1.372   1.744  0.1566  0.1533  0.2634
 3268W        W18399   7.567  12.947   4.529  0.1348  0.2138 -0.0580
 3269W        W18400   1.637   0.994  12.008  0.2148 -0.3357 -0.1357
 3270W        W18401   5.593   1.871  14.256  0.1864 -0.2946 -0.2411
 3271W        W18402   8.279   0.493   2.960  0.0565 -0.1180 -0.0811
 3272W        W18403   8.193  13.309   5.212  0.2997  0.1055 -0.0519
 3273W        W18404   7.964   3.295  11.295 -0.0854 -0.0140 -0.0346
 3274W        W18405  15.842  10.159   2.774 -0.4256 -0.1755 -0.0897
 3275W        W18406  18.391  16.374   1.899 -0.0859 -0.2425  0.0099
 3276W        W18407  10.941  13.942  14.402  0.1301 -0.1801  0.1811
 3277W        W18408  10.213   0.686  14.972 -0.0138 -0.1727 -0.3049
 3278W        W18409  13.160   2.222   0.565 -0.0567 -0.0998  0.2876
 3279W        W18410  13.781   5.818  14.959 -0.3117  0.2027 -0.1954
 3280W        W18411   9.345   1.847  12.280 -0.0263 -0.0668  0.1339
 3281W        W18412   5.066   9.490  11.338  0.0855  0.0437 -0.0564
 3282W        W18413   4.434   0.799  11.038  0.3663 -0.0179 -0.1073
 3283W        W18414   2.836   9.561  13.075 -0.1532  0.0705 -0.0349
 3284W        W18415   7.351   2.792  10.920  0.2270 -0.1774 -0.4421
 3285W        W18416  18.597   3.736  13.735 -0.0857 -0.0500 -0.2053
 3286W        W18417  12.987  17.336   4.547 -0.1747 -0.1671  0.0167
 3287W        W18418  17.545  10.347  10.758  0.1675  0.2141 -0.1553
 3288W        W18419  10.817   6.372  11.767  0.1519  0.2806  0.0767
 3289W        W18420  12.937   0.995   1.334  0.1053  0.1272 -0.1656
 3290W        W18421  10.038  14.246   3.500  0.3824 -0.2034 -0.1116
 3291W        W18422  15.343  12.648   2.543  0.2425  0.0049  0.0563
 3292W        W18423  15.911  15.122  15.408 -0.1610 -0.4288 -0.0754
 3293W        W18424   0.353   0.009  14.869 -0.0936  0.3724  0.1350
 3294W        W18425  12.328   6.743   1.754 -0.0246 -0.2637 -0.2305
 3295W        W18426  15.656  11.723   5.331 -0.0222 -0.0554 -0.1646
 3296W        W18427   8.352  10.833   1.071  0.0666  0.0746  0.0261
 3297W        W18428  12.075  18.215  11.442 -0.1357 -0.0200  0.0559
 3298W        W18429   0.489   2.918   3.905  0.0060 -0.0719  0.0876
 3299W        W18430   9.783   9.493   3.560  0.0704  0.1269  0.2912
 3300W        W18431   5.186   5.486  12.089  0.1466  0.0401 -0.0545
 3301W        W18432   1.357  16.272   4.677 -0.2316  0.1261  0.2745
 3302W        W18433   3.793   3.731  13.390 -0.1448  0.0680 -0.1199
 3303W        W18434  11.795  13.840  15.508  0.1455  0.0276  0.2778
 3304W        W18435   8.582   0.114  15.576  0.1577 -0.0551 -0.1701
 3305W        W18436   6.547   3.146   4.802 -0.2215 -0.0627  0.2839
 3306W        W18437   7.540   6.486   0.933 -0.1211 -0.2871 -0.1594
 3307W        W18438   7.321   6.513  11.956 -0.1102 -0.1627 -0.2095
 3308W        W18439  16.036  12.416  14.141 -0.0715  0.0493 -0.1926
 3309W        W18440  16.899  15.453   5.151 -0.2045 -0.1774 -0.1237
 3310W        W18441   6.682   7.238  13.160  0.0527 -0.1447  0.0547
 3311W        W18442  13.379  10.278   5.115 -0.0352  0.1123 -0.1980
 3312W        W18443  17.318   2.929   3.762 -0.0405  0.0055 -0.2523
 3313W        W18444   7.530  17.027  14.829 -0.0609  0.0588  0.2324
 3314W        W18445   6.741   1.365   1.931 -0.3330 -0.1374  0.0402
 3315W        W18446   1.998   9.980   2.923  0.1730 -0.0085 -0.2749
 3316W        W18447   6.841   4.213  15.191  0.0607 -0.1297  0.2263
 3317W        W18448   8.357   9.055   0.871 -0.0961  0.3061  0.0787
 3318W        W18449   8.137   1.249  15.108 -0.0644 -0.0031  0.1039
 3319W        W18450   5.969   0.772   3.282  0.0800 -0.1337 -0.1928
 3320W        W18451  15.799  10.111  10.936  0.2669 -0.1095 -0.2256
 3321W        W18452   0.515  14.913  15.727  0.2832 -0.0361  0.0099
 3322W        W18453   8.042  10.263   1.292 -0.0199 -0.1418 -0.0540
 3323W        W18454  12.312   4.827   1.568 -0.0447  0.1031  0.1051
 3324W        W18455  18.084  17.870   4.183 -0.5585  0.1923 -0.4034
 3325W        W18456  15.633  13.621  11.709 -0.0297  0.1173  0.2069
 3326W        W18457  15.944  15.011  11.697  0.1148  0.2413  0.0982
 3327W        W18458   7.166   4.620   5.786 -0.3024 -0.2096 -0.1124
 3328W        W18459   3.073  17.862  10.845  0.0394  0.1024 -0.0296
 3329W        W18460   9.988   4.520   3.569 -0.1462  0.2923 -0.1087
 3330W        W18461  12.030   1.039   2.290  0.3717 -0.2315  0.0131
 3331W        W18462   3.188   7.504   1.936  0.0203 -0.1404  0.3048
 3332W        W18463  10.590   6.820   2.821  0.3564  0.5966 -0.2475
 3333W        W18464  13.452  10.904   4.338 -0.1736 -0.1664 -0.2110
 3334W        W18465   9.730   8.738  13.033  0.0135  0.1774 -0.3341
 3335W        W18466  12.594   3.027  10.868 -0.2131 -0.1209  0.0060
 3336W        W18467   1.638  15.149   1.029 -0.1174  0.1304 -0.4845
 3337W        W18468  12.102   3.168  11.134  0.2482 -0.0319  0.1377
 3338W        W18469  12.502  15.862  14.877 -0.0365 -0.1158 -0.0664
 3339W        W18470   5.481   1.650   1.473  0.0587  0.0059 -0.3075
 3340W        W18471  14.837  10.524   5.631  0.2398 -0.0508 -0.0654
 3341W        W18472  16.013  15.376   4.604  0.0420 -0.1189  0.1372
 3342W        W18473   5.227   9.194  13.393 -0.1887 -0.2529  0.1386
 3343W        W18474  12.175   2.347  12.968 -0.1331 -0.2314 -0.0900
 3344W        W18475   0.470   9.936   1.591  0.1711  0.1704 -0.0585
 3345W        W18476  17.746   9.711  11.562 -0.3763  0.1838  0.1415
 3346W        W18477  13.945   3.368  14.753 -0.0236 -0.3059  0.0361
 3347W        W18478  17.349   2.044   5.273  0.1122 -0.0613 -0.0696
 3348W        W18479  11.429  18.320  10.495  0.1464  0.1135  0.0665
 3349W        W18480   2.699   5.007  15.292 -0.0078 -0.1536 -0.1568
 3350W        W18481   5.682  17.716  11.431  0.2285  0.1012  0.0357
 3351W        W18482   3.750  14.460   5.880  0.2108 -0.1260 -0.1500
 3352W        W18483   8.899   7.092  13.393  0.2205  0.0752  0.1052
 3353W        W18484   0.360   5.983   1.289  0.0197  0.0495 -0.1006
 3354W        W18485  15.619  12.132  15.568  0.1970 -0.1313 -0.0211
 3355W        W18486   9.633  13.099   0.420 -0.4347 -0.1019 -0.0951
 3356W        W18487   8.562   4.508  12.339  0.2627  0.2455 -0.2685
 3357W        W18488  15.676  17.133   1.376 -0.0283 -0.2636 -0.0002
 3358W        W18489  17.238  14.715   3.027 -0.1358  0.1770  0.0563
 3359W        W18490   8.464  12.344   0.876 -0.1128  0.3371 -0.4645
 3360W        W18491   9.125  10.652   0.698 -0.4616 -0.1210 -0.2209
 3361W        W18492  17.133   5.776  12.013 -0.1637 -0.1524 -0.2455
 3362W        W18493   8.360   8.951   0.135  0.4936 -0.0478 -0.1918
 3363W        W18494   9.187   5.734  11.041  0.1201 -0.1307 -0.1764
 3364W        W18495  15.850  15.241   5.653 -0.2590  0.1641  0.0044
 3365W        W18496  16.445   5.150  15.191  0.1222 -0.1518 -0.1633
 3366W        W18497   2.724   0.948  10.545  0.1851  0.1984  0.1931
 3367W        W18498  13.391   8.775  13.195  0.0020  0.1864  0.0478
 3368W        W18499   0.806   2.034   3.517 -0.0624 -0.0028 -0.0146
 3369W        W18500   0.659   3.054   0.825 -0.0582 -0.1619  0.4197
 3370W        W18501   1.858  15.357   0.144 -0.0351  0.0871 -0.1391
 3371W        W18502   9.165   9.753   2.643  0.2377 -0.1172 -0.0160
 3372W        W18503   1.295  10.663   4.335  0.0816 -0.1047  0.2105
 3373W        W18504   2.872   0.551  12.300  0.2341  0.1733 -0.1712
 3374W        W18505   7.867   0.215   5.344  0.1055  0.2327 -0.0788
 3375W        W18506  13.777   2.014   4.326 -0.1945  0.1228 -0.3181
 3376W        W18507  16.071   2.902  11.310  0.0319 -0.2024 -0.2374
 3377W        W18508   5.700  16.519   1.847 -0.1993 -0.0190 -0.0440
 3378W        W18509  18.053  13.230  11.035  0.3310 -0.0146  0.0593
 3379W        W18510  15.981  12.324  13.689 -0.1132  0.2678  0.0916
 3380W        W18511  17.739   7.411  12.523  0.1125  0.1627  0.1874
 3381W        W18512  11.407  15.938  13.726  0.4075  0.2155 -0.0468
 3382W        W18513  18.087   9.531  11.162 -0.1544 -0.1015 -0.1200
 3383W        W18514  14.741  11.187   2.965  0.1126  0.0394 -0.3076
 3384W        W18515  14.708  11.329  12.050  0.2600  0.0539  0.2450
 3385W        W18516  11.680   8.717   5.696  0.4236  0.3355  0.1010
 3386W        W18517  12.409   2.707   2.847 -0.3955  0.1249 -0.1634
 3387W        W18518  13.156   1.147  11.136 -0.1721  0.0528  0.2049
 3388W        W18519   2.977  13.472  11.925  0.1054  0.2611  0.1120
 3389W        W18520   7.839   9.608  11.291 -0.2649  0.0558 -0.0510
 3390W        W18521  15.611  13.916   2.467 -0.0919 -0.2142  0.2599
 3391W        W18522  11.470  11.176  13.715  0.2022  0.1544 -0.2155
 3392W        W18523  16.263   3.712   3.338 -0.2304  0.0404  0.0123
 3393W        W18524   1.372   1.356  15.089 -0.0529 -0.1112 -0.1874
 3394W        W18525  17.359   3.025   1.077  0.0549 -0.0891  0.1705
 3395W        W18526   2.696   2.207  13.416 -0.1836  0.1083 -0.0406
 3396W        W18527   8.609  12.855   1.895  0.0329  0.2661  0.0111
 3397W        W18528  13.272   9.410  13.971 -0.1048  0.2421 -0.1007
 3398W        W18529   0.981   2.468   5.049 -0.0525  0.2436 -0.2241
 3399W        W18530  14.221  11.293  14.812 -0.1263 -0.1320 -0.0528
 3400W        W18531  18.722   9.176  10.393 -0.0464  0.1592  0.0669
 3401W        W18532   9.620   6.764  11.942  0.2790 -0.0351 -0.1434
 3402W        W18533  11.204   6.043  13.077 -0.1735 -0.1064 -0.0323
 3403W        W18534  14.693  14.771  14.085  0.3922 -0.0457 -0.2324
 3404W        W18535  11.693   0.662  15.161 -0.0521 -0.1075  0.1006
 3405W        W18536   6.635  13.402   3.237 -0.1200 -0.0536 -0.0393
 3406W        W18537   2.347  18.364   0.518 -0.0907 -0.0750  0.0960
 3407W        W18538   3.033  11.790   9.476  0.1334 -0.1055 -0.0791
 3408W        W18539   6.469  15.064  14.712 -0.1270  0.2741 -0.1495
 3409W        W18540  18.635   0.409   3.965 -0.0635 -0.2552 -0.0367
 3410W        W18541  17.263   4.632   2.971  0.0908  0.1091  0.1330
 3411W        W18542   7.928   1.123   2.099 -0.3134  0.1306  0.1353
 3412W        W18543   3.498   4.599   3.068  0.0148  0.3369 -0.1575
 3413W        W18544   9.878   5.692  13.281  0.2169 -0.2727 -0.0968
 3414W        W18545   2.134   1.719  13.915 -0.0215 -0.0938 -0.2970
 3415W        W18546   8.541   5.132   4.675 -0.2034  0.0275  0.0018
 3416W        W18547  18.679   4.236  13.906  0.0493 -0.1436  0.0126
 3417W        W18548   5.726   7.711  15.745 -0.1223  0.4317 -0.1772
 3418W        W18549   4.808   3.017   5.587  0.1420  0.2085  0.2131
 3419W        W18550   5.819  18.331  15.649 -0.0981 -0.0184  0.2276
 3420W        W18551   0.805  18.392  12.532 -0.3118  0.3669 -0.1400
 3421W        W18552   2.653   2.547  11.733  0.3559 -0.1250 -0.2867
 3422W        W18553   3.221  13.388   0.215 -0.2901  0.0596 -0.0365
 3423W        W18554   8.804   1.277   2.555 -0.1684  0.0079 -0.0285
 3424W        W18555  10.373   6.306   1.042 -0.2143 -0.1091 -0.3019
 3425W        W18556   9.687  12.936  12.609 -0.0871  0.2222 -0.1669
 3426W        W18557  18.582   5.144   5.434 -0.2249  0.1249  0.2435
 3427W        W18558   8.531  15.233   0.531  0.2349  0.0665  0.1206
 3428W        W18559   7.766   0.240  13.897 -0.0820  0.1971  0.1806
 3429W        W18560   3.512  14.614  12.517  0.1023  0.1992 -0.3008
 3430W        W18561   5.030   9.152  15.638  0.1941  0.0704  0.2000
 3431W        W18562  13.787   2.979  11.926  0.1496  0.2599  0.1907
 3432W        W18563   1.038  17.561   4.158  0.0530 -0.0131  0.2326
 3433W        W18564   2.590  17.238   0.668 -0.4603 -0.0909  0.0945
 3434W        W18565   6.392  17.888   2.176  0.0796  0.2137 -0.0787
 3435W        W18566   6.681   2.749  13.409  0.0800  0.0101  0.0558
 3436W        W18567  10.737   3.978  12.815 -0.1416 -0.2393 -0.4201
 3437W        W18568   9.082  16.123  14.303  0.2199  0.0845  0.0266
 3438W        W18569   7.439  11.495  12.149  0.0876 -0.0431  0.2372
 3439W        W18570   0.226  16.449   1.300 -0.2969 -0.1931 -0.1731
 3440W        W18571   3.869  14.808  13.610  0.3919  0.2907 -0.2226
 3441W        W18572  17.359  13.889   2.074  0.1031  0.4076  0.3522
 3442W        W18573   4.876   3.619  15.668 -0.0532 -0.0883 -0.0305
 3443W        W18574   1.006   3.918   0.461 -0.0562 -0.0836 -0.3195
 3444W        W18575  10.481   6.457   0.202 -0.4084 -0.0751  0.0088
 3445W        W18576   9.022  11.215   3.914  0.2139  0.2131 -0.0624
 3446W        W18577   3.282   4.098   2.454  0.2116 -0.1155 -0.0181
 3447W        W18578   0.072   7.260  10.659  0.0874  0.2590  0.0535
 3448W        W18579  14.593   4.126   9.501  0.1186 -0.3839 -0.2123
 3449W        W18580   4.344  13.196  12.191  0.3759  0.0203  0.3552
 3450W        W18581  17.821   9.228  10.818  0.0911 -0.1890  0.1376
 3451W        W18582  15.609   1.290  13.097  0.0476 -0.0135  0.1175
 3452W        W18583  13.927   6.522   2.248  0.1971 -0.1797  0.1422
 3453W        W18584  11.611   3.518   1.608 -0.1746  0.1244  0.2259
 3454W        W18585   3.046  11.412  14.002 -0.1583 -0.1356  0.0895
 3455W        W18586  17.526   8.519   2.423  0.3131 -0.0654 -0.0493
 3456W        W18587  11.329   1.632   5.460 -0.1829 -0.3646 -0.0534
 3457W        W18588  12.094  16.227  10.675  0.1564  0.1345 -0.1200
 3458W        W18589  12.464  13.174   3.258 -0.1152 -0.3053  0.0547
 3459W        W18590   7.383   6.132   0.450 -0.4708  0.0250  0.1344
 3460W        W18591  17.901  13.295   3.485 -0.3914 -0.1203  0.0802
 3461W        W18592   1.443   7.105   1.826  0.2449 -0.0949 -0.0379
 3462W        W18593  16.181   7.726  12.748 -0.2158 -0.0279  0.2010
 3463W        W18594   1.672  14.112   4.133  0.0398  0.1052 -0.0783
 3464W        W18595   1.738  16.792  13.770 -0.1906 -0.0091  0.1468
 3465W        W18596   2.376  13.291   4.453 -0.2179  0.1011  0.0447
 3466W        W18597  13.278  15.014   5.127 -0.3027 -0.0800 -0.0387
 3467W        W18598   9.756   5.208  13.440 -0.3150 -0.1232  0.2005
 3468W        W18599   3.669  10.296  15.408 -0.2839 -0.2500  0.1469
 3469W        W18600  10.416   4.989  13.222 -0.0984 -0.0713 -0.0379
 3470W        W18601   4.231  17.391  14.129 -0.1761 -0.1452  0.0284
 3471W        W18602   2.918   3.113   1.371 -0.3195  0.2383 -0.1095
 3472W        W18603  17.058   0.684  15.353  0.2777 -0.4763 -0.2000
 3473W        W18604  10.631  13.323   2.930  0.0224 -0.0635 -0.3750
 3474W        W18605   2.624  14.545  14.719  0.1267 -0.2729 -0.0085
 3475W        W18606   9.958  10.113   2.830 -0.1015  0.1534  0.0556
 3476W        W18607  15.327  10.579   3.459 -0.0541 -0.1088  0.1644
 3477W        W18608  10.805  14.337  13.892  0.1157  0.1484 -0.2935
 3478W        W18609  18.113  15.897   1.222 -0.4093 -0.3883  0.0410
 3479W        W18610   3.652  14.438   0.860 -0.0845 -0.2326  0.2767
 3480W        W18611   7.431   6.732   1.422 -0.0491 -0.2366  0.2316
 3481W        W18612   5.461  16.530  15.331 -0.1543  0.1298  0.1844
 3482W        W18613  17.396   2.392  14.969 -0.0866  0.2306 -0.1135
 3483W        W18614   9.010   7.886   3.827  0.1427  0.1048 -0.1275
 3484W        W18615   8.267  11.256  11.880  0.1589  0.1732 -0.1197
 3485W        W18616  15.344  11.610   3.658  0.3096  0.1403 -0.0228
 3486W        W18617  13.919   1.755   5.639 -0.1084  0.2525  0.4197
 3487W        W18618   6.428  14.281  11.440  0.0232  0.0420  0.3306
 3488W        W18619   4.017  15.282   1.014 -0.1199 -0.1822 -0.0844
 3489W        W18620  11.016   6.205   1.535  0.1207 -0.0716  0.1658
 3490W        W18621   7.328  15.364   5.201  0.0787  0.2683 -0.1148
 3491W        W18622  16.498   9.989   3.621 -0.2965  0.0715 -0.0362
 3492W        W18623   7.589   1.447  14.074 -0.1373 -0.0986  0.1159
 3493W        W18624  12.629  16.208   4.649 -0.1389 -0.0475 -0.0455
 3494W        W18625  18.527  11.407  11.860  0.2124 -0.4839  0.3546
 3495W        W18626  13.882  12.497   2.241 -0.0192 -0.0547  0.0792
 3496W        W18627  18.012   5.401  14.188  0.2987 -0.5341  0.0825
 3497W        W18628   6.453   9.870  12.498 -0.0772 -0.2844  0.2012
 3498W        W18629  13.979  16.154   0.966 -0.1275 -0.0793  0.0985
 3499W        W18630   7.219  18.448   0.360 -0.2075 -0.2076 -0.1331
 3500W        W18631   8.024  17.083   6.094  0.1452 -0.2601 -0.0397
 3501W        W18632  13.148   3.605  15.410 -0.1571  0.0116  0.2404
 3502W        W18633  12.308   0.167   1.377  0.1821  0.4365  0.2076
 3503W        W18634   2.154  15.928  10.793  0.0829 -0.0638 -0.0314
 3504W        W18635   5.741   8.521  10.993  0.0202 -0.1624  0.3176
 3505W        W18636  17.610   8.865   0.074 -0.2360  0.1866 -0.2480
 3506W        W18637   6.074  12.685  10.488  0.2138  0.1986  0.0261
 3507W        W18638   9.588   7.130   0.036 -0.0653 -0.0338  0.2937
 3508W        W18639  11.529   4.228   0.567  0.2329 -0.4817 -0.0553
 3509W        W18640  10.410   7.952   1.065 -0.3788  0.0545  0.0193
 3510W        W18641  15.705   3.569   0.465 -0.0860  0.1655 -0.1129
 3511W        W18642   1.276   5.179   2.738 -0.2239  0.1086 -0.0312
 3512W        W18643  15.615   3.435  15.140 -0.3970 -0.2675 -0.4954
 3513W        W18644   6.506   9.318  14.671 -0.2411  0.0010  0.0852
 3514W        W18645   4.754   1.166  10.848 -0.0882 -0.0309 -0.0785
 3515W        W18646  18.524  14.444   6.151 -0.0200  0.0529 -0.2212
 3516W        W18647   4.814  10.437   0.708 -0.0270 -0.1232  0.4914
 3517W        W18648   5.057   3.990   0.803  0.0289 -0.0642  0.2224
 3518W        W18649  13.150  17.883   2.438  0.1215  0.1759 -0.0274
 3519W        W18650  17.812  14.613   3.198  0.2096  0.1163  0.0274
 3520W        W18651   7.219  12.721  12.586 -0.1294 -0.1241  0.0018
 3521W        W18652   3.869  18.065  13.600 -0.0934 -0.0134 -0.0953
 3522W        W18653   6.663  11.870  11.758  0.0648 -0.3082  0.1507
 3523W        W18654   2.359   7.585  15.437 -0.2041  0.1045  0.2040
 3524W        W18655   3.335  14.342   4.761  0.5050  0.0828 -0.2503
 3525W        W18656  16.650  11.153  14.233 -0.2449 -0.1036  0.0356
 3526W        W18657   8.434  15.560  14.417  0.0640  0.0316  0.0023
 3527W        W18658   1.813   8.396   2.284  0.0404 -0.1327 -0.2907
 3528W        W18659   2.468  10.082  14.771  0.2399  0.2135 -0.0750
 3529W        W18660  11.741   9.168   0.528  0.1282  0.1911  0.1052
 3530W        W18661  16.064   2.949   1.511  0.1302 -0.0266 -0.1549
 3531W        W18662  11.583   3.148  10.967 -0.3385 -0.2979  0.0216
 3532W        W18663   0.097  16.548   5.187 -0.0191 -0.2129  0.2641
 3533W        W18664   1.296   7.992   1.981 -0.0115  0.0540  0.2065
 3534W        W18665  17.951   2.878  14.230  0.2739  0.2089  0.2103
 3535W        W18666  10.254   0.046   4.932  0.0459  0.1749  0.1063
 3536W        W18667   3.233  13.344   2.873 -0.3600  0.0674 -0.1247
 3537W        W18668   0.495   5.182   3.802 -0.0021 -0.4165 -0.3098
 3538W        W18669  14.933   8.907   3.651  0.0865 -0.1632  0.0257
 3539W        W18670  14.515   2.741  15.261 -0.2380  0.2244 -0.1641
 3540W        W18671  11.836  10.509  13.871 -0.1359 -0.0672 -0.2414
 3541W        W18672   5.251   9.771   1.597  0.0061 -0.4895  0.2332
 3542W        W18673   0.726  14.995  12.739 -0.1059 -0.2464 -0.2405
 3543W        W18674  14.347  10.825  15.462  0.2059 -0.0835  0.1111
 3544W        W18675   3.650   6.699  15.731  0.0086  0.2533 -0.1174
 3545W        W18676  14.085  12.929   0.123  0.1331  0.0840  0.2562
 3546W        W18677  14.714   7.089  13.140 -0.2186  0.0826 -0.2478
 3547W        W18678  13.606   9.706  11.062 -0.0996  0.0417  0.2788
 3548W        W18679   5.584  10.095  10.982 -0.0196  0.2785  0.1088
 3549W        W18680  14.959  16.998  11.591 -0.0377  0.2909  0.0372
 3550W        W18681   4.435   2.570  15.021 -0.1011 -0.1880 -0.0617
 3551W        W18682   4.474   3.657   3.345 -0.1362  0.0731 -0.3002
 3552W        W18683   0.726  17.708  11.414 -0.0258  0.2938  0.0521
 3553W        W18684   9.275   6.192   2.762  0.0918 -0.2338  0.1134
 3554W        W18685   3.112   2.139  12.446 -0.0572  0.0627  0.0446
 3555W        W18686  17.961  15.442   2.804  0.0670 -0.0417 -0.3345
 3556W        W18687   5.145  10.100   5.035  0.3533 -0.2576 -0.0663
 3557W        W18688   3.468  11.260   3.593 -0.0210 -0.2348  0.2132
 3558W        W18689   7.264   8.715   5.039  0.3652 -0.1518 -0.0748
 3559W        W18690   6.923  18.033   0.251  0.0659 -0.3753 -0.2713
 3560W        W18691  11.474  15.106   3.762 -0.2805  0.0365 -0.0665
 3561W        W18692  10.511   7.529  15.242 -0.1057  0.3170 -0.1198
 3562W        W18693  16.007   0.346  10.699 -0.0268  0.0577 -0.1155
 3563W        W18694  12.875   2.854   5.134  0.0426 -0.1220  0.1551
 3564W        W18695   9.496  10.058   3.964 -0.0942  0.1740 -0.3316
 3565W        W18696  14.183  13.096   6.228 -0.1857 -0.3033 -0.1627
 3566W        W18697   2.699   9.736   4.390 -0.3357 -0.3732 -0.1692
 3567W        W18698  11.465   1.574   6.153  0.1237  0.2150  0.4120
 3568W        W18699   8.577  14.381  15.703  0.0215  0.0985  0.0284
 3569W        W18700   0.253   4.382   2.836  0.2585 -0.0163  0.1495
 3570W        W18701   4.318  16.721  12.152  0.0255 -0.1542  0.1619
 3571W        W18702  14.974  13.741  11.221 -0.3734 -0.2283 -0.1299
 3572W        W18703   5.913  12.727  11.263  0.1929 -0.1037 -0.0473
 3573W        W18704  14.235   1.635   5.225  0.0534  0.0039 -0.0318
 3574W        W18705  16.588   3.344  11.469  0.0573  0.0586 -0.1196
 3575W        W18706  12.109   5.405  13.227 -0.0423 -0.1682 -0.1995
 3576W        W18707  16.417  17.179   0.499 -0.1779  0.0296 -0.1076
 3577W        W18708  14.563   8.401  13.079 -0.1704 -0.1353 -0.3592
 3578W        W18709   4.193  13.349   4.719 -0.0241 -0.1214  0.2391
 3579W        W18710  14.653   9.308  15.532  0.0647 -0.0856  0.2091
 3580W        W18711  17.597   0.788  13.913 -0.0312  0.1410  0.1878
 3581W        W18712  14.356  10.961   3.183  0.1863 -0.2031  0.3266
 3582W        W18713   4.638   6.628  10.991  0.1589 -0.0844 -0.6632
 3583W        W18714  14.065  11.829   3.337 -0.0170  0.1750  0.1709
 3584W        W18715  13.112  15.568   3.000 -0.3535 -0.1095 -0.1006
 3585W        W18716  16.425   5.899   4.597 -0.2633 -0.0566 -0.1719
 3586W        W18717  15.540   7.567   0.112 -0.0291  0.0916  0.1109
 3587W        W18718  11.848   1.462   4.591 -0.0324 -0.0588 -0.0200
 3588W        W18719  15.730  17.081   4.177  0.1795  0.0043 -0.4438
 3589W        W18720  17.471  18.309  12.857  0.0542  0.0919 -0.2893
 3590W        W18721   6.634  16.823  15.484  0.0950 -0.3494 -0.1673
 3591W        W18722   4.544   5.495  14.485  0.0526  0.2841  0.0431
 3592W        W18723  13.182  12.169   0.977  0.1435 -0.2078 -0.1773
 3593W        W18724   1.514   7.896   0.426  0.4097 -0.1611  0.0953
 3594W        W18725   1.076   2.798  15.043  0.1798 -0.2257 -0.1060
 3595W        W18726   7.607   7.892   2.657  0.0085  0.2171 -0.2891
 3596W        W18727  12.702   0.940  14.113  0.3000  0.0207 -0.0566
 3597W        W18728   9.111  10.801  14.510 -0.0053  0.1265 -0.3807
 3598W        W18729   2.482   5.294  15.752 -0.0002  0.1325 -0.0317
 3599W        W18730   1.670   4.028  11.979 -0.1529  0.0027 -0.2313
 3600W        W18731   8.253  13.433   3.332 -0.0227 -0.2794 -0.2536
 3601W        W18732   6.353   0.687  14.659  0.2964  0.2865  0.2049
 3602W        W18733  15.966  17.776  11.392  0.1682 -0.0616  0.2628
 3603W        W18734  15.857   3.669  11.895 -0.2774  0.1544  0.1576
 3604W        W18735  11.473   6.770  13.984  0.0720  0.0138  0.0407
 3605W        W18736   5.228   5.176  10.297  0.3383 -0.0895  0.5062
 3606W        W18737   3.506   5.983   0.755 -0.0013  0.0943  0.0681
 3607W        W18738  10.403   9.553   1.531 -0.2331  0.0186 -0.2403
 3608W        W18739  11.720   7.887  13.337 -0.3595  0.1099 -0.0419
 3609W        W18740   9.812   0.520  11.629 -0.3933 -0.0112 -0.0014
 3610W        W18741   5.122  15.258   0.752 -0.1655  0.0552  0.1010
 3611W        W18742  16.794  10.364   5.900 -0.0389  0.2090 -0.3583
 3612W        W18743  15.397   6.620   4.076  0.1421  0.1524  0.0967
 3613W        W18744   8.971   3.387  11.406  0.0017  0.0859  0.1285
 3614W        W18745   1.250   9.992   2.527 -0.0395 -0.0097 -0.2228
 3615W        W18746   2.567   6.019  12.992 -0.0316 -0.0585  0.1368
 3616W        W18747   4.709  15.257  10.000  0.1490 -0.1142  0.0113
 3617W        W18748   5.024   0.535  11.601 -0.0018  0.0052 -0.2583
 3618W        W18749  16.190  16.739   3.639 -0.3010 -0.0999 -0.3278
 3619W        W18750  18.252  16.487   2.963 -0.3887 -0.0874  0.1885
 3620W        W18751  14.673   1.576   5.492 -0.2912  0.2025  0.4384
 3621W        W18752   7.624  10.370  13.810 -0.0384  0.0956  0.2395
 3622W        W18753  12.586   5.964  12.362 -0.3157 -0.0116  0.0554
 3623W        W18754   3.672  10.243  14.230  0.2818  0.2158  0.0819
 3624W        W18755   1.348  16.372  15.558  0.1001  0.4438 -0.0967
 3625W        W18756   0.989   5.411  12.968 -0.2027 -0.3008  0.0224
 3626W        W18757   9.215   0.915   5.149  0.0378  0.2131 -0.3827
 3627W        W18758   2.209   8.597  15.031  0.2291  0.1525 -0.0782
 3628W        W18759  15.782   8.667  11.184  0.2094 -0.3857  0.2717
 3629W        W18760  15.013   2.452   2.707  0.1950 -0.1401  0.2246
 3630W        W18761   2.502  13.431  15.358 -0.1032 -0.0809 -0.2489
 3631W        W18762   0.478   1.668  11.819  0.2905  0.1291  0.1680
 3632W        W18763   5.672   0.615  15.669  0.0762 -0.0355  0.3217
 3633W        W18764  18.018  12.149  14.530 -0.0916 -0.2156 -0.0903
 3634W        W18765  12.536   8.961  14.109 -0.1442  0.3214  0.2914
 3635W        W18766  17.793   2.853   0.560  0.3081  0.1213  0.0990
 3636W        W18767  15.791   1.310  12.624  0.0203 -0.1323  0.0926
 3637W        W18768   0.516  11.056  12.955  0.2275 -0.0975  0.2901
 3638W        W18769   3.984   7.956  12.013  0.0573  0.3252 -0.1546
 3639W        W18770   5.379   3.385   9.606  0.1944 -0.2730 -0.2505
 3640W        W18771  14.975  15.525   2.569  0.1562 -0.2667 -0.1175
 3641W        W18772   3.519   0.736  14.985 -0.0944 -0.3859 -0.1013
 3642W        W18773  11.051  15.371   2.216  0.0434 -0.1864  0.0976
 3643W        W18774   3.966  15.821  12.053  0.0188 -0.1828  0.2843
 3644W        W18775   8.940   0.972  11.348 -0.2711 -0.1212  0.1218
 3645W        W18776   8.461   0.794   3.873 -0.1246  0.0147  0.1702
 3646W        W18777   0.393   4.207  11.724  0.0862 -0.1599  0.0587
 3647W        W18778   1.810   0.326  10.214 -0.4219 -0.5213  0.0523
 3648W        W18779   3.530  10.334  12.147  0.1472 -0.0393  0.1314
 3649W        W18780   6.844  14.595  10.562 -0.1937  0.0337  0.0542
 3650W        W18781   1.178   5.172  14.688  0.0814  0.0189 -0.2666
 3651W        W18782   9.741  10.780   5.578 -0.0196 -0.0510  0.3145
 3652W        W18783  10.838   9.941  14.130 -0.0629 -0.1047  0.1045
 3653W        W18784  11.949   9.456  14.614 -0.4061  0.0417 -0.2306
 3654W        W18785   9.104  12.403   0.485 -0.1071  0.0459 -0.2786
 3655W        W18786  15.433   4.019   2.853 -0.2857 -0.1885 -0.1479
 3656W        W18787  10.505   0.296  11.170  0.1190  0.0200 -0.0793
 3657W        W18788  15.122  15.186   1.015  0.3011 -0.3634  0.0837
 3658W        W18789  14.550  10.148  10.283 -0.2010  0.0727  0.2016
 3659W        W18790   0.289   3.742  14.063  0.1556 -0.1799 -0.1654
 3660W        W18791   0.716   5.518  14.847  0.2169  0.0933 -0.0609
 3661W        W18792   3.051  12.894   3.076  0.0003 -0.1558  0.1653
 3662W        W18793  13.827   0.097  14.300 -0.2242  0.0254  0.0514
 3663W        W18794  14.424   9.266  11.339  0.2070  0.1268  0.0242
 3664W        W18795  15.439  18.266   3.215  0.2537 -0.0691  0.0817
 3665W        W18796  11.433   0.793  13.109  0.5320  0.0875  0.0315
 3666W        W18797  14.702   3.317  14.168  0.4217  0.0572  0.2747
 3667W        W18798  17.213  14.356   2.309  0.0515 -0.1962  0.0057
 3668W        W18799   5.447  14.712  13.661  0.0461 -0.0316 -0.2807
 3669W        W18800   8.565  18.407  11.809 -0.0062  0.1518  0.0239
 3670W        W18801   6.982   7.498  10.056  0.3417 -0.2046 -0.0933
 3671W        W18802   0.844   4.790   0.077 -0.3614 -0.2240 -0.0621
 3672W        W18803  12.847  14.399  13.676  0.0201  0.0154  0.0959
 3673W        W18804   3.974  16.699   9.251  0.0047  0.2819  0.1335
 3674W        W18805   9.151  10.375  13.969  0.0428  0.1245  0.0295
 3675W        W18806   6.660  18.191   1.912 -0.0592  0.0049 -0.0370
 3676W        W18807   0.879   5.271  10.472  0.4298  0.4762  0.1883
 3677W        W18808   3.404   5.377  11.949  0.0280 -0.0918 -0.1847
 3678W        W18809   2.184   2.644   4.486 -0.3964 -0.0395  0.3038
 3679W        W18810  16.675   4.470  14.934 -0.0339 -0.1647  0.2263
 3680W        W18811   5.776  11.220   2.751  0.1940 -0.0013 -0.0847
 3681W        W18812  11.869   0.205  13.572 -0.1576  0.2242  0.1720
 3682W        W18813  15.148   5.658  15.289  0.2769 -0.1271  0.1041
 3683W        W18814  13.878   6.562  13.059  0.1164  0.2435  0.0018
 3684W        W18815  10.449  15.382  11.201  0.0790  0.0477 -0.0025
 3685W        W18816   0.558  14.421  15.710  0.0101 -0.2137 -0.2252
 3686W        W18817   0.896   5.000   5.030  0.0572  0.0762  0.2372
 3687W        W18818   1.905   6.252  10.886 -0.3938  0.0600 -0.1312
 3688W        W18819   0.679  15.490   3.551  0.1903 -0.0142 -0.0861
 3689W        W18820   6.347   8.884  11.749  0.0568  0.0785  0.1022
 3690W        W18821  17.271  11.086   4.494  0.2948  0.0294 -0.2848
 3691W        W18822   9.866   2.705  12.835  0.3836  0.1174 -0.1482
 3692W        W18823   9.716  17.585  11.085  0.1556  0.4890  0.0812
 3693W        W18824   0.471   2.359   4.885  0.0324 -0.1632  0.1617
 3694W        W18825   5.520   4.929  14.560  0.2413  0.0339 -0.3057
 3695W        W18826   4.118  18.150   2.272 -0.1670 -0.0330 -0.2352
 3696W        W18827   0.667  14.926   1.837  0.0655 -0.2660  0.3021
 3697W        W18828  16.345  12.441  14.943  0.0050 -0.1424  0.1788
 3698W        W18829   5.538   4.244  15.131  0.4131 -0.1347  0.1763
 3699W        W18830  15.551  10.363  10.535 -0.1160 -0.0563  0.0067
 3700W        W18831  18.522   8.018  13.301 -0.1085 -0.2474  0.0273
 3701W        W18832   0.574  13.061  14.239 -0.2204 -0.1772  0.1914
 3702W        W18833  17.565   9.278   3.303 -0.1304 -0.0286 -0.1931
 3703W        W18834  17.401   1.002   5.116 -0.0660  0.0435 -0.0807
 3704W        W18835  12.401  12.530  13.353  0.2958  0.1418 -0.1508
 3705W        W18836  13.382  13.242   4.988  0.0696 -0.2421 -0.2662
 3706W        W18837   1.585   3.538  11.257  0.0759  0.0438 -0.1344
 3707W        W18838  12.966   2.214   4.437  0.0391 -0.0228  0.2196
 3708W        W18839   5.422  12.234   0.419 -0.3772  0.4191  0.1216
 3709W        W18840  12.084  14.103   3.453  0.1281  0.0006 -0.2051
 3710W        W18841  13.377  17.575   0.242  0.2606 -0.2612 -0.0533
 3711W        W18842   0.593   7.907  11.890 -0.2280  0.0584 -0.1079
 3712W        W18843   5.869   2.454  13.156 -0.1328 -0.0260  0.3302
 3713W        W18844  13.747   5.109   2.855  0.0171  0.0949  0.0541
 3714W        W18845  15.116   2.591  14.662 -0.1589 -0.1657  0.2791
 3715W        W18846   0.323   0.572   4.156  0.0813  0.0323  0.0878
 3716W        W18847   3.088   6.469   2.780 -0.0683  0.3924 -0.1292
 3717W        W18848  16.985  16.649  15.649  0.0923  0.2939  0.0029
 3718W        W18849   1.796   0.267   9.733  0.2225 -0.0064 -0.1887
 3719W        W18850  13.046   8.723   5.833  0.0444 -0.1664  0.2597
 3720W        W18851  14.128   0.313   0.760 -0.1815 -0.0061  0.1229
 3721W        W18852   2.473   6.537  13.127 -0.0410  0.1769  0.0823
 3722W        W18853   7.762   3.024   2.991 -0.1749 -0.0240 -0.3304
 3723W        W18854   5.801  17.656  12.818  0.2888  0.0648  0.1620
 3724W        W18855  15.258  16.490  15.438 -0.3957  0.2355 -0.3114
 3725W        W18856  13.020   8.778   5.032  0.3719  0.1424  0.2276
 3726W        W18857  13.035  10.244  14.842 -0.0681 -0.1547 -0.2413
 3727W        W18858   1.535  10.072  14.324  0.0385 -0.0748  0.1652
 3728W        W18859   1.326   4.849   0.312 -0.3218 -0.0530 -0.0439
 3729W        W18860   9.709   8.905  13.921  0.1869  0.0005  0.1833
 3730W        W18861  14.671   0.239  11.674 -0.0567 -0.0749  0.1784
 3731W        W18862   9.650   8.038   0.476  0.4171  0.2771  0.1679
 3732W        W18863  13.915   9.805  10.489  0.0465 -0.1497 -0.1501
 3733W        W18864   0.425  17.723  13.729  0.1775 -0.2282 -0.0983
 3734W        W18865  16.573   7.564   0.496  0.2217 -0.0353 -0.0707
 3735W        W18866   2.890   3.430  12.160 -0.3402 -0.0953 -0.2682
 3736W        W18867  10.875   0.915   2.729 -0.0019 -0.0095  0.0661
 3737W        W18868   9.315   4.432  12.878  0.2432 -0.0683  0.1231
 3738W        W18869   6.678   2.186  14.352 -0.0006 -0.0244  0.4098
 3739W        W18870  13.466  17.259  13.490 -0.2517  0.1319  0.0644
 3740W        W18871   3.768   2.070  11.147 -0.0565  0.3290 -0.0768
 3741W        W18872   4.136   7.762   3.677 -0.1070  0.0812 -0.3113
 3742W        W18873  13.258   4.934  10.816 -0.2859 -0.1014 -0.2381
 3743W        W18874  14.041   6.121  12.671 -0.2305 -0.2064  0.0488
 3744W        W18875   7.316  18.382  14.166  0.1463 -0.0423  0.2162
 3745W        W18876   9.292  12.241   1.414  0.0327  0.3556  0.0463
 3746W        W18877  12.902   6.193  12.042  0.4252  0.0268 -0.2633
 3747W        W18878  12.233  10.206   5.659 -0.0682 -0.1179  0.1156
 3748W        W18879  14.448  14.604  12.900 -0.1777  0.2278  0.0071
 3749W        W18880   8.450   0.122   0.412 -0.1082  0.0374  0.0712
 3750W        W18881  11.752  15.170   2.836  0.2039  0.1369 -0.1914
 3751W        W18882   9.380   1.608  12.800  0.0968  0.2546  0.1209
 3752W        W18883   2.157   1.111  11.121 -0.0896 -0.0902 -0.0924
 3753W        W18884   7.636  14.454   1.638  0.1202  0.1206  0.0487
 3754W        W18885   8.041   1.331  13.366  0.1759  0.0935 -0.0543
 3755W        W18886  12.591  11.322   3.973 -0.3109 -0.4526 -0.3823
 3756W        W18887   2.404   8.127  14.660  0.4310 -0.0440  0.1788
 3757W        W18888  14.208   5.709  11.595  0.0864  0.1938 -0.1925
 3758W        W18889   8.636   0.166  13.728 -0.2450  0.1499  0.2048
 3759W        W18890   9.061   5.937   1.653  0.2228 -0.2658 -0.0348
 3760W        W18891  15.012  10.116   3.129 -0.2025 -0.0352  0.0731
 3761W        W18892  16.601  13.392   0.641 -0.2299  0.3143 -0.2900
 3762W        W18893  18.021  16.855   3.677  0.0513  0.0789  0.1651
 3763W        W18894   5.873  11.365  12.287 -0.0148 -0.0057 -0.1858
 3764W        W18895   9.551  15.866   2.864 -0.0718 -0.3955  0.3331
 3765W        W18896  12.529  17.503  11.984 -0.2861  0.0864  0.0344
 3766W        W18897   9.697  10.410  15.695 -0.0396 -0.1136 -0.3982
 3767W        W18898   2.182   6.950  10.329 -0.0006  0.3334 -0.0429
 3768W        W18899   3.707  14.103  12.543 -0.2514 -0.1801 -0.3937
 3769W        W18900  12.456   3.718   1.361  0.0234 -0.0178  0.2832
 3770W        W18901   5.381   5.167  13.771  0.1165 -0.3826 -0.0733
 3771W        W18902   8.008  13.884   3.497  0.1976  0.1111  0.1143
 3772W        W18903   6.521  11.731   1.086  0.0091  0.2649 -0.2119
 3773W        W18904  14.544  14.886   1.969 -0.0825 -0.1047  0.0004
 3774W        W18905   4.720   5.760  12.170 -0.0436 -0.0587  0.0576
 3775W        W18906  10.727  16.250   0.376  0.0864 -0.1406  0.1234
 3776W        W18907  16.775   3.041   4.573 -0.0252 -0.2563 -0.2216
 3777W        W18908  10.235   8.104   2.287  0.2564 -0.0209  0.2387
 3778W        W18909  10.667   6.016   0.504 -0.0061  0.1788 -0.0159
 3779W        W18910   8.259  11.141  15.354  0.1992 -0.2919  0.1147
 3780W        W18911   4.559  17.599  15.001  0.4441  0.1750  0.0293
 3781W        W18912  12.949  15.033   4.029  0.1126 -0.1955  0.1038
 3782W        W18913  10.949   6.388   9.838 -0.2248 -0.1487 -0.0445
 3783W        W18914   1.721   0.635   4.294  0.0688 -0.0538 -0.0666
 3784W        W18915   5.801  17.846  14.573  0.0285 -0.2111 -0.2647
 3785W        W18916   7.448   9.485  11.605  0.2358 -0.1366  0.5378
 3786W        W18917  18.477  14.806  15.000 -0.0192 -0.0252 -0.0608
 3787W        W18918   0.532  18.704  12.742  0.0590 -0.1911 -0.0536
 3788W        W18919  14.433   7.164  15.047  0.1625  0.1710  0.0765
 3789W        W18920  11.232   9.945  15.112 -0.1269 -0.2945  0.0056
 3790W        W18921  14.126  18.038   4.720 -0.1614  0.1302 -0.1833
 3791W        W18922   8.051  15.221   0.804 -0.2304 -0.0944  0.2760
 3792W        W18923  10.920   4.919  13.155 -0.2101  0.2276  0.3097
 3793W        W18924   5.032  14.858   4.516 -0.1968  0.0700  0.0173
 3794W        W18925   2.203   4.762  11.683 -0.0331  0.4165 -0.4045
 3795W        W18926  14.359   3.169  11.511 -0.0851 -0.2497  0.0981
 3796W        W18927   6.539  12.846  11.904 -0.0854  0.1054  0.3695
 3797W        W18928   7.190  16.786  10.212  0.2364  0.0070  0.1109
 3798W        W18929  14.300   0.767   0.966 -0.0366 -0.3698 -0.1056
 3799W        W18930   4.786  15.075   5.254  0.0258 -0.3400 -0.0733
 3800W        W18931  17.815  10.851   2.276 -0.4386  0.1382  0.1621
 3801W        W18932   3.762   5.033  11.169  0.1640 -0.2258 -0.3015
 3802W        W18933  16.426   2.637   2.707 -0.1787  0.1613  0.1229
 3803W        W18934   6.739   1.768  15.320  0.3858 -0.0964 -0.1512
 3804W        W18935  12.485   7.226  11.366 -0.1711 -0.3100  0.2201
 3805W        W18936  16.302  11.625  14.597 -0.3552  0.2885 -0.1111
 3806W        W18937   3.363   7.536  14.481 -0.1148  0.1944 -0.0409
 3807W        W18938   8.359  14.888  10.947 -0.0812  0.1272 -0.4175
 3808W        W18939  11.606  14.263   2.000  0.3984 -0.0663 -0.3171
 3809W        W18940  12.727   2.413   3.070 -0.1339 -0.0119  0.2245
 3810W        W18941   6.257  17.438   4.723  0.1846 -0.1012  0.0228
 3811W        W18942   3.931  18.349  10.402 -0.2512  0.1084  0.2189
 3812W        W18943  12.832   3.481   0.338  0.3114  0.0110 -0.0800
 3813W        W18944  11.276  14.332  11.313  0.0023  0.2849  0.3523
 3814W        W18945   8.155   0.077  14.282 -0.0232  0.1078  0.1047
 3815W        W18946  15.268  13.544   2.788 -0.0590  0.1250 -0.0485
 3816W        W18947  17.532   9.814  10.690  0.0133  0.0261  0.1521
 3817W        W18948   2.260   0.347  13.372 -0.0931 -0.0593 -0.3385
 3818W        W18949  13.277  12.671  14.760 -0.2178  0.2305 -0.4520
 3819W        W18950  17.732  11.512  12.248 -0.1643  0.1108 -0.0502
 3820W        W18951   7.211   3.377  15.718 -0.0267 -0.1267 -0.0492
 3821W        W18952   7.672   2.136  15.461 -0.1044  0.1761 -0.4577
 3822W        W18953  15.308   1.825  13.162 -0.0156 -0.0997 -0.2011
 3823W        W18954  10.033  13.626  12.425 -0.1551  0.2388 -0.1626
 3824W        W18955   5.192   9.462  11.919 -0.0341 -0.1905 -0.0095
 3825W        W18956  15.765  13.596  10.298  0.0481 -0.1516  0.0847
 3826W        W18957  10.942  17.402  13.086 -0.3810 -0.1884 -0.2593
 3827W        W18958  10.584   1.175   1.043 -0.0718  0.1685 -0.1260
 3828W        W18959  17.370   0.932  12.366  0.1806 -0.0827  0.0979
 3829W        W18960  17.461   4.831   4.499  0.0466 -0.1862  0.2407
 3830W        W18961  15.540   1.525  11.319 -0.1305  0.0416  0.0891
 3831W        W18962  12.035   0.763   4.104  0.1184 -0.2669  0.2376
 3832W        W18963   7.267  17.471  15.280 -0.0265 -0.3787 -0.1207
 3833W        W18964  14.202  13.491   1.825  0.2427  0.1077 -0.0047
 3834W        W18965  16.234   8.139  15.336 -0.2593  0.0018 -0.1797
 3835W        W18966  11.869   2.197  13.729  0.1066  0.0852  0.1531
 3836W        W18967   0.652   7.901  10.834 -0.1995  0.2897  0.0910
 3837W        W18968  13.940  10.630   2.186 -0.2018 -0.1161  0.2884
 3838W        W18969  11.659   3.215   3.003  0.3860  0.4211 -0.3011
 3839W        W18970   0.139   2.059  13.633  0.0525  0.2668 -0.1731
 3840W        W18971  10.636  12.014  14.637  0.0942 -0.2457  0.0452
 3841W        W18972  14.009  12.955  10.696 -0.2792  0.1697 -0.1619
 3842W        W18973  12.391   0.268   2.783 -0.1039 -0.0287  0.0934
 3843W        W18974   8.719  13.230  13.322 -0.0684  0.1087 -0.1686
 3844W        W18975   1.973  14.502   4.872 -0.3000 -0.0280  0.2064
 3845W        W18976   6.718  16.554   5.153  0.1233 -0.4921 -0.3048
 3846W        W18977  16.670  17.361   2.669  0.3418  0.2018 -0.1687
 3847W        W18978  16.865   8.962   3.360  0.0960  0.1504 -0.2158
 3848W        W18979   4.817  16.459   1.154 -0.2023 -0.3595 -0.0198
 3849W        W18980  16.587   0.304  11.495  0.1825  0.1157  0.1878
 3850W        W18981  12.859  14.216   2.384 -0.0019 -0.0101  0.1061
 3851W        W18982   4.720   1.229   2.929  0.2112 -0.0953 -0.1885
 3852W        W18983  12.734   6.981  12.513 -0.0490  0.1300  0.0951
 3853W        W18984  14.699  13.340  11.116  0.1869 -0.2509  0.0073
 3854W        W18985   7.572  11.362   3.513 -0.0162 -0.0436 -0.1931
 3855W        W18986   6.393  14.776  11.427  0.1248 -0.0046 -0.1085
 3856W        W18987   5.497   5.932  10.509  0.0096  0.0556  0.1289
 3857W        W18988  12.577   0.099   0.501 -0.0465  0.0509  0.0171
 3858W        W18989   0.458  14.123   2.090 -0.1924 -0.1780 -0.1435
 3859W        W18990   5.538   2.184   4.245  0.0983 -0.3520  0.1551
 3860W        W18991   2.044   6.175  13.843 -0.3906 -0.1770 -0.0242
 3861W        W18992  15.539  16.366  12.376 -0.2446 -0.0548  0.1122
 3862W        W18993  16.265  10.068   1.387  0.0728 -0.2235  0.2559
 3863W        W18994   5.624   0.628   2.847  0.1395 -0.0800 -0.2974
 3864W        W18995   5.404   6.847   2.884  0.3426  0.2347 -0.1868
 3865W        W18996  10.973   0.374   1.460 -0.1910 -0.1932 -0.0174
 3866W        W18997  16.514  10.057   2.230 -0.3554 -0.0827 -0.0019
 3867W        W18998  15.308  14.178   6.247  0.0485  0.3866 -0.1386
 3868W        W18999  10.146  10.463   3.623 -0.0265 -0.3122 -0.1800
 3869W        W19000  16.914  15.230   5.692 -0.2320  0.0642  0.2313
 3870W        W19001   9.145   8.760   1.478 -0.4979 -0.3951 -0.1749
 3871W        W19002  12.199  15.984  12.674 -0.2651 -0.2121 -0.2294
 3872W        W19003   3.163   0.722  10.871  0.0912 -0.2312  0.1686
 3873W        W19004   8.700  18.369   2.995  0.2976 -0.3180 -0.1979
 3874W        W19005   3.361   2.565   2.431 -0.3252  0.0948 -0.2184
 3875W        W19006   8.594   9.255   0.459 -0.1949  0.0843 -0.1112
 3876W        W19007   0.865  13.893  10.365 -0.0697 -0.1441 -0.1181
 3877W        W19008  13.935  18.247  12.943  0.2396 -0.0691  0.0870
 3878W        W19009   5.340  14.389  11.869 -0.1863  0.0266 -0.2516
 3879W        W19010  13.337  11.659   3.903 -0.0739  0.4282  0.2274
 3880W        W19011  16.837   1.981   1.037  0.1259  0.0442  0.2330
 3881W        W19012   6.686   3.739  13.927  0.1534  0.1441 -0.2111
 3882W        W19013   4.476  15.815  10.272 -0.0340 -0.0262 -0.0797
 3883W        W19014  16.100  18.266   2.319 -0.2625 -0.2528 -0.0489
 3884W        W19015  18.055   8.320   1.525 -0.1657  0.1723 -0.0889
 3885W        W19016   8.157  10.900   0.522  0.2973  0.0547  0.0328
 3886W        W19017   6.106   9.519  14.891 -0.0226 -0.0942 -0.1362
 3887W        W19018  17.377  17.485   1.854 -0.1508  0.0508 -0.0274
 3888W        W19019  16.666   5.680   5.162 -0.1473 -0.1562 -0.0241
 3889W        W19020   7.644  15.485   0.699  0.1975 -0.0394 -0.1416
 3890W        W19021  14.284  12.477   2.569  0.0225  0.3990  0.3018
 3891W        W19022  16.668   5.922   2.814 -0.2408  0.0574 -0.1918
 3892W        W19023   0.162   8.732   4.190  0.0119 -0.0204  0.1346
 3893W        W19024   1.974   6.396  13.226  0.3548  0.2197 -0.0956
 3894W        W19025  12.335  17.225   5.188 -0.1754  0.2642  0.4611
 3895W        W19026  11.898  13.609   4.934 -0.0030  0.0769  0.0412
 3896W        W19027  16.189   7.352  11.283 -0.0057  0.3256  0.0143
 3897W        W19028  13.591  15.810  14.538 -0.2458  0.0878  0.0849
 3898W        W19029   8.545  13.360  11.371  0.0868  0.2630 -0.1066
 3899W        W19030   3.876  14.248   4.586 -0.0708 -0.1056  0.0745
 3900W        W19031  13.972   9.756   1.105 -0.0675 -0.0103  0.0291
 3901W        W19032  10.201  14.941   1.725 -0.0537 -0.2212 -0.0583
 3902W        W19033  14.154   2.047   3.468 -0.0954 -0.1997 -0.2108
 3903W        W19034   5.396   6.244   0.469 -0.0658  0.0695 -0.0107
 3904W        W19035   9.073   1.646   1.762  0.1113 -0.0316 -0.3136
 3905W        W19036   7.923   5.739  14.126  0.2164 -0.1187 -0.1220
 3906W        W19037   1.665   5.435   2.505  0.1469  0.1111  0.1788
 3907W        W19038   2.676  16.610  13.654 -0.0481  0.0012 -0.1041
 3908W        W19039  15.733   7.378   3.143  0.3488 -0.1333  0.2655
 3909W        W19040  17.428   5.326  15.485 -0.0429 -0.4344 -0.1898
 3910W        W19041  14.229  12.499  11.525  0.0522  0.0795  0.3545
 3911W        W19042  17.288   7.632  12.764 -0.1597  0.0417  0.1083
 3912W        W19043  13.464  14.052   4.819 -0.0974  0.0049  0.2250
 3913W        W19044   4.324   5.320  12.275  0.1421 -0.1647  0.1256
 3914W        W19045   4.311  16.585  11.332  0.2147 -0.1494 -0.2393
 3915W        W19046  12.028  16.327   5.216 -0.0189  0.0054  0.0167
 3916W        W19047  15.990  11.916   1.427  0.2654 -0.0987  0.0781
 3917W        W19048  15.898  12.980   4.725 -0.2044 -0.0926 -0.1975
 3918W        W19049   4.293   8.049   1.490  0.0838 -0.0616  0.3486
 3919W        W19050  17.614  10.664  11.220 -0.0621 -0.1325 -0.2965
 3920W        W19051  11.597  13.597   4.453  0.2562 -0.0146 -0.0776
 3921W        W19052  12.278   6.799  15.620 -0.0136 -0.1375 -0.2437
 3922W        W19053  15.318  18.726  15.614  0.0403  0.1472  0.1338
 3923W        W19054  12.484   1.947  12.846  0.3454  0.2106 -0.2892
 3924W        W19055   7.547   5.630   1.696 -0.1198 -0.0633  0.2330
 3925W        W19056   8.794   4.143   2.120  0.2275  0.2555 -0.0093
 3926W        W19057   1.521  14.000   0.095 -0.2317 -0.2099  0.0981
 3927W        W19058   6.088   5.136  10.298  0.4025  0.1592 -0.3365
 3928W        W19059   0.242  16.669  13.619  0.1287  0.2895  0.0052
 3929W        W19060  17.275  15.356  12.829  0.0159  0.1082 -0.0523
 3930W        W19061  18.355  10.644   2.026 -0.0899 -0.1514 -0.0121
 3931W        W19062   3.946  15.112  10.592 -0.0883  0.2874 -0.2960
 3932W        W19063   7.724   0.591  10.075  0.0457 -0.3390  0.2804
 3933W        W19064  17.334   9.136   1.906  0.2298 -0.2187  0.1174
 3934W        W19065  11.774  12.727   5.806  0.2033  0.1673 -0.2628
 3935W        W19066  13.256  16.228   1.706 -0.2765  0.2736  0.0817
 3936W        W19067  16.855   8.960  14.226  0.0217 -0.1782 -0.2820
 3937W        W19068  13.359  18.241   5.336 -0.0103  0.0638 -0.3652
 3938W        W19069   2.559   6.189  13.512  0.1631 -0.1120 -0.1438
 3939W        W19070  17.620   9.006   2.512 -0.2790 -0.1344 -0.0486
 3940W        W19071   0.696   6.140   0.700 -0.0726 -0.1840 -0.1521
 3941W        W19072  18.187   2.797   4.204  0.3427 -0.4770  0.1599
 3942W        W19073   9.909   1.668   3.322 -0.0230 -0.1488  0.0196
 3943W        W19074  16.558   8.990  14.985  0.0791 -0.0748  0.3752
 3944W        W19075  18.467  17.695   0.774  0.3081  0.0661  0.1674
 3945W        W19076  13.939   9.855  11.994  0.0065  0.1196 -0.0530
 3946W        W19077  11.645  10.418   5.533 -0.1127  0.1056 -0.0656
 3947W        W19078  10.057   8.073   0.135 -0.2986 -0.1298  0.0017
 3948W        W19079   4.642  18.132  15.071 -0.3326 -0.2257 -0.2377
 3949W        W19080   3.316   8.314  13.355  0.0887  0.5309  0.1383
 3950W        W19081  17.863  11.135  10.467 -0.0260 -0.0284 -0.2541
 3951W        W19082   5.142   0.742  13.357  0.1244  0.2189 -0.0842
 3952W        W19083  14.606   2.188  15.051 -0.1555 -0.2032 -0.2138
 3953W        W19084   8.174   2.017   2.911  0.0145  0.0974 -0.1827
 3954W        W19085  13.163  17.935  12.480 -0.4050  0.1488  0.3453
 3955W        W19086   0.201  10.139  12.138  0.1860  0.0073 -0.0294
 3956W        W19087  17.678  12.115  13.258 -0.1109 -0.3880  0.0882
 3957W        W19088  12.117  11.984   6.019  0.3939 -0.2623 -0.1621
 3958W        W19089   6.087   8.733  14.269 -0.1994  0.1688 -0.0378
 3959W        W19090   7.866   3.359   3.425 -0.1471  0.2229 -0.0977
 3960W        W19091  17.353  15.333  15.352  0.0732  0.0744  0.1003
 3961W        W19092   6.522   8.400  11.843  0.5392  0.0174 -0.1665
 3962W        W19093  16.156   2.496   1.780 -0.1505  0.1519 -0.5715
 3963W        W19094  15.748  13.375  12.181 -0.0011  0.0771  0.0493
 3964W        W19095   9.438   6.043   0.920 -0.0262 -0.0569  0.3179
 3965W        W19096  10.342   6.960   1.022 -0.2697  0.0002  0.1706
 3966W        W19097   1.744  12.462  12.611 -0.0766  0.3377  0.2808
 3967W        W19098  15.074   7.546  12.226 -0.1444  0.1100  0.1470
 3968W        W19099  16.310   3.269  13.188  0.2045  0.0165 -0.0898
 3969W        W19100   5.674  15.318   4.314 -0.1913 -0.0963  0.0863
 3970W        W19101   4.855  10.172  11.489 -0.3724  0.1070 -0.1544
 3971W        W19102   0.490  15.349   1.620 -0.1092 -0.0577 -0.3706
 3972W        W19103   1.504   9.543  15.523 -0.0790  0.3370  0.0556
 3973W        W19104  15.607  17.055   0.119  0.1171  0.1596  0.0759
 3974W        W19105  15.646   7.941   0.457 -0.1885  0.1914  0.1896
 3975W        W19106   0.069   7.697   1.252  0.2858  0.2116 -0.1343
 3976W        W19107  11.020  17.135  14.349 -0.1871  0.3526  0.0742
 3977W        W19108  15.357   4.416  10.618 -0.1745  0.0142  0.1471
 3978W        W19109   1.478  18.386   2.846 -0.1131  0.0832  0.0158
 3979W        W19110  17.756  17.178   2.975  0.0396 -0.0545  0.0412
 3980W        W19111   8.574   8.619   4.823  0.3133 -0.0822  0.0392
 3981W        W19112   6.442  12.431  14.399 -0.0483  0.2598  0.3144
 3982W        W19113  14.421   9.497   4.477  0.0844 -0.2970 -0.6378
 3983W        W19114   7.098   3.026  12.733  0.0530  0.1038 -0.2073
 3984W        W19115   7.647  12.094  11.742  0.0931 -0.1708 -0.0390
 3985W        W19116  11.363  13.977   2.380  0.2831 -0.2358  0.2385
 3986W        W19117  13.827   8.210  14.387  0.1225  0.0519 -0.1047
 3987W        W19118  18.464  13.839   3.356 -0.2061 -0.3148  0.4467
 3988W        W19119  17.726   4.962   1.465  0.2609 -0.0084 -0.0927
 3989W        W19120   6.401   5.961  14.454  0.1638  0.1331  0.3848
 3990W        W19121  14.887   9.815  10.538  0.1310 -0.4666 -0.0960
 3991W        W19122  11.931   0.881   3.269  0.0856  0.1997  0.0720
 3992W        W19123   5.720  13.901   4.064 -0.0359 -0.2710  0.1741
 3993W        W19124   3.062   8.018  14.742  0.0849  0.3369 -0.0105
 3994W        W19125   3.008   1.329   4.952 -0.1584 -0.0030 -0.0227
 3995W        W19126  12.924   8.778   3.855 -0.1454 -0.1044  0.1242
 3996W        W19127  10.286   2.742  14.659  0.2287  0.1323 -0.0647
 3997W        W19128   9.601   9.263  14.798 -0.1629  0.1235  0.1424
 3998W        W19129   1.985   3.161  11.843 -0.0682  0.2711 -0.2963
 3999W        W19130   3.325   6.602  14.553 -0.1046  0.2411  0.1450
 4000W        W19131  11.025   8.740  12.492  0.1836 -0.0636 -0.1690
 4001W        W19132   9.804  12.703   5.586 -0.1998 -0.3309  0.0154
 4002W        W19133   1.668   9.337   4.949 -0.2751  0.0812  0.1712
 4003W        W19134  14.402  15.996  11.170 -0.2437  0.0999  0.1539
 4004W        W19135   5.830   5.758   0.427  0.1094 -0.0094  0.0365
 4005W        W19136  17.579   6.949   2.415  0.1553 -0.2236 -0.1513
 4006W        W19137   3.644   7.816   4.734  0.2370  0.2057  0.0965
 4007W        W19138  15.882   8.086  11.796  0.0166 -0.0153 -0.1395
 4008W        W19139   6.732  10.350   2.289 -0.5830 -0.2370 -0.3109
 4009W        W19140   8.675   4.899  11.319 -0.0004  0.0621  0.2908
 4010W        W19141  17.856  15.465  15.294  0.2082  0.1380  0.0045
 4011W        W19142   1.481  12.318   5.685  0.0742 -0.2644 -0.1426
 4012W        W19143  15.462   4.382  13.489  0.0171 -0.1106  0.1108
 4013W        W19144  11.880  17.812   0.413  0.1635  0.3345  0.1869
 4014W        W19145  10.553  18.276  14.821  0.0153  0.0762 -0.1591
 4015W        W19146  13.917   0.445   0.248  0.0305 -0.0932 -0.0934
 4016W        W19147  10.493   1.943   2.009 -0.3814 -0.3000  0.0162
 4017W        W19148   8.489   4.688  11.759  0.1944  0.4270  0.1777
 4018W        W19149   7.880  10.347  14.812  0.1725 -0.3289 -0.1431
 4019W        W19150  13.855   3.357  13.292  0.4199  0.0819 -0.3305
 4020W        W19151   6.944   5.241   1.410 -0.1807  0.0380 -0.2722
 4021W        W19152   2.231  15.169   2.809 -0.2423  0.3320  0.1004
 4022W        W19153   9.307   2.932  10.415 -0.0418 -0.0366  0.2857
 4023W        W19154   8.704   7.250   1.117 -0.3337  0.0418  0.1686
 4024W        W19155  16.719  15.265   6.149 -0.0879 -0.0361 -0.0244
 4025W        W19156  13.695   8.015  10.889 -0.1274  0.0113  0.0932
 4026W        W19157   9.823   1.628   4.778  0.2301 -0.0164  0.1488
 4027W        W19158  17.780  10.617  10.401 -0.0805 -0.1829 -0.1328
 4028W        W19159   5.951  11.230   4.355  0.0317  0.1978  0.1463
 4029W        W19160  18.393   9.197  11.348 -0.0660 -0.3039  0.2622
 4030W        W19161  12.215  17.781   4.867 -0.0555 -0.0090 -0.1173
 4031W        W19162  18.664   6.640  11.665 -0.0165  0.1747 -0.2454
 4032W        W19163  10.591   7.578  14.725  0.2798  0.0551 -0.0767
 4033W        W19164   8.928   2.707  12.765  0.0528 -0.0792 -0.2867
 4034W        W19165  14.051   5.210   1.221  0.0660 -0.1714 -0.0348
 4035W        W19166   9.708  11.813   2.288  0.0384 -0.0711 -0.2105
 4036W        W19167   6.627   3.254  14.090  0.0506  0.2205 -0.0483
 4037W        W19168   8.699   6.202  11.765  0.2133 -0.0605  0.0345
 4038W        W19169   7.290   8.659   2.193  0.1804  0.0580  0.0068
 4039W        W19170   4.975  14.231  11.575 -0.0867  0.2688 -0.0111
 4040W        W19171   6.116   7.563   9.956  0.0901  0.4175 -0.0131
 4041W        W19172  13.735   5.717   3.759  0.2398 -0.2692  0.0710
 4042W        W19173  13.290   7.597   0.419 -0.2940  0.0901 -0.1347
 4043W        W19174  16.838   3.155  10.688  0.2239 -0.0889  0.0968
 4044W        W19175   5.201   4.939  11.391 -0.2728 -0.0050 -0.0140
 4045W        W19176   8.257   1.167   3.584 -0.3325 -0.1851  0.2628
 4046W        W19177  18.385   1.357  15.357 -0.0494  0.1923 -0.0818
 4047W        W19178  12.731   7.934   3.379  0.4439  0.2557  0.1180
 4048W        W19179  13.429   1.374   2.598 -0.0313  0.3608  0.0600
 4049W        W19180   0.936  10.048  13.606 -0.0729 -0.2677  0.0907
 4050W        W19181   5.459  18.510  13.881 -0.0324 -0.0217  0.1420
 4051W        W19182   8.445  17.973   5.032  0.2479 -0.0672 -0.5202
 4052W        W19183  16.748   4.319  13.761  0.0680 -0.1719 -0.0222
 4053W        W19184   7.726  18.677  10.147 -0.0782 -0.2491  0.0882
 4054W        W19185  10.112  16.989  12.882  0.2364  0.0083  0.1113
 4055W        W19186  16.358   2.073   0.497 -0.1252 -0.0803  0.2741
 4056W        W19187  15.924  14.569  11.897 -0.0837 -0.2372 -0.0605
 4057W        W19188   5.646   9.130   4.326  0.3107  0.1354 -0.1035
 4058W        W19189  14.673  15.385  11.078 -0.0310  0.0189  0.2310
 4059W        W19190   9.804   8.499  13.563  0.0838 -0.1279 -0.0014
 4060W        W19191   5.274  10.473   0.891 -0.0028 -0.0855 -0.1109
 4061W        W19192  16.857  14.522  14.333  0.1330  0.1543 -0.0597
 4062W        W19193   7.412  12.316  12.755  0.0023 -0.1390  0.1262
 4063W        W19194  12.709   3.489  14.651  0.0240 -0.0235 -0.0436
 4064W        W19195  14.450   5.705  14.471 -0.0262  0.1047 -0.0427
 4065W        W19196   7.342   4.704  11.871  0.0562  0.2192  0.2416
 4066W        W19197   5.326   5.710  10.052  0.1847  0.1793  0.0742
 4067W        W19198  16.366   5.286   2.365  0.2468 -0.2731 -0.0578
 4068W        W19199   8.821   7.541  10.673 -0.0686  0.1426  0.0253
 4069W        W19200   2.019   7.491   4.333 -0.0835  0.2607 -0.0857
 4070W        W19201   3.647  12.913  10.993  0.0374  0.5002  0.2355
 4071W        W19202  15.774  16.661   3.965 -0.0537 -0.0741  0.1995
 4072W        W19203   7.966  17.729  14.661  0.0942 -0.0279  0.0292
 4073W        W19204   0.580   4.958   4.672 -0.0367  0.1569 -0.0207
 4074W        W19205   5.500  15.920   3.688 -0.1155  0.1181  0.2311
 4075W        W19206  13.903   8.596   0.070 -0.0217 -0.6903 -0.3935
 4076W        W19207   3.547   3.847  13.776 -0.1707 -0.3730  0.2646
 4077W        W19208   4.878  12.043  11.903  0.1973 -0.0411 -0.0878
 4078W        W19209  11.538   2.775   2.814  0.0393 -0.1508 -0.0387
 4079W        W19210  15.807   8.141  11.136  0.3140  0.2913  0.0210
 4080W        W19211  13.529   3.338  11.246 -0.2081 -0.1150 -0.0882
 4081W        W19212   5.693  11.078   5.788  0.1605 -0.0028 -0.1083
 4082W        W19213   8.818   5.976   0.633 -0.0476  0.1610  0.0727
 4083W        W19214   6.091   3.423  15.047 -0.0006 -0.1293  0.1553
 4084W        W19215  10.598  18.284   3.676  0.0698  0.2244  0.0316
 4085W        W19216  10.172  16.125  11.341  0.3361  0.4236 -0.0437
 4086W        W19217   2.299   0.085   2.286  0.2520  0.2250 -0.3332
 4087W        W19218  18.747  16.136  15.411 -0.4387 -0.1126 -0.1673
 4088W        W19219  15.503  10.729   1.927 -0.2873  0.4091 -0.2472
 4089W        W19220  14.357  15.369   2.758 -0.0536 -0.0156  0.3339
 4090W        W19221   3.205   4.842  12.750  0.0467 -0.1990 -0.0182
 4091W        W19222   0.319   9.175   3.851 -0.0450  0.2005 -0.1628
 4092W        W19223   5.659   8.155   5.713 -0.1629  0.0850 -0.1599
 4093W        W19224   7.810   9.813   1.386  0.1564 -0.0137  0.0045
 4094W        W19225   8.606  13.654   4.059  0.4518 -0.2733  0.0632
 4095W        W19226   2.638  15.671  12.719  0.0560  0.1463 -0.2154
 4096W        W19227   5.032  14.934  10.211  0.0766  0.0685  0.0125
 4097W        W19228   3.927   4.972  12.304 -0.3276 -0.0024 -0.4364
 4098W        W19229   4.390  17.420  10.207 -0.0605 -0.1720  0.0175
 4099W        W19230  18.387   3.564  12.731  0.0344  0.0861  0.2426
 4100W        W19231   0.846   9.184  14.404 -0.5332  0.1969  0.2873
 4101W        W19232  18.510   4.969   4.985  0.3047 -0.1698 -0.0787
 4102W        W19233  11.624   2.180   4.041 -0.2010 -0.0604  0.0654
 4103W        W19234   1.833  15.944  14.019 -0.0596 -0.1180  0.3492
 4104W        W19235  10.744  15.418   1.323 -0.0367 -0.0604  0.1228
 4105W        W19236   4.619  16.603   1.677  0.2494 -0.0232 -0.2063
 4106W        W19237   7.313  11.740  11.109  0.0577  0.2083 -0.1484
 4107W        W19238  15.188   8.882   4.200 -0.1024  0.0683  0.0925
 4108W        W19239   8.773   0.259   4.075 -0.2786  0.0435  0.2657
 4109W        W19240   4.745   5.539  13.042  0.1877 -0.1134 -0.0409
 4110W        W19241   6.209   2.860  13.263  0.0306  0.2067  0.1579
 4111W        W19242  15.089   6.413  12.972 -0.1182  0.3659  0.0253
 4112W        W19243   5.214  11.855   1.867 -0.1080  0.2809  0.0697
 4113W        W19244   8.636  10.154   5.292 -0.3249  0.0362  0.3686
 4114W        W19245   9.014   5.439  14.654  0.0602 -0.2241 -0.3158
 4115W        W19246   7.301  10.204   4.495 -0.0128  0.3356  0.1493
 4116W        W19247  17.497   6.892  11.150 -0.1554 -0.0589 -0.0929
 4117W        W19248   0.772   6.879   0.998  0.2921 -0.0247 -0.1493
 4118W        W19249  10.229  17.630  11.164  0.0558 -0.3219  0.1877
 4119W        W19250   2.726  18.591   5.982 -0.2336 -0.1441  0.1850
 4120W        W19251  13.730   5.501   3.267 -0.1485 -0.0026  0.1044
 4121W        W19252   0.380  15.024   5.734 -0.1794 -0.0315 -0.1520
 4122W        W19253  12.951   9.265   6.174  0.0555 -0.1011  0.1732
 4123W        W19254  12.588   1.184   3.623 -0.0166  0.2269  0.5307
 4124W        W19255  15.790  13.602   1.044  0.2873  0.2807  0.0330
 4125W        W19256  12.448   8.958  11.136 -0.0001 -0.1131 -0.1497
 4126W        W19257  10.880   7.239   2.955  0.1819 -0.0462  0.1437
 4127W        W19258   0.842  15.355   1.997 -0.0742  0.1778  0.1939
 4128W        W19259  18.496  11.618   2.860 -0.2138 -0.0804 -0.0065
 4129W        W19260   5.121   4.639  13.376  0.0507  0.0910  0.0511
 4130W        W19261   2.005   5.313  12.537  0.3454  0.0640 -0.2166
 4131W        W19262  17.784   4.469  15.636 -0.2026  0.3365  0.3893
 4132W        W19263   8.271   5.359   5.133  0.1507  0.0166  0.1493
 4133W        W19264  11.348   8.617   4.232  0.1870 -0.2191 -0.1199
 4134W        W19265   1.340  11.254   5.246  0.2666  0.0778 -0.2687
 4135W        W19266   8.021   9.099   4.159  0.2894 -0.4205  0.1521
 4136W        W19267  11.679   9.568   0.933  0.1451  0.1061 -0.1415
 4137W        W19268   4.680   7.695   4.567  0.3820 -0.3241  0.0089
 4138W        W19269  16.237   7.124   4.409  0.1720 -0.4173  0.0941
 4139W        W19270   4.100  15.714   0.434  0.3577 -0.1755 -0.2398
 4140W        W19271  11.327  10.344  13.807 -0.4044  0.4203 -0.4240
 4141W        W19272  12.908  10.946   5.529  0.1581 -0.2200 -0.0005
 4142W        W19273   5.491  12.656   4.942 -0.2416  0.1266  0.2388
 4143W        W19274  13.423   8.174   0.647  0.0274  0.1206  0.1593
 4144W        W19275   8.854  11.717   4.766  0.1713 -0.3840  0.0275
 4145W        W19276   7.485   0.025   3.968  0.4744  0.1541  0.1274
 4146W        W19277   0.014  10.377  12.877 -0.1992 -0.1043  0.1355
 4147W        W19278  18.021   8.923   3.385  0.2884  0.2596  0.3632
 4148W        W19279  17.861   6.168   3.215 -0.1019  0.0245  0.1136
 4149W        W19280  18.508  13.930   4.772  0.1420  0.1467  0.0621
 4150W        W19281   1.448   6.781   3.189 -0.1023 -0.1121  0.0966
 4151W        W19282  18.568  10.235  12.465  0.0767  0.2781 -0.1832
 4152W        W19283   8.144  16.015   0.341  0.1438  0.3962 -0.2121
 4153W        W19284   9.571   7.562   0.728  0.0493  0.0084 -0.0932
 4154W        W19285  15.377   9.864   2.848 -0.0467 -0.0244  0.0480
 4155W        W19286  10.457  11.516   1.275 -0.0178  0.0240 -0.0373
 4156W        W19287  16.185  12.145   2.839 -0.2306  0.2353 -0.0052
 4157W        W19288   6.036   4.955   5.034  0.2218 -0.1551 -0.2698
 4158W        W19289  14.267  12.610   1.108 -0.0505  0.1240  0.2868
 4159W        W19290  11.858   8.884   1.535 -0.0951 -0.2528 -0.3120
 4160W        W19291  14.668   3.937   0.780 -0.0343  0.0890 -0.0058
 4161W        W19292   5.900  18.733  14.699  0.2065 -0.1192 -0.0179
 4162W        W19293   8.797  18.435   0.562 -0.2511 -0.1432  0.3059
 4163W        W19294   7.294   6.992   3.028  0.0941  0.0538 -0.0774
 4164W        W19295  17.412   6.258   2.195 -0.1032  0.3475  0.0659
 4165W        W19296  11.958  15.831  11.077  0.0129 -0.1327  0.1390
 4166W        W19297   3.325   9.047  14.822 -0.1348 -0.0700  0.0040
 4167W        W19298  16.857  17.892   1.634 -0.0076 -0.1815  0.0181
 4168W        W19299  18.373  13.599   2.332  0.0779  0.3526  0.5109
 4169W        W19300  15.220  16.010  12.994 -0.2445 -0.2895  0.1728
 4170W        W19301  18.297   3.010  15.296 -0.1265 -0.2411 -0.1332
 4171W        W19302   1.762   3.395  14.284  0.1814 -0.1380  0.0248
 4172W        W19303   6.059   9.151   3.888  0.2793  0.1758  0.0224
 4173W        W19304  12.365  14.081   2.364 -0.1529  0.0696 -0.3037
 4174W        W19305   9.249   7.384  14.652 -0.1798  0.3292  0.0815
 4175W        W19306  18.717   0.548  12.175 -0.1399 -0.2211  0.2582
 4176W        W19307  13.413   7.555  15.681 -0.1179 -0.3212  0.0708
 4177W        W19308  16.640  14.260  10.140 -0.1798  0.2779  0.2577
 4178W        W19309  17.378   8.426  15.602  0.1242  0.0434 -0.0855
 4179W        W19310   3.135   1.211   3.217  0.1178  0.4331  0.2904
 4180W        W19311   3.889   2.382  15.716 -0.0131 -0.0060  0.1516
 4181W        W19312  18.105  11.611  11.912 -0.2305  0.1398 -0.3501
 4182W        W19313   0.226   0.334  13.472 -0.0427 -0.3965 -0.0555
 4183W        W19314   9.186  14.385   2.977 -0.1680  0.1078  0.1119
 4184W        W19315   8.085  17.323  10.655  0.3238 -0.1331 -0.3647
 4185W        W19316  15.258  16.013  14.218 -0.1265  0.0415 -0.2687
 4186W        W19317   8.793  16.268   4.711  0.1541 -0.0724  0.0570
 4187W        W19318   2.064  13.124  11.947  0.2059 -0.4151 -0.2604
 4188W        W19319   0.365   6.898  13.346  0.1991 -0.0844  0.0291
 4189W        W19320   5.630  11.538   1.750 -0.2343 -0.0433 -0.0820
 4190W        W19321   6.193   4.147   4.025  0.1191 -0.2429 -0.0912
 4191W        W19322  13.418   7.719   1.474 -0.1243 -0.2118  0.1629
 4192W        W19323  11.645  18.708   0.159  0.2946  0.1547  0.0883
 4193W        W19324  15.956   4.192   4.670  0.1295 -0.2274 -0.0323
 4194W        W19325   3.814   6.780  14.807 -0.0919  0.0156  0.1340
 4195W        W19326   4.442   3.516   1.928 -0.0234 -0.3091  0.1095
 4196W        W19327  18.734  12.593  12.824  0.1148 -0.1373 -0.0424
 4197W        W19328   1.771  14.650   0.533 -0.0932 -0.0844 -0.1541
 4198W        W19329  13.003   4.619   4.119 -0.0231  0.2308 -0.0834
 4199W        W19330  13.541  15.739  13.209 -0.1651  0.0189  0.0407
 4200W        W19331   7.402  16.541  15.067  0.0350  0.3934 -0.4006
 4201W        W19332   8.715   8.214   0.661  0.1627  0.0532 -0.0107
 4202W        W19333  11.918  11.205  14.748  0.1413  0.3135  0.0202
 4203W        W19334   0.275  14.732   0.854 -0.0673 -0.0370 -0.0602
 4204W        W19335   9.434  18.602   1.473 -0.1069  0.1596 -0.1348
 4205W        W19336   4.279   6.539   3.331  0.0894  0.2502  0.2410
 4206W        W19337   1.808  11.138   4.077 -0.1010  0.0001  0.2359
 4207W        W19338   6.237  11.312   1.059 -0.1044 -0.0569 -0.2934
 4208W        W19339  12.599   7.484  15.457  0.2251  0.0572  0.1475
 4209W        W19340  17.633   4.921   1.970  0.0626 -0.1029  0.0149
 4210W        W19341  13.669   8.449   2.045 -0.1731 -0.1279  0.2672
 4211W        W19342  13.321  15.275   3.715  0.0720 -0.0338 -0.1593
 4212W        W19343  11.524   2.543   5.196  0.0076 -0.1186  0.2187
 4213W        W19344  16.969   4.932  12.934  0.1685  0.1117  0.2001
 4214W        W19345  18.394  13.170  13.332  0.1947 -0.1410  0.1965
 4215W        W19346  14.860   3.682  13.850  0.1166  0.1758 -0.1955
 4216W        W19347  12.628   1.366   1.973 -0.2420 -0.3447  0.1794
 4217W        W19348  16.371  14.340   1.140 -0.0636 -0.1511 -0.4741
 4218W        W19349   0.699  17.116  10.865  0.0790 -0.2124  0.2540
 4219W        W19350   1.962   0.524  12.486  0.0423 -0.2095 -0.1135
 4220W        W19351   9.962   5.349  11.937  0.0621 -0.3186  0.1261
 4221W        W19352  12.197  15.287  10.900  0.0394  0.2113 -0.0619
 4222W        W19353   8.431   4.656  13.440  0.1823  0.3846 -0.0219
 4223W        W19354   6.002   0.992  15.547  0.1319 -0.0080  0.3895
 4224W        W19355   5.025  16.251  10.681 -0.1335 -0.0254  0.1305
 4225W        W19356  10.423   2.933   2.859 -0.0951 -0.0111 -0.0510
 4226W        W19357   7.665   7.067   3.526 -0.0479  0.0790  0.3519
 4227W        W19358  10.454   9.065  15.286  0.0564 -0.0261 -0.1029
 4228W        W19359  10.948  15.868   0.825  0.2318 -0.1671 -0.1505
 4229W        W19360   0.416  14.549   3.206  0.1473  0.1201  0.2081
 4230W        W19361   4.036  17.430  12.392 -0.3903  0.0119 -0.0274
 4231W        W19362  16.080   7.175   3.590 -0.2984 -0.1212 -0.1040
 4232W        W19363   0.130  16.880  14.888  0.2347 -0.1580  0.2744
 4233W        W19364   8.722   9.250  12.899 -0.1371 -0.1291  0.1422
 4234W        W19365  13.595  18.057   4.884 -0.0889 -0.1008  0.1722
 4235W        W19366  10.703   0.213  12.515  0.2833  0.1723  0.2551
 4236W        W19367  10.025  10.125   0.239 -0.0508  0.0953 -0.0430
 4237W        W19368  14.904   4.515   9.840  0.2102 -0.2013 -0.3610
 4238W        W19369   4.868   6.638  14.968  0.0613 -0.0896 -0.1572
 4239W        W19370   9.174  18.677  12.127  0.2436 -0.0612  0.0483
 4240W        W19371   6.242   5.328   0.463  0.4760 -0.2003 -0.1922
 4241W        W19372  12.749   2.195  11.880  0.0671  0.1078  0.0159
 4242W        W19373   5.707   9.295   4.889  0.0960  0.1091 -0.0093
 4243W        W19374   1.339  16.412  12.766  0.0351 -0.0735 -0.3708
 4244W        W19375  17.306  12.637  14.788  0.2900 -0.0293 -0.1321
 4245W        W19376  17.761  15.687   5.521 -0.0223  0.2220 -0.0209
 4246W        W19377   1.422   1.722  12.734  0.0945 -0.0435  0.1113
 4247W        W19378  16.846   2.010  13.727  0.0917  0.1679 -0.0225
 4248W        W19379  10.898   1.874  10.734  0.1012  0.0317 -0.6170
 4249W        W19380  10.298   1.702  14.988 -0.2803 -0.0902  0.0095
 4250W        W19381  12.323  10.764   4.057 -0.2357  0.0008 -0.0403
 4251W        W19382   6.385  17.705  15.149  0.0626  0.2190  0.2295
 4252W        W19383  10.651   5.127   1.926  0.0678  0.1071 -0.4352
 4253W        W19384   4.859   3.495  11.815 -0.0415 -0.1423  0.0477
 4254W        W19385   5.763   9.712   1.745 -0.0411 -0.0749  0.0137
 4255W        W19386   5.997   2.563  11.068 -0.0050 -0.1035  0.2047
 4256W        W19387   8.481  13.205   6.465  0.1243  0.2394  0.2225
 4257W        W19388  17.512   7.309   1.476 -0.1774 -0.4385  0.0263
 4258W        W19389   0.174  14.537   9.973  0.4079 -0.6103 -0.0006
 4259W        W19390   5.471  18.217  12.721 -0.0286 -0.0201  0.2421
 4260W        W19391  17.481  12.069  11.647 -0.1923 -0.1889 -0.3725
 4261W        W19392   3.676  11.465   5.341 -0.0648  0.1504  0.0491
 4262W        W19393   1.671  12.976   0.602  0.2165 -0.0155  0.2504
 4263W        W19394  14.899  14.591   4.117  0.0268 -0.0467  0.2152
 4264W        W19395   4.590  14.486  13.141 -0.2115 -0.3340  0.0915
 4265W        W19396  18.079   8.131  13.067  0.2168 -0.0528  0.0231
 4266W        W19397  15.938  16.436   1.498 -0.0309  0.0792  0.0226
 4267W        W19398  11.480  13.887   4.986 -0.2425 -0.2066 -0.2441
 4268W        W19399  13.821   8.073   1.688 -0.1483 -0.1314  0.0702
 4269W        W19400  16.274   4.742   0.395 -0.0964 -0.1871 -0.0686
 4270W        W19401   2.075  12.641   1.840 -0.0131 -0.1225 -0.1843
 4271W        W19402   3.658   9.320   2.186 -0.0957  0.0280  0.2000
 4272W        W19403   4.935  15.001  14.598  0.2339  0.2119  0.4652
 4273W        W19404  17.693  10.492  12.214 -0.3067  0.1803  0.0774
 4274W        W19405  10.841  14.307  14.805 -0.1920 -0.1404  0.1863
 4275W        W19406  12.359  12.139  11.957  0.0920 -0.0634  0.1400
 4276W        W19407  18.087  12.264  10.975  0.4945  0.0845  0.0430
 4277W        W19408  11.386  18.373   1.911 -0.3644 -0.0674  0.1800
 4278W        W19409  12.575   7.865  11.676 -0.1546 -0.1105  0.0474
 4279W        W19410   4.287  15.864   2.980 -0.0963  0.0201 -0.3602
 4280W        W19411   1.147  17.092  14.905 -0.2112  0.2587  0.0528
 4281W        W19412   7.223  10.810   5.667 -0.0238 -0.0658  0.1791
 4282W        W19413  12.898   5.693   2.171 -0.2877 -0.0397  0.3006
 4283W        W19414  10.070  11.375   0.993  0.0285  0.1176  0.1434
 4284W        W19415   6.429  15.132  13.343  0.0318 -0.0715  0.1214
 4285W        W19416   6.888  14.029  13.219 -0.1043 -0.0615  0.1838
 4286W        W19417   0.563   5.639   0.449  0.0971 -0.4388  0.0364
 4287W        W19418   3.011   7.994   2.208 -0.0801  0.0611  0.3222
 4288W        W19419  15.923   0.464  14.820 -0.1922 -0.0995 -0.0193
 4289W        W19420   3.387  18.228  11.000  0.3029  0.1126 -0.0566
 4290W        W19421   5.156  10.502  14.949 -0.0024  0.1306  0.3018
 4291W        W19422   2.828   9.074  10.243 -0.2765  0.4178 -0.1435
 4292W        W19423  16.570  13.120  14.020 -0.1577 -0.0611 -0.0599
 4293W        W19424   4.044   6.913  13.728  0.1095  0.5339  0.1207
 4294W        W19425   0.482  15.915  12.980  0.3863 -0.0732 -0.1006
 4295W        W19426   8.689   6.061  10.941 -0.1883  0.2317 -0.0913
 4296W        W19427  15.297  13.661   0.966 -0.1034 -0.6695 -0.2862
 4297W        W19428  10.254  16.944   4.199  0.3117  0.1566  0.1872
 4298W        W19429   7.383   6.963   2.488  0.2223  0.0933 -0.0415
 4299W        W19430  12.716  13.426  11.374  0.0781 -0.3658  0.0623
 4300W        W19431  12.314   1.937   0.186  0.2981 -0.0687 -0.2315
 4301W        W19432   5.828  14.369  12.709 -0.0329  0.2450  0.0996
 4302W        W19433   4.185   8.729   4.146  0.2375  0.0296  0.1076
 4303W        W19434  16.691  10.003   1.626  0.0270  0.1002  0.3276
 4304W        W19435  13.319  10.478  13.773  0.1924 -0.0337 -0.3302
 4305W        W19436  14.404  12.480  14.027 -0.1099  0.2780  0.1791
 4306W        W19437   4.578  14.648  12.142  0.2435 -0.0289 -0.0497
 4307W        W19438   8.988  13.470   3.832 -0.1112  0.0779 -0.1599
 4308W        W19439  14.530  10.318  11.615  0.0710  0.1657 -0.1668
 4309W        W19440   1.459  10.027   0.544  0.0542 -0.1412  0.0708
 4310W        W19441  14.556  11.667   0.289  0.3102  0.2641  0.0777
 4311W        W19442  17.032   9.470   1.637 -0.2270  0.1932  0.1736
 4312W        W19443  17.216   4.403   4.288  0.2965  0.0332  0.0839
 4313W        W19444  13.287   0.565   3.157 -0.1466  0.2071 -0.1889
 4314W        W19445   9.859  16.902   2.751  0.0306  0.3741  0.0749
 4315W        W19446   3.592  15.504   9.783 -0.2063 -0.0618 -0.0191
 4316W        W19447   2.498  14.215   0.385  0.2244 -0.0064 -0.2623
 4317W        W19448   9.300   8.825   0.215 -0.1167 -0.0267 -0.0938
 4318W        W19449  16.095   3.519   1.885  0.0002 -0.0004  0.2486
 4319W        W19450   8.682   9.316   2.101  0.2878 -0.0996 -0.0798
 4320W        W19451   9.720  16.517   5.536 -0.2179 -0.0867 -0.2599
 4321W        W19452   2.280  14.671   0.495 -0.0518  0.1800  0.2165
 4322W        W19453   3.677   6.773   0.701 -0.2751  0.1001 -0.1455
 4323W        W19454  12.139  15.327  10.441  0.0677 -0.2295 -0.1086
 4324W        W19455   3.114   3.979  14.229 -0.0050 -0.1985  0.0337
 4325W        W19456  13.534   6.230   0.089  0.1661 -0.0003 -0.1254
 4326W        W19457  15.081  18.752  11.617  0.2031  0.1379 -0.2486
 4327W        W19458  12.510   6.745   2.885 -0.2349  0.2894 -0.1599
 4328W        W19459   6.596  13.227   4.693 -0.2883 -0.3536 -0.0073
 4329W        W19460  13.856  12.897   1.026  0.2546 -0.3869 -0.2884
 4330W        W19461  10.014  11.884   0.049  0.2669  0.2094  0.1398
 4331W        W19462   7.115  11.224  10.909 -0.0176  0.1382 -0.0585
 4332W        W19463   5.827   6.989  12.922  0.3757 -0.2265 -0.0424
 4333W        W19464   2.373   5.766  14.793 -0.1009 -0.0629  0.1722
 4334W        W19465  16.836   7.890  14.908 -0.0333  0.3403 -0.1400
 4335W        W19466  11.651   2.487   1.662  0.1339  0.4563  0.0593
 4336W        W19467   9.495   6.610  10.145  0.4225  0.0185  0.0141
 4337W        W19468   8.768   0.783  13.587  0.4734  0.1068 -0.0470
 4338W        W19469   2.107  15.359   0.973 -0.0112  0.0662  0.4811
 4339W        W19470   4.238   5.711  10.373  0.1586 -0.0785 -0.3907
 4340W        W19471  10.710  17.600  12.172  0.1666 -0.1255 -0.0306
 4341W        W19472   6.099   9.451  12.349 -0.1059  0.0038  0.3277
 4342W        W19473   1.301   4.662   5.081  0.1503 -0.0375 -0.1028
 4343W        W19474   5.031  17.554   5.642 -0.2686 -0.2362  0.0989
 4344W        W19475  12.953   1.860   1.336 -0.0157 -0.2860  0.0367
 4345W        W19476   4.917   3.415  13.325  0.0555  0.1838  0.3261
 4346W        W19477   4.143   0.460  15.599 -0.0024  0.1450  0.0120
 4347W        W19478  10.140  18.220   3.531 -0.1956  0.0808  0.0589
 4348W        W19479   3.990  14.561   2.778  0.0581 -0.3064  0.0473
 4349W        W19480   2.268   8.656   5.546  0.0600  0.2243  0.2388
 4350W        W19481  16.460   0.023   4.587 -0.0385  0.1452 -0.2845
 4351W        W19482   9.973  10.576   6.042  0.2929 -0.1699  0.0060
 4352W        W19483   8.937  10.525   0.246 -0.0181 -0.2252 -0.1734
 4353W        W19484  11.122  10.889   0.818  0.1235 -0.2872  0.1342
 4354W        W19485  14.180  12.135  14.460 -0.2506  0.0019  0.1500
 4355W        W19486   8.560   1.226   5.750  0.2233  0.3326 -0.1913
 4356W        W19487   1.712   1.473  12.332  0.2261 -0.0113 -0.0765
 4357W        W19488  16.523  16.498   5.677 -0.0248 -0.0396 -0.0069
 4358W        W19489   0.669   7.492  12.750  0.4147 -0.1153 -0.1331
 4359W        W19490   6.325   1.624  11.177 -0.0466  0.1839 -0.0144
 4360W        W19491  11.747   7.515  13.625  0.0823 -0.1096  0.0276
 4361W        W19492  13.451   7.453  13.630 -0.0099  0.0893  0.0314
 4362W        W19493  13.890   6.676  12.553  0.1373  0.0731  0.6125
 4363W        W19494  18.130   7.685  12.417  0.0705 -0.1001  0.1892
 4364W        W19495  10.235  16.494   4.384  0.0893  0.2152 -0.1837
 4365W        W19496   2.452   1.126  15.617  0.0288  0.5183 -0.0853
 4366W        W19497  17.844  17.898   4.876 -0.1396 -0.0422 -0.1930
 4367W        W19498   7.379   9.632   1.594  0.1848 -0.1384  0.2044
 4368W        W19499  13.688   3.710  15.488 -0.1339  0.1755 -0.0231
 4369W        W19500   6.653  13.487   5.986 -0.1397  0.1241  0.1265
 4370W        W19501  16.966   7.466   2.251 -0.0725 -0.2947 -0.1559
 4371W        W19502   5.314  10.667  14.381 -0.2677  0.1857 -0.1242
 4372W        W19503   1.615  17.211   3.521 -0.2851 -0.2572  0.2060
 4373W        W19504  18.197  17.549  11.613  0.0076  0.3559  0.0284
 4374W        W19505   3.356   6.321   9.579 -0.3241  0.1040  0.0508
 4375W        W19506  14.072  16.134   4.565  0.1274 -0.0693  0.0736
 4376W        W19507   9.037   9.043   2.313 -0.0556 -0.1172 -0.1450
 4377W        W19508   0.959   0.396   2.003 -0.0012 -0.1812 -0.1418
 4378W        W19509   2.890   9.650   0.164  0.0625  0.1793 -0.1427
 4379W        W19510   2.675  12.789   9.953 -0.1815  0.1763 -0.2135
 4380W        W19511   7.051   5.106   3.442 -0.2861 -0.0254 -0.0781
 4381W        W19512   0.370  10.298  14.487  0.0214  0.2511  0.3271
 4382W        W19513   2.788   7.967   1.276 -0.0527 -0.1519 -0.1182
 4383W        W19514  12.835   6.515   3.702 -0.2285  0.0055 -0.0984
 4384W        W19515   2.681   2.328  12.749  0.2017 -0.2616 -0.0881
 4385W        W19516  16.373   4.395   0.003 -0.2244 -0.0440 -0.1051
 4386W        W19517  12.461  17.549  13.563  0.2636  0.3462  0.1427
 4387W        W19518   8.773   1.066   3.617  0.1362  0.0964 -0.1225
 4388W        W19519   4.516   0.112  15.402 -0.0903 -0.1542  0.0654
 4389W        W19520  10.542   5.634  11.216  0.2010  0.0748 -0.0941
 4390W        W19521  15.264   8.462   0.019 -0.2492 -0.0108 -0.0639
 4391W        W19522   9.391  17.124  13.601 -0.1016 -0.2217  0.2789
 4392W        W19523  13.540  10.385   1.420 -0.1201 -0.1302  0.4055
 4393W        W19524   7.611   1.486  15.013  0.0751 -0.0333  0.0765
 4394W        W19525   3.528   3.713  14.253  0.2492  0.0278 -0.0752
 4395W        W19526   5.643   8.240  14.893 -0.0879 -0.3194 -0.0369
 4396W        W19527  11.964   4.138   3.453  0.0071  0.1665 -0.0932
 4397W        W19528   3.996   4.455   3.203 -0.0131  0.0694 -0.1217
 4398W        W19529  11.009  18.266  10.225  0.1252  0.1512  0.0942
 4399W        W19530  15.424   2.397   4.738 -0.3334  0.2433 -0.0392
 4400W        W19531  16.043  10.604  12.106 -0.4052 -0.0995  0.3470
 4401W        W19532  14.176  10.801  12.857 -0.0211 -0.2695 -0.0221
 4402W        W19533   1.957  17.396   2.056  0.1911 -0.1462  0.0980
 4403W        W19534   7.136   8.799   1.286  0.0409  0.0275  0.1706
 4404W        W19535   4.494   3.912   9.329  0.2773 -0.2447 -0.3728
 4405W        W19536   5.133   5.588  10.656 -0.1051  0.2537 -0.0231
 4406W        W19537   8.160  12.987   4.606 -0.0888  0.2094 -0.0399
 4407W        W19538  14.769  17.617   5.194 -0.1313  0.3907  0.1223
 4408W        W19539  13.927   8.073  12.039  0.3038 -0.2086  0.1402
 4409W        W19540   0.098  14.875   2.520  0.0359  0.2172 -0.0562
 4410W        W19541   4.437   9.484  12.835  0.2485  0.3203  0.0631
 4411W        W19542  18.277  16.452   3.512  0.1330  0.1148  0.1082
 4412W        W19543  16.754   4.498   3.413  0.0257 -0.0783  0.0603
 4413W        W19544  18.507  17.625   3.895  0.0331 -0.0025 -0.1733
 4414W        W19545   1.827  15.474   4.093  0.1100  0.1133 -0.1893
 4415W        W19546   4.771  13.825  12.416 -0.2123 -0.0595  0.0492
 4416W        W19547  17.979   8.413   4.778  0.2755  0.1672  0.0227
 4417W        W19548  13.685  13.834  13.679 -0.5282 -0.1574  0.2188
 4418W        W19549   8.919   8.070  12.549 -0.4089  0.3567 -0.3220
 4419W        W19550   7.628  15.838  11.054 -0.0322 -0.1745  0.3181
 4420W        W19551   5.645   8.840   2.750  0.2999 -0.0497 -0.1719
 4421W        W19552  15.091  17.588   3.674  0.2405 -0.0407  0.1236
 4422W        W19553  11.530   9.690  14.344  0.3286  0.2597  0.2138
 4423W        W19554   8.414   7.015  13.423  0.4114 -0.1431  0.0499
 4424W        W19555  14.383   9.861  10.643 -0.1411 -0.2707 -0.0140
 4425W        W19556  16.553   4.243  11.835  0.0308 -0.0531  0.2376
 4426W        W19557  14.139  16.849   0.235  0.0840  0.0404  0.2256
 4427W        W19558  13.951  18.638  11.846 -0.1045 -0.3775  0.4204
 4428W        W19559   3.184  14.763   2.955 -0.0635  0.2698  0.0683
 4429W        W19560   5.591  11.758   2.173 -0.2682 -0.0730  0.5641
 4430W        W19561   0.590   5.863   3.223 -0.0636  0.0673  0.1158
 4431W        W19562   3.038  11.229   2.644  0.2136 -0.2183 -0.1472
 4432W        W19563  14.483   6.242   1.369  0.1146  0.0434 -0.0172
 4433W        W19564  17.539   5.282  14.078 -0.3799 -0.3163  0.1599
 4434W        W19565   7.305   5.706  12.068 -0.1107 -0.3650  0.1728
 4435W        W19566   2.566  17.543  10.008  0.2610  0.1219  0.0746
 4436W        W19567  11.632  17.695  12.404  0.3407  0.0379  0.1730
 4437W        W19568   9.930   3.911   1.255  0.1543  0.2131 -0.1529
 4438W        W19569   4.302  13.061  14.237  0.3249  0.0521  0.0490
 4439W        W19570  17.565  17.292  11.832  0.0367  0.0029 -0.1724
 4440W        W19571   5.866  10.433   9.763 -0.0410 -0.0732  0.2283
 4441W        W19572   2.332   3.153   2.108 -0.0538  0.2325  0.1265
 4442W        W19573   7.065   1.524   2.354  0.1441 -0.2035 -0.5103
 4443W        W19574   5.837   3.028  11.806 -0.0527  0.0513 -0.0470
 4444W        W19575  12.940   4.572  13.416 -0.2390  0.1079 -0.0064
 4445W        W19576   5.188  12.542  14.900 -0.2804 -0.3285 -0.0130
 4446W        W19577   3.019  17.453  14.661  0.1333 -0.1202  0.2613
 4447W        W19578   2.339  11.455  13.953 -0.0119 -0.0866 -0.0697
 4448W        W19579  13.049   9.462   5.169 -0.0893 -0.0623 -0.0768
 4449W        W19580  17.014  16.968  14.417 -0.0289  0.2311  0.0059
 4450W        W19581  10.812  15.875  11.998  0.1733  0.1436 -0.2686
 4451W        W19582  18.052   5.041  15.460 -0.2014  0.2775 -0.0474
 4452W        W19583  13.627  14.736   1.316  0.0694 -0.0272 -0.2244
 4453W        W19584   8.397   1.086   1.313  0.1469 -0.2436 -0.0427
 4454W        W19585   9.793   3.192   9.549 -0.2465 -0.0540 -0.3062
 4455W        W19586  10.421   8.347  11.560  0.1146 -0.0383 -0.2901
 4456W        W19587  11.845  14.473   3.151  0.0332 -0.0467 -0.0981
 4457W        W19588   7.120  18.307   5.326 -0.0000  0.1303  0.0801
 4458W        W19589  14.289   3.266   1.519 -0.0669 -0.1471 -0.0372
 4459W        W19590   3.508  12.812   2.997 -0.3776  0.1304  0.4713
 4460W        W19591  10.638   1.217   3.940  0.0652 -0.2622 -0.1828
 4461W        W19592   9.324  14.992  13.792 -0.1554 -0.1673  0.0106
 4462W        W19593   2.663  12.650  15.008 -0.0844 -0.0375  0.3503
 4463W        W19594   5.548  11.699   0.171 -0.0723 -0.2254 -0.1151
 4464W        W19595  12.170  16.413   0.918  0.1537 -0.0354  0.2135
 4465W        W19596  13.860  14.833   1.802  0.0767 -0.1769  0.3321
 4466W        W19597  16.163   2.106   3.056  0.1489  0.1293 -0.0683
 4467W        W19598  15.680  13.374  10.729 -0.2410 -0.0746 -0.0732
 4468W        W19599   9.238  18.114  13.197 -0.0478 -0.2374  0.0331
 4469W        W19600   7.044  16.584   2.773 -0.0916 -0.0824 -0.2981
 4470W        W19601  12.257   1.524  12.520  0.3800 -0.0754 -0.2972
 4471W        W19602  16.528  15.841   3.099 -0.2858 -0.0943  0.0071
 4472W        W19603   2.459   6.590  15.733  0.0310 -0.0085 -0.2382
 4473W        W19604  18.498  16.867   2.725  0.1288  0.0235  0.0316
 4474W        W19605   6.256   5.010   3.436 -0.2041 -0.0326 -0.2497
 4475W        W19606  10.899  14.836   4.231 -0.0065  0.1755  0.2140
 4476W        W19607  11.629   0.253  15.491 -0.0029  0.2474  0.2844
 4477W        W19608   0.728   5.372   4.224 -0.4457 -0.0744  0.0566
 4478W        W19609  10.171   7.934  14.198  0.5118 -0.2470 -0.0587
 4479W        W19610   6.982   5.004  15.474  0.5023 -0.1998 -0.1233
 4480W        W19611   8.121  13.422   0.768 -0.0720 -0.1846  0.0199
 4481W        W19612  12.980   1.192   4.010  0.0193  0.1864 -0.0336
 4482W        W19613  14.711   7.370  11.087 -0.0557  0.0663  0.0890
 4483W        W19614   2.926  13.488   1.875 -0.0033  0.7404  0.2766
 4484W        W19615  12.642  18.741  11.485 -0.1517  0.0536 -0.2610
 4485W        W19616  16.524  17.681  10.286  0.1630 -0.1961  0.2341
 4486W        W19617   9.140  18.106  14.091 -0.3455  0.4612  0.0609
 4487W        W19618   5.168   9.546  13.764  0.2182  0.2548 -0.0084
 4488W        W19619   0.180  12.521   1.592  0.1263 -0.0329  0.1001
 4489W        W19620  15.257   5.030   2.088  0.1158  0.3130 -0.0339
 4490W        W19621   6.011   8.254   5.399 -0.1129 -0.0704 -0.1978
 4491W        W19622   7.166  17.873   2.641 -0.1682  0.1256 -0.0725
 4492W        W19623  10.408   0.361   4.333  0.1305 -0.2372 -0.3118
 4493W        W19624   2.498   2.118   4.363 -0.0759 -0.1306  0.0897
 4494W        W19625   7.783  11.268   0.035  0.2477  0.0411 -0.1175
 4495W        W19626  12.243   4.632  10.596  0.4665 -0.0829 -0.0693
 4496W        W19627  15.893  11.889   4.353 -0.4165 -0.0894 -0.3446
 4497W        W19628   3.716   8.913   1.678 -0.0145 -0.1017  0.0548
 4498W        W19629   8.954   0.011   5.966  0.0944 -0.1492  0.0883
 4499W        W19630   4.890   5.181   2.731 -0.4265 -0.2162  0.4076
 4500W        W19631   2.660   5.173   1.882  0.0620  0.1167 -0.0609
 4501W        W19632   8.883  17.161  13.664 -0.1652 -0.0282  0.0723
 4502W        W19633   9.642  15.510  10.779 -0.1904 -0.1055  0.1853
 4503W        W19634  17.711  14.783   1.170 -0.0405  0.3840  0.0075
 4504W        W19635   5.245   1.988  10.571  0.0349 -0.0050 -0.2472
 4505W        W19636   0.348   5.228   1.003  0.1435 -0.0230 -0.1520
 4506W        W19637   1.959  13.551  12.551 -0.0675 -0.0189 -0.1280
 4507W        W19638  14.163   2.840   0.633  0.0288  0.2701 -0.0870
 4508W        W19639   7.524   7.564  13.354  0.0391  0.0445 -0.1447
 4509W        W19640   7.114   2.030   2.156 -0.2063  0.2443  0.3758
 4510W        W19641   5.404   3.509   1.846  0.0449 -0.2383 -0.0141
 4511W        W19642  15.030  12.552   0.374 -0.1035  0.1022  0.5230
 4512W        W19643  15.661  14.310  12.215  0.0152 -0.2344  0.1296
 4513W        W19644  17.793   6.597   2.146  0.0462  0.1027  0.2138
 4514W        W19645   9.569  11.739   3.388 -0.0641 -0.2791  0.1826
 4515W        W19646   0.875  16.489  11.735 -0.0944 -0.2117  0.1480
 4516W        W19647   2.681  18.023   4.189  0.2374 -0.0727  0.0852
 4517W        W19648   5.855  16.138  15.349  0.1534 -0.3083 -0.2109
 4518W        W19649   2.345  17.617   4.107  0.0030 -0.0903  0.1353
 4519W        W19650  10.852   4.582   0.537  0.5391  0.1095 -0.0662
 4520W        W19651  18.140  12.027  13.378  0.3468 -0.0558 -0.1335
 4521W        W19652   2.736  11.219   3.162  0.0396  0.0440  0.0756
 4522W        W19653   6.473  15.493   3.168 -0.1505  0.3370  0.3559
 4523W        W19654   0.952  17.861  13.337 -0.3283  0.1434 -0.3321
 4524W        W19655  17.886  18.029   2.532 -0.2979 -0.3096  0.3333
 4525W        W19656  16.776  11.617  12.177  0.0500 -0.0791 -0.3592
 4526W        W19657   3.062  16.184   0.168  0.0322 -0.1664  0.1905
 4527W        W19658  12.208   5.666  14.131  0.1346 -0.0398 -0.2253
 4528W        W19659  12.036  18.157   4.546  0.1943 -0.3563 -0.1680
 4529W        W19660   7.486  18.622   1.562 -0.1381 -0.0543 -0.0505
 4530W        W19661  16.816   4.822   2.237 -0.4119 -0.1270 -0.0516
 4531W        W19662   0.426   1.445  12.294  0.0287 -0.3697  0.0837
 4532W        W19663   7.268   9.012  11.656 -0.0777  0.1298 -0.1507
 4533W        W19664   8.751  13.025  12.276  0.2328  0.0396 -0.1412
 4534W        W19665   3.611  13.666  10.799 -0.2561 -0.1379 -0.1069
 4535W        W19666   2.042   6.963   3.252  0.2708  0.0120 -0.1212
 4536W        W19667   7.091   7.354   5.558  0.1622  0.2577 -0.0309
 4537W        W19668   9.182  14.565   0.654  0.3129  0.0912 -0.1830
 4538W        W19669  13.402   4.103   1.177 -0.2379 -0.0039 -0.0028
 4539W        W19670   2.457  11.089   1.001 -0.4073  0.4089  0.2278
 4540W        W19671  18.316   9.837   1.280 -0.0253  0.2383  0.2569
 4541W        W19672   3.994   4.077   0.116 -0.1581 -0.0999  0.2750
 4542W        W19673  16.869   0.085  15.480  0.0985 -0.1968  0.1695
 4543W        W19674  17.466   4.439   4.944  0.1474 -0.0576 -0.0618
 4544W        W19675   1.132  10.224   1.027  0.3058 -0.1123 -0.0155
 4545W        W19676  11.499  10.810   3.412 -0.3853  0.2887 -0.1046
 4546W        W19677  10.465  10.864  12.333 -0.2112  0.1812 -0.3430
 4547W        W19678  18.063   0.604  14.314 -0.0189  0.1944  0.1496
 4548W        W19679  15.673  15.835  12.058  0.2329  0.2828 -0.2360
 4549W        W19680  17.088   3.480  14.325 -0.2252  0.2309 -0.2201
 4550W        W19681   8.617  13.470   0.990  0.1650  0.3911 -0.2194
 4551W        W19682  13.750   6.516  11.589 -0.3051  0.0841 -0.0732
 4552W        W19683  18.110  12.500  14.116  0.0883 -0.0272  0.3042
 4553W        W19684  15.026   3.743   3.687  0.2200 -0.0838 -0.1043
 4554W        W19685  11.538   5.264  10.851 -0.1516 -0.3360 -0.7201
 4555W        W19686  13.687   3.760  14.214 -0.0037 -0.0873 -0.4175
 4556W        W19687   3.996  17.294  11.147  0.1718 -0.1159 -0.1588
 4557W        W19688  15.080   4.444   1.755 -0.0465 -0.2723  0.0242
 4558W        W19689  11.578   1.785  10.764 -0.0752 -0.1934 -0.2104
 4559W        W19690   7.858  11.594   2.627  0.1091  0.0764  0.0535
 4560W        W19691   1.016   0.764   4.860 -0.2784 -0.1448  0.0598
 4561W        W19692   2.694   4.281   3.236  0.0285  0.0396 -0.0638
 4562W        W19693   6.717   2.650   3.625  0.4454  0.0971 -0.2391
 4563W        W19694  16.206   2.082  11.192 -0.1283 -0.1081  0.3587
 4564W        W19695   6.520  16.809   2.077 -0.1794 -0.0105 -0.0777
 4565W        W19696  11.910  15.759  15.603  0.0707 -0.0599  0.0049
 4566W        W19697   1.997  10.816   0.165 -0.3407 -0.1158 -0.0447
 4567W        W19698   6.588  17.438   0.951  0.1088 -0.2159  0.0041
 4568W        W19699   1.194  13.914  10.816  0.2889  0.2567 -0.3003
 4569W        W19700   2.857   8.211  13.513 -0.1856  0.2970  0.2417
 4570W        W19701  10.315   9.386   1.036  0.0667  0.0233 -0.0649
 4571W        W19702   8.212  15.413  11.613  0.1641  0.0265 -0.1549
 4572W        W19703  11.670  16.939  11.793  0.0774 -0.1435 -0.2095
 4573W        W19704   4.650  11.222  15.323 -0.3263 -0.0825  0.1703
 4574W        W19705   7.337   9.187  15.456 -0.1205 -0.0147  0.0338
 4575W        W19706   8.142   9.297   3.278 -0.3481  0.0355 -0.2329
 4576W        W19707   5.293   8.656  12.578 -0.2567  0.0022  0.0439
 4577W        W19708  14.429   3.167   0.878  0.0534 -0.1410  0.0584
 4578W        W19709  10.168   7.052   1.623 -0.3664 -0.1546  0.1106
 4579W        W19710  18.568  13.863  15.726 -0.1308 -0.3119 -0.2196
 4580W        W19711   4.147   7.557   1.698  0.2997 -0.0220  0.3506
 4581W        W19712   3.861   1.096   4.063  0.0911  0.1728  0.0063
 4582W        W19713  15.342  12.336   2.924  0.4039 -0.0667  0.3722
 4583W        W19714  12.005   4.632  11.141  0.0586  0.0167  0.0091
 4584W        W19715   4.859   4.573  15.566 -0.0270  0.0653  0.3404
 4585W        W19716  14.037   0.090   4.012 -0.2362  0.0281 -0.0343
 4586W        W19717   4.717   0.911   0.094  0.1557  0.0822  0.0424
 4587W        W19718   1.621  12.550  11.059  0.0376  0.1580  0.0099
 4588W        W19719  10.286   7.928  12.713 -0.1250 -0.0204  0.1351
 4589W        W19720   7.142   7.839   2.346 -0.1576 -0.2281 -0.0564
 4590W        W19721   9.112   6.800   5.129  0.0763 -0.0078 -0.3476
 4591W        W19722  10.628  14.258  12.282  0.0916 -0.1778  0.0157
 4592W        W19723   4.230  14.442  14.453  0.2111 -0.0203 -0.0519
 4593W        W19724  12.019   2.026  14.465  0.1073 -0.1513 -0.2877
 4594W        W19725  12.235   7.185  13.605  0.3241  0.3084 -0.3325
 4595W        W19726   3.741   9.559  10.499 -0.2930  0.1284  0.0570
 4596W        W19727  16.475   2.548   1.284 -0.0350  0.3619 -0.0555
 4597W        W19728   0.452  17.602  14.846 -0.0004 -0.1953  0.2572
 4598W        W19729   6.996   1.488   4.354 -0.2792  0.2732  0.1061
 4599W        W19730   4.041  18.135   1.478  0.1356  0.0473  0.1466
 4600W        W19731   3.573  14.445  14.411  0.3133  0.0529 -0.0456
 4601W        W19732  10.441   0.191   0.657  0.4496  0.0385 -0.2608
 4602W        W19733   2.744  12.583   2.710 -0.2599  0.0091  0.0897
 4603W        W19734   4.085  15.414   2.286 -0.0465 -0.0318 -0.0338
 4604W        W19735   1.930   5.562   3.028  0.2480  0.2748 -0.0774
 4605W        W19736   2.377  18.601  14.976  0.0019 -0.0656  0.0147
 4606W        W19737  14.041   4.090  13.708 -0.0320  0.0396  0.3251
 4607W        W19738   4.403   5.004  14.258 -0.1663  0.2879 -0.0276
 4608W        W19739   9.799   3.192  12.649  0.2541 -0.0448 -0.2903
 4609W        W19740  16.471  10.811   4.977  0.1266  0.0664  0.0986
 4610W        W19741   4.077  13.572   0.314  0.3768  0.3787 -0.0337
 4611W        W19742   8.342   7.619   5.046  0.0697 -0.1850  0.5220
 4612W        W19743   0.460  11.694  10.884 -0.0352 -0.4447 -0.0983
 4613W        W19744   3.847  13.502   1.275 -0.0344 -0.0418  0.0342
 4614W        W19745  11.073   8.537   2.732  0.0738  0.0967 -0.2985
 4615W        W19746  17.373   1.481   2.798 -0.0871 -0.1687  0.1013
 4616W        W19747  12.642  17.599  15.551  0.2078 -0.0453  0.1296
 4617W        W19748   2.428   4.311   1.290  0.0970 -0.0855 -0.2047
 4618W        W19749  11.723   0.714  15.658  0.2757  0.0132  0.3097
 4619W        W19750   7.208   9.159   1.651  0.0387  0.2313 -0.4149
 4620W        W19751  11.548   2.965   0.726  0.0085  0.0839  0.3287
 4621W        W19752   4.516   2.768  14.118  0.2100 -0.2375  0.0434
 4622W        W19753  15.044  15.246  12.443  0.1275  0.2035  0.1573
 4623W        W19754  16.114  17.401   5.152  0.1436  0.4770 -0.0251
 4624W        W19755  12.732  11.764   1.723 -0.0595 -0.2783 -0.2094
 4625W        W19756   7.298  10.410  11.571 -0.1407  0.0912  0.0932
 4626W        W19757   0.910   6.606  15.249 -0.4561 -0.1904  0.0043
 4627W        W19758   5.795  16.815  13.273  0.4017  0.0512 -0.2427
 4628W        W19759  12.606   3.316   3.063 -0.1659 -0.2062  0.1052
 4629W        W19760   9.710  14.400   3.853 -0.0195  0.3170  0.1984
 4630W        W19761   7.489  14.039  15.654  0.1769 -0.2007 -0.0840
 4631W        W19762  10.585   6.853   4.607  0.2068  0.0510  0.0874
 4632W        W19763   3.343   2.373  11.108  0.4211  0.1513 -0.0957
 4633W        W19764  10.704   0.897  15.251 -0.0628  0.0718  0.2576
 4634W        W19765   7.371  16.676   2.396  0.1893 -0.3207  0.1579
 4635W        W19766   4.652  17.845  10.408 -0.2126 -0.0274 -0.1913
 4636W        W19767  15.728   0.912  11.202 -0.1975 -0.1453  0.0018
 4637W        W19768   4.364   5.417  15.409 -0.2497  0.0188 -0.1763
 4638W        W19769   4.644   9.894   2.973  0.0108 -0.0535 -0.1894
 4639W        W19770  16.926   1.902  11.419 -0.0905 -0.0367 -0.0190
 4640W        W19771   3.309   0.758  12.492 -0.0438 -0.0080  0.2020
 4641W        W19772  15.071  14.041   0.308  0.1730  0.1697  0.6415
 4642W        W19773  13.427  10.269   0.299 -0.0373  0.2136 -0.2174
 4643W        W19774   5.806   2.150  15.396 -0.0411 -0.1866 -0.0719
 4644W        W19775   4.224  13.851   4.739  0.0309 -0.2940  0.2191
 4645W        W19776   1.917   5.446  10.357  0.1250 -0.2708  0.2568
 4646W        W19777  17.895   1.652  11.147  0.2121  0.2096  0.1429
 4647W        W19778   3.601  15.875   1.816  0.3319  0.0509  0.1421
 4648W        W19779   0.626  11.459  15.153  0.0380 -0.1053  0.1304
 4649W        W19780  15.160   3.554  13.428 -0.0488  0.0979  0.1941
 4650W        W19781   0.861  17.219  12.343 -0.3888  0.1691 -0.1064
 4651W        W19782  13.915   4.591  12.547  0.3309 -0.0610 -0.0593
 4652W        W19783  10.535  13.227  13.826 -0.3952  0.1413 -0.0403
 4653W        W19784   9.077  16.026   3.099 -0.0431  0.0122 -0.1224
 4654W        W19785   8.143   2.557   4.227  0.0300 -0.2775 -0.0234
 4655W        W19786  10.847  12.171   5.628  0.2760 -0.2917  0.1896
 4656W        W19787  10.156  13.644  13.830 -0.0893  0.0741  0.1074
 4657W        W19788   8.780   8.867  15.143 -0.0324 -0.0219 -0.1079
 4658W        W19789   3.951  13.314  13.761  0.3222  0.2226  0.2803
 4659W        W19790   3.958   1.505   1.068 -0.0763 -0.1868 -0.1223
 4660W        W19791   7.835  17.957  14.237  0.0314  0.1183  0.2336
 4661W        W19792  17.152  15.430  11.857 -0.1685  0.1278  0.2253
 4662W        W19793   8.223  12.693  12.847  0.1133 -0.0083  0.1699
 4663W        W19794  15.181  13.993   4.482  0.2653  0.0886 -0.0908
 4664W        W19795  13.965  18.359  15.223  0.0237  0.3702 -0.0529
 4665W        W19796  13.680  14.024   4.280  0.0946 -0.0740  0.1481
 4666W        W19797   1.113  16.193  13.820  0.1848  0.2712 -0.2602
 4667W        W19798   7.320   4.024  11.491 -0.1325  0.1379  0.3124
 4668W        W19799   0.817   8.363  13.280  0.2767  0.1840 -0.0060
 4669W        W19800  11.920   6.205   1.693  0.2027  0.2437 -0.3724
 4670W        W19801  10.386  16.013   1.370  0.1059 -0.3557 -0.0141
 4671W        W19802  18.361   3.292  13.579  0.0771  0.0431 -0.0922
 4672W        W19803   9.613  17.065  12.628 -0.2898 -0.2771 -0.1363
 4673W        W19804  13.256   3.687   3.315  0.0582  0.0372 -0.2014
 4674W        W19805   7.905  16.681  14.895 -0.0621 -0.3384 -0.1114
 4675W        W19806   1.447  17.345   1.719  0.1521  0.2270 -0.0200
 4676W        W19807   9.232   1.894  11.237 -0.2472 -0.3780 -0.3052
 4677W        W19808   3.932  15.550   2.715 -0.2219  0.0335  0.0928
 4678W        W19809  15.721  10.312  11.813 -0.1672 -0.2342  0.2015
 4679W        W19810  10.873  12.323   2.693  0.1901 -0.0938  0.5554
 4680W        W19811  17.566  14.662   5.241  0.0968  0.2007  0.0924
 4681W        W19812   9.958   9.744   1.387 -0.0881  0.5229 -0.1165
 4682W        W19813  10.999  16.138  11.668  0.1845  0.1264  0.0617
 4683W        W19814  14.333   3.836  10.750 -0.0263 -0.2750 -0.0343
 4684W        W19815   8.697   2.470  14.523  0.1452  0.3531 -0.0390
 4685W        W19816  13.937   9.589   5.320 -0.0991 -0.5843 -0.2441
 4686W        W19817   4.638   8.421   1.225  0.1315  0.2804 -0.1449
 4687W        W19818  13.924   1.675  11.867 -0.1293  0.3027 -0.3620
 4688W        W19819  17.419  16.950   2.707 -0.0640 -0.2454 -0.0140
 4689W        W19820   8.829   5.421   2.589  0.0800  0.0813  0.0267
 4690W        W19821   7.016  11.587   4.960  0.1630 -0.1135  0.0958
 4691W        W19822   2.916  12.665  15.402  0.2933  0.1001 -0.1036
 4692W        W19823  15.555  14.103  15.115 -0.3703  0.2197  0.0026
 4693W        W19824   4.322  16.042  13.942  0.3821  0.1324  0.2146
 4694W        W19825  11.907   3.546   1.193  0.4076 -0.0284  0.3425
 4695W        W19826   1.878   9.463  15.155 -0.1438 -0.0457 -0.0405
 4696W        W19827   3.500   2.089  10.700  0.1508  0.2384 -0.1487
 4697W        W19828   2.740   6.901  10.709  0.2626  0.1165  0.0827
 4698W        W19829   8.771   7.733  14.074  0.3152 -0.1055  0.1966
 4699W        W19830   0.746   5.249   1.628 -0.2134 -0.0443 -0.0704
 4700W        W19831  14.488  17.823  11.758  0.0110 -0.1227  0.0973
 4701W        W19832   9.222  17.858  10.242 -0.2491 -0.0730  0.2802
 4702W        W19833  16.203   6.673  14.747  0.0871  0.0245  0.4116
 4703W        W19834  10.901   3.609   0.980 -0.1446  0.3324 -0.1013
 4704W        W19835   6.757  17.346  15.346  0.0548 -0.1841 -0.3682
 4705W        W19836   5.752  15.391  12.115 -0.0015  0.0949  0.1617
 4706W        W19837   7.435  12.978  12.178  0.2036  0.1917  0.1124
 4707W        W19838   8.812  17.273  15.011  0.1485 -0.1384  0.5621
 4708W        W19839  15.929  13.712   1.902 -0.0056 -0.0847 -0.1301
 4709W        W19840   2.812   6.927   9.517  0.0590  0.4541 -0.0295
 4710W        W19841  13.699   0.356   5.423 -0.3049  0.0168  0.1099
 4711W        W19842  16.137   1.275  14.735  0.1373 -0.0225 -0.2315
 4712W        W19843   3.172  12.762   1.311  0.1192 -0.0462 -0.0170
 4713W        W19844  15.661   9.715  11.262  0.2021  0.1749  0.0232
 4714W        W19845   2.411  13.687   4.097  0.5305  0.3297  0.1988
 4715W        W19846   6.966  16.928   4.619 -0.0429 -0.2851  0.1881
 4716W        W19847   9.181   7.374   2.543 -0.2581 -0.5616 -0.1685
 4717W        W19848  12.230   4.336   0.035  0.4987  0.0514 -0.3910
 4718W        W19849   7.381   3.588  11.589  0.1388  0.0608 -0.0964
 4719W        W19850  11.196   9.590   4.179 -0.0533 -0.0409 -0.3065
 4720W        W19851  13.972   7.506   3.655 -0.2645  0.0545 -0.0431
 4721W        W19852  13.297  13.872   1.594  0.3767 -0.2282 -0.0366
 4722W        W19853   8.277   6.339   4.227  0.2435  0.0417  0.1919
 4723W        W19854   4.683   6.135  11.098  0.2157 -0.1565 -0.0435
 4724W        W19855  11.362   7.971  13.618  0.4337  0.2923  0.0203
 4725W        W19856  17.023  11.517  12.756  0.1719 -0.1492  0.1657
 4726W        W19857   9.754   5.840  12.308 -0.0209 -0.0920  0.0670
 4727W        W19858  17.223  10.311  12.983 -0.1812 -0.2300  0.0535
 4728W        W19859  11.215   2.832  13.055  0.0871  0.0195  0.1204
 4729W        W19860   8.676  16.961   4.892 -0.2300 -0.1992 -0.1911
 4730W        W19861  10.041   7.791  13.140  0.1821 -0.1371 -0.1677
 4731W        W19862   8.528  10.662  12.724  0.0042  0.2686 -0.2479
 4732W        W19863  15.269   7.532  11.356  0.0757 -0.0796 -0.0526
 4733W        W19864  14.456  15.723   2.380  0.2476 -0.1002  0.1161
 4734W        W19865  14.774  13.436  11.629 -0.4268  0.1475 -0.1012
 4735W        W19866  13.619  12.175  13.270 -0.2709 -0.1136 -0.1075
 4736W        W19867   0.483  18.181   0.743 -0.3851 -0.0922 -0.0934
 4737W        W19868   8.522   4.017   0.015  0.1901 -0.3225 -0.0556
 4738W        W19869  11.490  13.942  11.590 -0.3272  0.0142  0.1319
 4739W        W19870  14.668  17.056  14.723 -0.0430 -0.1480 -0.1042
 4740W        W19871  14.358   2.129   4.325  0.2188 -0.5352  0.0421
 4741W        W19872   9.318   7.149   1.123  0.0155 -0.1004  0.0700
 4742W        W19873  14.544  12.919  14.995  0.0058  0.0366 -0.0841
 4743W        W19874   4.524  14.385   3.984 -0.1924  0.2532 -0.0237
 4744W        W19875  12.476  11.961   2.094  0.2094  0.0896 -0.0443
 4745W        W19876   4.306   4.631   5.938 -0.0886  0.2564 -0.1046
 4746W        W19877   5.082   4.932  10.883 -0.2137 -0.2671 -0.1778
 4747W        W19878   6.808  11.354   1.189 -0.0390 -0.0338  0.1097
 4748W        W19879   6.785   6.889   2.984  0.0263  0.2607 -0.0712
 4749W        W19880   3.184   9.324  15.670  0.5643 -0.4931 -0.1206
 4750W        W19881  17.549   9.526  11.140  0.3260 -0.0218  0.1599
 4751W        W19882   3.457  17.202   2.292 -0.0304  0.5532  0.1790
 4752W        W19883   4.229   8.106   3.312  0.0470 -0.0523 -0.0925
 4753W        W19884  18.044  16.750  12.320 -0.0087 -0.2274 -0.0737
 4754W        W19885   2.779  18.692   5.050  0.2081 -0.0154  0.0080
 4755W        W19886  15.243  17.536  13.474 -0.2460  0.3783 -0.2083
 4756W        W19887   7.099  11.189   3.734  0.0332  0.2018  0.1950
 4757W        W19888   3.730  17.128  10.766  0.0769 -0.0617  0.1863
 4758W        W19889   6.300  17.070  13.102  0.2046  0.4088 -0.4244
 4759W        W19890   6.361  13.640  11.383 -0.2294 -0.1599 -0.2996
 4760W        W19891  12.521   3.049   5.593 -0.0610  0.4859  0.1575
 4761W        W19892  13.105   6.741  11.317 -0.3264  0.3460 -0.0375
 4762W        W19893   9.002   0.362   2.636  0.0545 -0.0548 -0.0657
 4763W        W19894   6.500  16.441  12.897 -0.0346  0.1999  0.2638
 4764W        W19895   6.914   8.618   5.515  0.0213 -0.2394 -0.2374
 4765W        W19896  16.703  17.585   0.381 -0.0108 -0.2525 -0.4484
 4766W        W19897  13.638   0.267  11.823 -0.1933  0.1780 -0.1052
 4767W        W19898   8.383  15.654   0.875  0.1849  0.1251 -0.1258
 4768W        W19899  14.355   2.624  13.045 -0.2524 -0.1247 -0.0937
 4769W        W19900   3.596   3.319   3.723  0.1105 -0.3262 -0.0474
 4770W        W19901   6.139  14.817  13.015 -0.1034  0.0138  0.0444
 4771W        W19902  13.185  11.461  15.264 -0.1722  0.0076  0.0427
 4772W        W19903  17.635   7.097  15.709  0.2643  0.2116  0.0679
 4773W        W19904   2.285  17.192   2.483 -0.2633  0.0316  0.0226
 4774W        W19905  10.362  15.847   4.957 -0.2179  0.0991 -0.1404
 4775W        W19906  18.109   3.312   1.751 -0.0032  0.0109  0.3959
 4776W        W19907   6.971  10.067  15.049  0.0315 -0.1481 -0.1368
 4777W        W19908   3.076   4.218   2.889  0.2632 -0.3231 -0.4176
 4778W        W19909   3.958   3.032  12.053 -0.3563 -0.1012 -0.3215
 4779W        W19910   2.222   7.685  10.221 -0.0574 -0.3679 -0.0161
 4780W        W19911   1.752   2.982  10.635 -0.1829  0.2108  0.1202
 4781W        W19912  10.003  11.724   0.534  0.2345 -0.1628 -0.1202
 4782W        W19913   2.665   9.427   3.367 -0.1939  0.3008  0.1847
 4783W        W19914   6.584  13.669  13.347  0.2226  0.1746 -0.2079
 4784W        W19915  11.327   9.922   2.723 -0.1213  0.2186 -0.1825
 4785W        W19916  18.154   9.661  15.087  0.2850 -0.3461  0.0785
 4786W        W19917  14.744   1.744  15.393  0.1419 -0.3281  0.2277
 4787W        W19918  10.870  14.293  11.814 -0.1948  0.1639 -0.2638
 4788W        W19919  14.249   6.324  13.337  0.2332  0.2563 -0.0338
 4789W        W19920   6.488   7.835   2.583 -0.2493 -0.3030  0.3068
 4790W        W19921   7.608   5.912  12.430 -0.1207 -0.4270 -0.2522
 4791W        W19922   8.133  16.583  14.492  0.0117 -0.1386 -0.0357
 4792W        W19923  12.511  17.166   3.948 -0.0604  0.1889 -0.3570
 4793W        W19924  13.844  11.174  14.224  0.1337 -0.2241 -0.1218
 4794W        W19925   1.291  13.613   2.989 -0.1400  0.1994 -0.1946
 4795W        W19926   9.535  11.457  10.648 -0.0157 -0.1069 -0.1467
 4796W        W19927   4.517   4.014   1.663 -0.1662  0.1960 -0.4273
 4797W        W19928  13.270   1.854   4.218 -0.0910 -0.2883 -0.0355
 4798W        W19929  12.972  13.444   1.627 -0.1524 -0.0513  0.3028
 4799W        W19930  12.245  11.333  14.347  0.0132 -0.2527  0.0193
 4800W        W19931  17.828  18.706   0.282  0.4133  0.4579  0.1289
 4801W        W19932   8.886   0.749   1.934  0.1571  0.0436  0.0014
 4802W        W19933  13.321   1.492   4.822  0.0225 -0.0677  0.4533
 4803W        W19934   7.149  18.071   2.133 -0.5039  0.0077 -0.2595
 4804W        W19935   0.809  15.612  11.286 -0.0162 -0.1227  0.0696
 4805W        W19936  16.102  10.634   3.171  0.2681 -0.0767  0.0611
 4806W        W19937  17.404   7.564   0.188  0.3565 -0.4121 -0.0672
 4807W        W19938  10.172   2.343  12.058 -0.4242 -0.3147  0.1481
 4808W        W19939  15.644   0.411  11.499 -0.1016  0.0975  0.0573
 4809W        W19940   4.792   6.969  11.438 -0.4154 -0.4076 -0.1923
 4810W        W19941   4.236  10.707  12.755  0.1584  0.1787 -0.4154
 4811W        W19942  14.252   1.358   1.592 -0.3215 -0.0721 -0.4057
 4812W        W19943  17.869  13.791   3.625 -0.2435  0.0043 -0.1426
 4813W        W19944   5.976   9.440   0.831  0.0293  0.2483 -0.0122
 4814W        W19945  14.330  16.635  12.921  0.0244  0.2023 -0.3439
 4815W        W19946   1.821  16.492   2.068 -0.0390  0.3404 -0.1275
 4816W        W19947  18.681   9.399  15.040 -0.1218  0.0541  0.2602
 4817W        W19948   4.183  17.040   1.584  0.1708 -0.0454  0.1684
 4818W        W19949  15.694   4.667   2.493  0.0915 -0.2848 -0.2611
 4819W        W19950   0.450   8.493  11.202  0.0684  0.0811 -0.0302
 4820W        W19951  14.417   1.352  11.775 -0.3304 -0.2053 -0.0259
 4821W        W19952  12.032   6.078  12.413  0.0457 -0.1002 -0.0579
 4822W        W19953   6.370   4.234   1.284  0.2848 -0.2070  0.0722
 4823W        W19954   4.413  16.165  12.273  0.4218  0.1044 -0.1182
 4824W        W19955   0.210  15.080  14.058  0.1003  0.0261 -0.0214
 4825W        W19956  15.485   5.144   2.559  0.0515 -0.0995  0.2077
 4826W        W19957   4.653  13.715  13.705 -0.0770  0.0438 -0.0815
 4827W        W19958  10.766   1.346  15.095  0.2038  0.0025  0.1704
 4828W        W19959   3.066   0.399  12.803 -0.0569  0.1592 -0.4145
 4829W        W19960  15.218  12.554   4.671  0.3346  0.2405 -0.2011
 4830W        W19961  10.730  11.442   0.344 -0.1477 -0.1079  0.1099
 4831W        W19962   6.547  11.203  12.156  0.1145 -0.3720 -0.1571
 4832W        W19963   5.572  11.948  12.814  0.0978  0.5204  0.0972
 4833W        W19964  17.184  18.644   4.764  0.0686  0.0475  0.1698
 4834W        W19965   7.502  13.654   1.496  0.3052  0.2579 -0.1566
 4835W        W19966  13.419  16.163  13.649  0.3710 -0.1742  0.0575
 4836W        W19967  14.049   1.451  14.952 -0.4209  0.0309 -0.1462
 4837W        W19968   2.275   0.747   4.346  0.0722  0.0047 -0.0989
 4838W        W19969  14.131  12.090   3.903 -0.2047 -0.1886  0.0415
 4839W        W19970   5.833   0.745   0.868  0.0115 -0.0678  0.2146
 4840W        W19971  10.065   6.334  13.638  0.1333 -0.0932 -0.1361
 4841W        W19972   4.362   7.542  14.761 -0.1592  0.1867 -0.1055
 4842W        W19973   7.339  16.077   3.520  0.2333 -0.0160  0.1748
 4843W        W19974   9.372  16.860   1.290 -0.0397  0.1779  0.0991
 4844W        W19975  18.302  12.726   4.765 -0.3258  0.1862 -0.0661
 4845W        W19976   7.922  17.839   4.079  0.1877 -0.0145  0.2630
 4846W        W19977  14.456   6.557  14.578 -0.0985 -0.0760 -0.1841
 4847W        W19978   9.197  15.961  13.712  0.0798  0.2381 -0.0493
 4848W        W19979  14.907   7.869   2.795 -0.1700  0.0051  0.1142
 4849W        W19980  15.627  15.037   0.191 -0.1402  0.0491 -0.0982
 4850W        W19981   2.781   0.990   2.952  0.0206 -0.1786 -0.0629
 4851W        W19982   0.376   3.050  13.353  0.0637  0.0852 -0.0425
 4852W        W19983   4.180  11.720  15.398 -0.1539 -0.3891  0.3373
 4853W        W19984  14.353  15.795   1.914 -0.2377  0.0603  0.2181
 4854W        W19985   0.676  10.712  12.125 -0.0362 -0.3055 -0.0002
 4855W        W19986  14.043   3.958  14.526 -0.0444 -0.1332 -0.1250
 4856W        W19987   3.665   0.951  14.346  0.0200  0.3223 -0.1523
 4857W        W19988   8.729  14.753   0.798 -0.0931  0.0862 -0.1263
 4858W        W19989  10.212   5.392   1.652 -0.3938 -0.2888  0.1226
 4859W        W19990   0.218  12.487  13.839 -0.0222  0.0524 -0.0148
 4860W        W19991  16.927  11.667   3.985 -0.1545  0.0328  0.1562
 4861W        W19992  12.805  11.781   0.851  0.0494 -0.1517  0.2349
 4862W        W19993  10.132   0.786  14.394 -0.2767 -0.0270 -0.0324
 4863W        W19994   6.526  16.797   1.345 -0.1642  0.1462  0.2328
 4864W        W19995   3.434  16.866   3.347 -0.1070  0.3869  0.2022
 4865W        W19996   6.276   2.569  14.231 -0.3579 -0.4054 -0.2154
 4866W        W19997   5.814  11.240   3.721 -0.1449  0.2637 -0.0867
 4867W        W19998  18.329  16.231  11.754  0.0698 -0.2969  0.0440
 4868W        W19999   1.803   1.714  14.518  0.1871  0.1055 -0.0539
 4869W        W20000   5.703   0.350   3.263  0.0098 -0.1955  0.2533
 4870W        W20001   1.348  14.977   5.332 -0.0637  0.3167 -0.0235
 4871W        W20002   2.683   1.189   3.410 -0.0640  0.0350  0.0334
 4872W        W20003   8.186  13.513   3.845  0.1791  0.2829 -0.1362
 4873W        W20004   6.321  15.820  15.686 -0.3472  0.0338 -0.1096
 4874W        W20005  15.718  18.614  12.528  0.0847 -0.3187 -0.1173
 4875W        W20006   3.912  15.320   4.036 -0.2580 -0.1144  0.1136
 4876W        W20007   9.841   8.093   5.909 -0.2004  0.1234  0.1837
 4877W        W20008  18.203   8.451  12.112 -0.0367  0.0747 -0.0635
 4878W        W20009  17.161  11.185  14.223  0.0515  0.1412  0.0641
 4879W        W20010   3.318   6.616   5.371 -0.1665 -0.1677 -0.0862
 4880W        W20011   6.083   5.788   4.908  0.2827  0.3426 -0.2499
 4881W        W20012  11.117  13.180   3.106 -0.2654  0.1665 -0.3231
 4882W        W20013   6.697  15.079  11.784  0.1013 -0.0517  0.1180
 4883W        W20014   4.311  16.065  14.738 -0.1446  0.2281  0.0917
 4884W        W20015  10.807   9.846   5.844 -0.4201  0.1540 -0.0826
 4885W        W20016  14.750  16.014  15.013  0.3800 -0.0625  0.2255
 4886W        W20017   3.685   3.505  11.924 -0.0507  0.1410 -0.2291
 4887W        W20018   1.505   8.479  12.311 -0.1944  0.2701 -0.2765
 4888W        W20019  11.392  11.676   4.449  0.0648 -0.1688  0.0111
 4889W        W20020   8.176  15.730   3.873  0.0273  0.1551 -0.2205
 4890W        W20021   3.415   9.106  10.568 -0.0850 -0.0203  0.3892
 4891W        W20022   1.724  10.789  13.298 -0.2228 -0.1196 -0.2646
 4892W        W20023  12.579  14.534   3.331 -0.1987 -0.0764 -0.2152
 4893W        W20024  16.577  12.911   4.072 -0.2138  0.0887 -0.1978
 4894W        W20025  14.823  12.430   2.468  0.0918 -0.2717 -0.0330
 4895W        W20026   4.161   2.454   1.026  0.1803 -0.1328 -0.0181
 4896W        W20027  18.684  13.613   5.686 -0.1191 -0.2495 -0.1383
 4897W        W20028  11.748  16.743   5.486 -0.2689 -0.4807  0.0517
 4898W        W20029  10.974   7.555  15.715  0.0096 -0.2467  0.3867
 4899W        W20030   6.584   1.032   0.508 -0.0835 -0.1279 -0.1721
 4900W        W20031   0.554  15.407   9.856  0.0552 -0.0183  0.2006
 4901W        W20032  11.451   5.505   0.156 -0.0069  0.0125 -0.0070
 4902W        W20033   8.499  17.938  11.484 -0.0414  0.0836  0.3196
 4903W        W20034   0.064  10.781  15.114  0.2060  0.1558  0.0590
 4904W        W20035   0.801   9.815  15.360  0.0193  0.2194  0.1311
 4905W        W20036  13.836   3.817   1.087  0.2591 -0.0015 -0.2392
 4906W        W20037   3.104  11.658   9.937 -0.3046  0.2940  0.1628
 4907W        W20038   7.247   0.724   2.390 -0.1658  0.1786  0.2802
 4908W        W20039  10.761  13.758  11.794 -0.1832  0.0057  0.2753
 4909W        W20040  13.222   8.451  15.603  0.2448  0.0701 -0.1081
 4910W        W20041   7.041  15.584   2.863 -0.3610  0.2408 -0.3623
 4911W        W20042  12.305   5.661   0.126 -0.1926  0.1854 -0.1578
 4912W        W20043   1.340  15.977   3.429 -0.2675 -0.2024  0.1078
 4913W        W20044   4.662   9.456   3.892  0.0861 -0.0139  0.2542
 4914W        W20045   1.878   0.914  11.524  0.3375  0.1389 -0.2542
 4915W        W20046  11.612   6.502  11.418  0.0580  0.0700 -0.1823
 4916W        W20047   5.320  15.075   4.162  0.1807 -0.0125 -0.3568
 4917W        W20048  16.317   7.121   0.221  0.1314 -0.1511 -0.0329
 4918W        W20049   5.483   8.087   0.178  0.1932 -0.1210 -0.4276
 4919W        W20050  13.147  11.261   4.089  0.3592 -0.1500  0.0544
 4920W        W20051  10.350  18.577   0.961 -0.2262  0.0177  0.2160
 4921W        W20052   7.098  16.902   3.721  0.0056 -0.4335  0.4615
 4922W        W20053  10.354   1.808   3.535 -0.1048 -0.0881 -0.1737
 4923W        W20054   4.706   7.322  12.171 -0.0242 -0.0874 -0.0663
 4924W        W20055   6.283  16.343   3.431 -0.2633 -0.0744 -0.0928
 4925W        W20056   8.778  13.743  15.235 -0.3297  0.0972 -0.0502
 4926W        W20057   2.128  18.228   1.843 -0.0909  0.1478  0.2167
 4927W        W20058  18.205  12.155   4.692  0.0262 -0.1861 -0.0210
 4928W        W20059   5.461   7.404  14.864  0.1750  0.0129 -0.1343
 4929W        W20060  13.946   0.955  14.920 -0.1228 -0.0393 -0.0934
 4930W        W20061  17.775   8.631  11.263 -0.1806 -0.0103 -0.1244
 4931W        W20062  10.378  12.762  13.913  0.1881  0.0600  0.2741
 4932W        W20063   5.405   9.986  13.898 -0.1064  0.1162  0.4797
 4933W        W20064   5.033   2.682  13.810  0.3949 -0.1206  0.3458
 4934W        W20065  16.473  12.414  13.606  0.0410 -0.1711  0.0063
 4935W        W20066   8.897  16.413  13.899 -0.3023  0.1727 -0.1456
 4936W        W20067   1.209   9.528   4.898 -0.2861 -0.1077 -0.2530
 4937W        W20068  11.449  13.605  12.998 -0.2679 -0.3794 -0.1526
 4938W        W20069  14.843  10.870   2.472  0.4316 -0.0567 -0.0290
 4939W        W20070   2.733  16.634  13.180 -0.1549 -0.2300  0.2911
 4940W        W20071   3.087  10.932  14.101 -0.1908  0.1154  0.0596
 4941W        W20072   2.115   6.239  11.415 -0.1954  0.0277  0.1796
 4942W        W20073   0.254   3.799  13.013 -0.0235 -0.2155 -0.0748
 4943W        W20074  13.464   1.955  15.420  0.3961 -0.0572 -0.3257
 4944W        W20075   3.489   4.349   1.042 -0.4029 -0.0654  0.0191
 4945W        W20076  10.434   4.724  13.673  0.2718 -0.0316  0.1522
 4946W        W20077  17.358   6.593   0.732  0.0287 -0.0072  0.1917
 4947W        W20078   5.071  15.447   2.838  0.1151  0.3464 -0.0206
 4948W        W20079   7.804   5.196   5.183  0.0677  0.5156 -0.1888
 4949W        W20080   1.791   3.630  12.856 -0.0068 -0.2507  0.1530
 4950W        W20081   0.793   7.698   3.051  0.0349  0.2153 -0.0618
 4951W        W20082  16.407  14.184  15.692 -0.3437  0.2539  0.0620
 4952W        W20083   3.650   2.969  12.887  0.1021  0.0447 -0.0411
 4953W        W20084  14.227   5.862   9.505  0.2883 -0.0684  0.0556
 4954W        W20085   7.590  16.677  10.488 -0.3490  0.0726 -0.0106
 4955W        W20086  18.477   3.405   3.382 -0.1520 -0.2604  0.1849
 4956W        W20087  17.669  10.273  13.266  0.0030 -0.1000 -0.2368
 4957W        W20088  13.820  13.168  13.050  0.0146  0.1221 -0.0782
 4958W        W20089   4.494  12.517  11.687 -0.2832 -0.0376  0.0969
 4959W        W20090  10.106  17.715   4.283  0.0004 -0.2431 -0.0674
 4960W        W20091   8.227  17.706   3.081 -0.0174  0.2283 -0.0807
 4961W        W20092   8.268   5.792  10.845  0.2713 -0.0122 -0.0279
 4962W        W20093  11.601   4.555  14.836 -0.1137  0.1739  0.0323
 4963W        W20094   9.529  10.834  13.356 -0.1024  0.0155 -0.1866
 4964W        W20095   0.339   7.978   3.020  0.1065  0.0693  0.1720
 4965W        W20096  10.662   5.924   2.357 -0.1113  0.2922 -0.0207
 4966W        W20097   9.251  12.194  13.067  0.0348 -0.0026 -0.1136
 4967W        W20098  12.851  15.135   3.209  0.2686 -0.2032 -0.3360
 4968W        W20099   0.697   6.073  10.842  0.0929 -0.0108 -0.0400
 4969W        W20100   7.411  12.292   2.478  0.2840 -0.1683 -0.1002
 4970W        W20101   7.398   9.254   0.168 -0.3184 -0.2040  0.0919
 4971W        W20102   1.128   0.013   1.154  0.0305 -0.1334  0.0003
 4972W        W20103   2.572   3.389   1.783 -0.0034 -0.1592 -0.1392
 4973W        W20104  12.240  13.494   2.198 -0.0616  0.2067 -0.0551
 4974W        W20105   9.569   0.348   1.406 -0.0513 -0.1844 -0.0539
 4975W        W20106  18.017   8.741  13.544 -0.0096 -0.1730 -0.0265
 4976W        W20107   7.830  11.941   3.767  0.0182  0.1239  0.0279
 4977W        W20108  15.172  18.046   5.694  0.3138  0.0398 -0.4453
 4978W        W20109   5.851  12.170  11.825  0.2205 -0.3245 -0.4023
 4979W        W20110   7.984   0.922   3.908  0.1002  0.1342  0.2915
 4980W        W20111  15.470  13.790  12.120  0.1327 -0.1055 -0.1897
 4981W        W20112   4.859  17.624   1.949 -0.0658  0.1685  0.0048
 4982W        W20113  17.363   1.248   3.225 -0.3592  0.2662  0.1601
 4983W        W20114  15.178  14.759   2.630  0.0546  0.0577 -0.0861
 4984W        W20115   9.619   6.399  11.535  0.0141 -0.1035 -0.0853
 4985W        W20116  18.607   7.632   1.756 -0.3049  0.0148 -0.2523
 4986W        W20117   5.542   7.044  14.339  0.4130  0.0603 -0.3296
 4987W        W20118   8.399  12.136  12.954 -0.1957  0.1387 -0.1392
 4988W        W20119   3.398  13.354  13.800 -0.2608  0.0594  0.0871
 4989W        W20120  16.609  15.634   2.407 -0.0517  0.0005  0.6328
 4990W        W20121   7.115   8.576  14.273  0.2092 -0.0931 -0.4940
 4991W        W20122  18.078   0.319   0.929 -0.0728  0.1181  0.0023
 4992W        W20123   8.537  10.575  13.185 -0.1032  0.0538 -0.3311
 4993W        W20124   9.979   6.158   2.947  0.3005 -0.2123 -0.1364
 4994W        W20125  10.638  18.467   5.932  0.1026 -0.3062 -0.0207
 4995W        W20126  12.925   4.250   9.781 -0.3687 -0.2703 -0.0533
 4996W        W20127   6.211  16.926   3.872  0.1341 -0.0850 -0.1216
 4997W        W20128   0.964  12.215   5.730  0.1877  0.2082  0.2215
 4998W        W20129   6.018   9.752  12.755  0.0490  0.1834 -0.0641
 4999W        W20130  12.309  16.821  14.186 -0.1801 -0.0241  0.4640
 5000W        W20131   7.296  14.897  12.763  0.0169 -0.0788 -0.2549
 5001W        W20132   7.095  17.967  13.394 -0.0954 -0.3249  0.0728
 5002W        W20133  13.563  15.222  15.207 -0.1147  0.2144 -0.1033
 5003W        W20134  10.120  17.012   2.337 -0.1634 -0.0101 -0.2613
 5004W        W20135  10.166  17.556  13.192 -0.3656  0.0436 -0.0183
 5005W        W20136  15.275  17.568   5.564  0.2189 -0.0467  0.1898
 5006W        W20137   4.932  10.699  11.339  0.3969  0.1909  0.1246
 5007W        W20138  13.214  12.716  11.580  0.4425 -0.0183 -0.1409
 5008W        W20139  14.128  12.614  15.186 -0.2179  0.1462 -0.1215
 5009W        W20140  12.648  16.403   1.095  0.1781  0.0803 -0.1971
 5010W        W20141   8.216   8.054  12.288 -0.0664  0.0915  0.1327
 5011W        W20142  10.585  14.448   2.305  0.0685  0.0443 -0.0652
 5012W        W20143  17.985  15.725  14.822  0.0106  0.4442 -0.1365
 5013W        W20144   1.186  17.640   3.484  0.3333  0.0087  0.2312
 5014W        W20145   4.594  12.935   3.391  0.2289  0.1665 -0.0864
 5015W        W20146   2.931   4.223   4.643  0.0178 -0.0610 -0.0034
 5016W        W20147  18.255  10.346  15.073 -0.2407  0.2858  0.0492
 5017W        W20148   6.084   3.471  11.631 -0.1171  0.1798 -0.2226
 5018W        W20149   1.758   6.865  10.546  0.0863  0.0723 -0.3824
 5019W        W20150   2.955   5.971   4.680 -0.2657  0.0888  0.1620
 5020W        W20151  11.802   6.810   1.693  0.4804 -0.1270  0.1590
 5021W        W20152  10.491   7.470  12.395 -0.1735  0.1417  0.2025
 5022W        W20153   9.814   8.062   5.403  0.1149  0.1251 -0.0870
 5023W        W20154  10.440  10.689  14.292  0.0564 -0.1078 -0.0654
 5024W        W20155   5.167  13.730  10.383  0.3541  0.1006 -0.0489
 5025W        W20156  12.790   9.292   1.066 -0.0494 -0.0274  0.1743
 5026W        W20157   2.977   6.727   1.293 -0.1364 -0.1706 -0.0125
 5027W        W20158   7.113   4.771   2.537 -0.0589  0.1169  0.2204
 5028W        W20159  12.806   4.961   3.620  0.0710 -0.3229  0.3401
 5029W        W20160  11.612   0.466  10.585 -0.2434 -0.3732  0.1149
 5030W        W20161  14.967  14.535  10.270 -0.3055 -0.1948  0.2634
 5031W        W20162  12.219  15.541  11.790  0.1505 -0.0292  0.1801
 5032W        W20163   2.130  12.780  12.601 -0.2665 -0.0758  0.1321
 5033W        W20164   4.042   1.206   1.701  0.1694 -0.2922  0.1398
 5034W        W20165  15.128  16.772  14.628  0.0249 -0.0381 -0.1505
 5035W        W20166   0.242   7.533  15.653  0.1167 -0.1927  0.1843
 5036W        W20167  16.313   0.950   1.416 -0.2033  0.1741 -0.1433
 5037W        W20168  18.037   7.810   3.154 -0.0919  0.4571 -0.3261
 5038W        W20169   4.095  17.506  11.612  0.2087 -0.0700  0.1350
 5039W        W20170  14.737   1.220  12.233  0.0458 -0.2474  0.1803
 5040W        W20171   6.300  13.401   2.595 -0.3010  0.2288  0.1913
 5041W        W20172  11.132  13.323  15.695 -0.0435  0.5949 -0.1223
 5042W        W20173   4.934   6.228   9.931  0.1998 -0.0698 -0.0575
 5043W        W20174   0.144  15.254  11.285 -0.0449 -0.0049  0.0427
 5044W        W20175   8.076   6.110  14.425  0.2087  0.1543  0.2307
 5045W        W20176  17.216  10.780   3.682 -0.0100 -0.1407  0.2528
 5046W        W20177  11.253  12.834   0.903 -0.1799 -0.0534 -0.0174
 5047W        W20178   2.222  15.623   3.112  0.1699 -0.2801  0.2682
 5048W        W20179  17.779   8.709   2.866 -0.4592  0.0063 -0.0771
 5049W        W20180  12.832   5.462   3.700 -0.0914  0.0425  0.0561
 5050W        W20181  17.297  14.846  12.568  0.0676 -0.2030  0.0149
 5051W        W20182   9.212   0.439   2.156 -0.1115 -0.0436  0.1013
 5052W        W20183   5.342   5.699   0.372 -0.0788 -0.1612  0.0947
 5053W        W20184   1.483   7.576   4.420 -0.1942  0.3540 -0.2201
 5054W        W20185   5.836   2.214   0.757 -0.3494  0.1222  0.1907
 5055W        W20186  17.469   8.958   1.456  0.0978 -0.0777  0.1921
 5056W        W20187   7.475   6.601  13.345 -0.0904 -0.7077  0.0001
 5057W        W20188   4.455  12.450   1.655 -0.0886  0.0776  0.0096
 5058W        W20189   0.265  18.422  10.718 -0.1345  0.1858  0.3069
 5059W        W20190  10.036   4.343   1.556 -0.1805  0.0253  0.1711
 5060W        W20191  17.068   6.312   9.347 -0.0562 -0.1402  0.1043
 5061W        W20192   1.144  17.192   6.202 -0.2125 -0.0141  0.2734
 5062W        W20193   5.410   2.813  11.662 -0.2100 -0.0767  0.1619
 5063W        W20194   3.296  11.944   4.365 -0.1938  0.0101  0.0619
 5064W        W20195  18.630   0.078   4.463  0.0718 -0.3146  0.0351
 5065W        W20196   1.757  12.752  11.595 -0.2796 -0.0949 -0.0295
 5066W        W20197   2.040  15.144   4.490  0.2705  0.1258  0.0695
 5067W        W20198  18.691   7.462  10.189  0.2966 -0.1061  0.2420
 5068W        W20199   0.673  11.238  12.141 -0.0248 -0.1148 -0.1226
 5069W        W20200   1.585  11.754  14.943 -0.1631  0.2207 -0.1384
 5070W        W20201  18.353   8.684  14.765  0.0644  0.1147 -0.0136
 5071W        W20202  13.798  18.159  14.751  0.2718 -0.0227  0.2803
 5072W        W20203  16.516  17.308   4.018  0.3267 -0.0106 -0.0194
 5073W        W20204  11.195   1.456   4.097  0.1694 -0.0934  0.3067
 5074W        W20205  11.211  11.960   2.902 -0.2104 -0.1839  0.1678
 5075W        W20206  13.029  13.655  14.812 -0.6047 -0.0434  0.2811
 5076W        W20207   1.770  13.871  11.305  0.3797  0.0028  0.0441
 5077W        W20208   9.728   4.023  11.567  0.3143  0.1556 -0.0856
 5078W        W20209   4.041   4.938   1.324  0.1896 -0.1049 -0.3324
 5079W        W20210  16.219  11.619  15.311  0.2547  0.0585  0.0287
 5080W        W20211   6.140  11.213  14.258 -0.1704 -0.0605  0.0422
 5081W        W20212  16.900   8.798  15.332  0.3819  0.1766 -0.1759
 5082W        W20213   3.747   5.180  10.095  0.0090  0.2180  0.1335
 5083W        W20214  18.333   5.118   3.585 -0.2172  0.0319  0.0118
 5084W        W20215   7.255   0.490  14.329 -0.0240  0.0750 -0.0224
 5085W        W20216  17.216  15.335   3.030 -0.0595 -0.1292  0.1286
 5086W        W20217   6.593   5.887   2.952  0.1587 -0.0191  0.0583
 5087W        W20218  14.898   3.348   2.409 -0.1115 -0.1764  0.0746
 5088W        W20219   0.178   7.725  12.945 -0.1677 -0.1450 -0.3473
 5089W        W20220   0.732  13.162  10.841  0.0771 -0.0702 -0.1531
 5090W        W20221   6.230  13.856  10.932  0.2851 -0.0108 -0.0904
 5091W        W20222  10.551   0.566   2.384 -0.1665 -0.0368 -0.0688
 5092W        W20223   4.960  18.594  12.630  0.0804 -0.0538  0.4876
 5093W        W20224  13.224  15.146  13.870  0.1871 -0.0958 -0.0506
 5094W        W20225   4.810  16.079   0.388  0.2864 -0.0350  0.0628
 5095W        W20226   9.202  11.618   4.323 -0.2261 -0.3029 -0.0257
 5096W        W20227  17.936   9.224   0.405 -0.2836 -0.0956  0.0745
 5097W        W20228   2.532   0.185   1.581  0.1950 -0.2643  0.2308
 5098W        W20229  13.128   2.104  11.531  0.1943  0.1946 -0.0120
 5099W        W20230   8.939   8.500  13.129  0.1367 -0.3823  0.0254
 5100W        W20231   6.569  14.087   5.226 -0.2444 -0.1026 -0.3354
 5101W        W20232  13.231   9.530  12.649  0.0270 -0.0839 -0.3080
 5102W        W20233   2.523  18.444   2.686 -0.1238 -0.2198 -0.2260
 5103W        W20234  13.654  14.876  12.783  0.1261 -0.1879  0.0757
 5104W        W20235  15.495  16.466   2.138  0.1880 -0.1183  0.2207
 5105W        W20236   9.675   5.643   2.263 -0.3579 -0.0145 -0.1332
 5106W        W20237  15.009  10.929   4.291  0.0512  0.1665 -0.2547
 5107W        W20238  17.455   6.223  12.814 -0.2397 -0.2786  0.2387
 5108W        W20239  15.274   5.751   2.137  0.2330  0.5237 -0.2670
 5109W        W20240  14.410   3.396   2.531  0.0359 -0.2474  0.1796
 5110W        W20241   5.746   2.122  11.008 -0.0384  0.1594  0.0455
 5111W        W20242   6.900   1.024  13.058  0.0107 -0.1618  0.1331
 5112W        W20243   7.555  17.573  10.709 -0.4601 -0.0510 -0.2455
 5113W        W20244   4.940   6.119   0.343 -0.0881 -0.0568  0.0085
 5114W        W20245   3.911  16.020  15.300  0.1048  0.0898 -0.0212
 5115W        W20246  11.135   3.498  11.540  0.1156 -0.1572 -0.3452
 5116W        W20247   4.231  15.186   4.428  0.2335  0.0802 -0.0715
 5117W        W20248  18.672  18.592   4.033  0.0456  0.2382  0.0664
 5118W        W20249  16.786   3.599   4.082 -0.3330  0.3141  0.0658
 5119W        W20250  16.649   4.381  13.204 -0.0734 -0.2500  0.2444
 5120W        W20251  14.242   5.781   5.578  0.2118 -0.0304 -0.1991
 5121W        W20252   6.809   0.373   6.118  0.2554  0.1819  0.3591
 5122W        W20253  10.331  10.133   1.344  0.2674 -0.4457 -0.0366
 5123W        W20254   5.163  18.089   4.054 -0.0881 -0.0824  0.1856
 5124W        W20255   2.686   1.915  11.181 -0.0225 -0.1342 -0.3604
 5125W        W20256   8.882   4.639  13.597 -0.1766  0.1919 -0.2126
 5126W        W20257  13.641  10.076   3.646  0.1665 -0.2120 -0.0884
 5127W        W20258  14.305   7.426  10.712  0.0338  0.0217 -0.0916
 5128W        W20259  15.697   5.330   2.124  0.2525 -0.3204  0.1189
 5129W        W20260  14.424  12.834  15.517 -0.1020  0.1832 -0.0034
 5130W        W20261  14.899   4.169  12.745 -0.0199 -0.0258  0.2822
 5131W        W20262   4.584  10.374   1.112  0.2003 -0.2387 -0.1311
 5132W        W20263  10.375  13.275   4.194 -0.0390  0.1126 -0.1946
 5133W        W20264  14.097   1.291   1.101 -0.1430 -0.1632  0.0316
 5134W        W20265   6.856  15.515  10.461  0.1438 -0.1366  0.0038
 5135W        W20266   7.312  17.609   0.402  0.2476  0.1370 -0.1078
 5136W        W20267  12.872   1.386  14.916 -0.3471 -0.2100  0.1128
 5137W        W20268  18.224  11.836   2.536 -0.1623  0.0568 -0.0601
 5138W        W20269   7.601  16.518   3.728 -0.1244 -0.2373 -0.1052
 5139W        W20270  11.269   7.214  11.924  0.0754  0.1969  0.1385
 5140W        W20271  12.813   7.451  14.922  0.0765  0.0062  0.2443
 5141W        W20272   4.724   6.210   0.838 -0.2421  0.2351 -0.0608
 5142W        W20273   4.204   5.995  12.170  0.0719 -0.1119  0.0474
 5143W        W20274   7.787   0.210  12.104 -0.2454 -0.0615 -0.0323
 5144W        W20275  11.976  15.941  13.855 -0.4630 -0.1393  0.1716
 5145W        W20276  12.317  14.864   1.950  0.2403  0.0834 -0.0915
 5146W        W20277  11.517  16.000  12.461  0.1717  0.2181 -0.0125
 5147W        W20278   2.936   5.715  10.540  0.2463  0.1189  0.0872
 5148W        W20279   6.767   7.856   1.038  0.3032 -0.0418  0.0343
 5149W        W20280   7.844   8.878  12.851 -0.3941 -0.0091  0.4491
 5150W        W20281   1.437  16.865  12.620  0.1303  0.0578 -0.3184
 5151W        W20282  18.018   3.682   2.409 -0.0260  0.1570  0.0523
 5152W        W20283  18.146   1.552  14.484  0.0982 -0.2376  0.0076
 5153W        W20284   8.888   9.886   1.083  0.3458 -0.2043  0.2919
 5154W        W20285  12.428  13.523  14.645  0.2868 -0.0602  0.3296
 5155W        W20286  14.250  17.621   3.875 -0.0914  0.0175 -0.0300
 5156W        W20287   4.555   4.921   1.165 -0.2872 -0.1020 -0.2662
 5157W        W20288   1.479  16.006   0.737  0.0856 -0.1258 -0.1402
 5158W        W20289  13.073   9.726  13.067  0.3162  0.0730  0.0957
 5159W        W20290   3.169   6.662   0.615  0.0110  0.0609  0.2801
 5160W        W20291   5.636  16.205   9.893  0.2612 -0.1898  0.0922
 5161W        W20292   9.951   1.608   4.298  0.1038  0.1534 -0.0147
 5162W        W20293   7.693  13.471   5.982 -0.0615  0.0033 -0.4491
 5163W        W20294   5.057  15.363  14.916  0.0080 -0.0392  0.2208
 5164W        W20295  13.386  11.427   1.416  0.1338 -0.1413 -0.2922
 5165W        W20296   4.541   9.103   2.157 -0.1580  0.3626 -0.1318
 5166W        W20297   6.005  12.739  13.093  0.0298 -0.2792 -0.0152
 5167W        W20298   9.111   4.707   2.238 -0.4166 -0.0378 -0.4140
 5168W        W20299   2.340   7.694   0.274 -0.2504  0.0142  0.1841
 5169W        W20300  11.623  14.211  15.133 -0.1775  0.1290  0.3411
 5170W        W20301   3.927  15.708  15.744  0.1675  0.1568  0.1666
 5171W        W20302   8.479   7.121  12.405  0.0237 -0.1511  0.2840
 5172W        W20303   9.587  11.604   5.213 -0.0985  0.1492 -0.1044
 5173W        W20304   2.716   6.090  11.393  0.1799 -0.2844  0.3845
 5174W        W20305  17.536   1.439   0.142 -0.0565 -0.2256 -0.0629
 5175W        W20306   2.672   1.671   4.653 -0.1752 -0.2140 -0.0499
 5176W        W20307  17.904   6.196  14.257 -0.0677 -0.2431 -0.2441
 5177W        W20308  15.621   9.054  11.980 -0.1187  0.0522 -0.2501
 5178W        W20309  18.018  14.026   1.582 -0.0159 -0.2089 -0.1324
 5179W        W20310   9.845   6.501  10.482 -0.3651  0.1657  0.1705
 5180W        W20311   6.314   1.636  13.647  0.1899 -0.0948  0.1423
 5181W        W20312   8.095  13.762  11.433  0.0006  0.6013 -0.2440
 5182W        W20313   1.354  10.482  15.487  0.0232  0.0183 -0.0156
 5183W        W20314  16.619  18.590   4.065  0.0523 -0.2307  0.2207
 5184W        W20315  10.713   2.658  10.608  0.0587  0.0583  0.1137
 5185W        W20316  11.249  15.448   5.642  0.0668 -0.1448  0.3913
 5186W        W20317  11.514  15.097  12.274  0.3665  0.0644 -0.0984
 5187W        W20318   5.962  18.697   5.172 -0.2000  0.0755 -0.1952
 5188W        W20319  11.772   6.876  12.764  0.0000  0.0874 -0.0405
 5189W        W20320  16.708  10.549  12.659 -0.2384 -0.1680  0.0730
 5190W        W20321   9.993  14.418   0.070 -0.4521  0.2328 -0.1248
 5191W        W20322   8.368  10.848  12.249  0.1950 -0.3063 -0.1972
 5192W        W20323   8.325  11.730   4.542  0.0913 -0.2854  0.1064
 5193W        W20324  15.933   7.478  14.128 -0.0033 -0.1948 -0.2093
 5194W        W20325  13.209  14.046   2.814 -0.2980  0.0494 -0.0287
 5195W        W20326   7.802  11.481   4.553  0.2345 -0.1527  0.0251
 5196W        W20327  17.226  13.323  11.165  0.1044  0.1018  0.0737
 5197W        W20328   1.767   5.546   1.608  0.2157 -0.0078  0.0747
 5198W        W20329   0.879   1.613   4.658 -0.1618  0.0224 -0.1546
 5199W        W20330  11.763   7.985  15.377 -0.1346  0.1931  0.2334
 5200W        W20331   1.497  11.264  13.366 -0.0515  0.2842 -0.0884
 5201W        W20332  16.575  18.355   6.430 -0.0039 -0.1160 -0.1410
 5202W        W20333  13.356  11.578   0.886 -0.0092  0.0945 -0.2603
 5203W        W20334   4.319   4.921  11.872  0.3628  0.2526  0.4394
 5204W        W20335  15.483  18.326  14.722 -0.0162 -0.0471  0.3225
 5205W        W20336   4.251   0.283  15.049  0.4293 -0.2399 -0.2315
 5206W        W20337  12.053  12.776   1.777 -0.0937 -0.2822  0.1746
 5207W        W20338  14.706   6.194  13.733 -0.0889  0.0961 -0.0612
 5208W        W20339  15.002  15.582  13.290  0.0414 -0.0011  0.4381
 5209W        W20340   2.701   3.549  10.543  0.1215  0.0684  0.1109
 5210W        W20341   9.581  17.701  13.963  0.1467  0.0976 -0.1493
 5211W        W20342  17.563  14.103  15.589  0.0943  0.1043  0.0551
 5212W        W20343   4.450   4.848   5.513  0.3814  0.1653 -0.0386
 5213W        W20344   9.699   8.528   6.142 -0.1909  0.1238  0.2793
 5214W        W20345  18.085   7.675   8.907 -0.0905 -0.1102 -0.2525
 5215W        W20346   4.120  13.825  10.706  0.1470 -0.1908  0.0724
 5216W        W20347  15.317   5.745  13.986  0.2740 -0.1133  0.3129
 5217W        W20348   5.503   1.274  12.082  0.4237  0.0800 -0.0796
 5218W        W20349   7.183  13.575  13.262  0.0293 -0.0246  0.3668
 5219W        W20350  18.735   7.046  15.010 -0.2280  0.1522  0.0643
 5220W        W20351  16.821  14.670  11.601  0.0292 -0.0595 -0.1975
 5221W        W20352   3.184   1.141  11.196 -0.0357  0.2774  0.0103
 5222W        W20353   1.814   6.399   2.431  0.0955  0.1258 -0.0525
 5223W        W20354  18.028   5.080   4.394  0.0631  0.1253 -0.4125
 5224W        W20355  13.135  16.026  14.946  0.0169  0.0103  0.0075
 5225W        W20356   5.787  17.589   0.786 -0.0093 -0.1341  0.1337
 5226W        W20357   9.140  17.171   4.894  0.1121 -0.0654  0.1080
 5227W        W20358   7.036  18.400   1.718 -0.2652  0.0686  0.1134
 5228W        W20359  15.045  17.307  14.395  0.1361 -0.1404 -0.2373
 5229W        W20360  12.986  13.148   0.035  0.2038  0.2732  0.0415
 5230W        W20361  13.628   9.705   4.929 -0.0277 -0.0258 -0.1278
 5231W        W20362  11.629  13.227  12.122  0.0663 -0.2223 -0.0547
 5232W        W20363  10.439  13.059   0.899 -0.1518  0.1810  0.1381
 5233W        W20364  13.395   6.764  13.607 -0.0433 -0.1571  0.0682
 5234W        W20365   0.049   1.014   2.530  0.3291  0.1115 -0.2031
 5235W        W20366   0.748   0.170  12.412  0.0966  0.0985 -0.0071
 5236W        W20367   1.301  14.310  15.493  0.2625  0.2867 -0.0445
 5237W        W20368   2.958   8.467   4.877 -0.0976  0.0238 -0.0798
 5238W        W20369  16.887   2.174   0.496  0.0135  0.1856 -0.1429
 5239W        W20370   7.230  11.870  15.168 -0.0507  0.1934  0.0811
 5240W        W20371  10.624  15.684   3.143 -0.1210 -0.0007  0.0905
 5241W        W20372   1.744   1.352   0.460  0.1379  0.1257  0.0689
 5242W        W20373   6.184   0.479   0.613 -0.0316  0.2059  0.0959
 5243W        W20374   5.870   4.115  13.471 -0.2190 -0.0772 -0.2794
 5244W        W20375   4.466   2.229  12.509 -0.0778  0.0278  0.1188
 5245W        W20376  11.102  15.962  15.392  0.1102 -0.3776  0.2411
 5246W        W20377  16.553   8.701  14.544  0.1667 -0.1527 -0.1696
 5247W        W20378   2.885   6.500  11.079 -0.1019  0.1841  0.1354
 5248W        W20379  18.421   5.413   3.165  0.2703  0.0331 -0.0702
 5249W        W20380   1.394  18.044  13.301 -0.0876 -0.1662  0.2114
 5250W        W20381   7.876   0.065  11.203 -0.1359  0.0034 -0.2340
 5251W        W20382   5.339  13.183  12.160  0.0518  0.2307  0.0602
 5252W        W20383   2.108   5.099   1.731 -0.2893 -0.1874  0.2611
 5253W        W20384   7.467  14.919   5.438 -0.0896 -0.2152  0.0063
 5254W        W20385   8.349   1.458   2.631 -0.2904  0.0645  0.0605
 5255W        W20386   8.864  10.740   2.974 -0.0346 -0.0143  0.1523
 5256W        W20387  13.244   4.972   3.192 -0.1318  0.1001  0.2550
 5257W        W20388  16.751  12.290   1.698  0.0036 -0.0237  0.1333
 5258W        W20389   4.601   2.941   2.957 -0.0549 -0.3468  0.2345
 5259W        W20390   2.805   9.981  13.980 -0.2901 -0.1127  0.1288
 5260W        W20391   1.176  13.688  14.485  0.0948  0.1743 -0.3186
 5261W        W20392   5.615  14.815   3.326 -0.1500 -0.0707 -0.0924
 5262W        W20393  12.275   2.946   4.064  0.1114 -0.0455 -0.2126
 5263W        W20394  11.198  16.199   0.517 -0.1315  0.0384  0.1886
 5264W        W20395   5.654   8.773   9.652 -0.0949 -0.0553 -0.0985
 5265W        W20396  18.320  11.456   1.335 -0.0858  0.1216 -0.2739
 5266W        W20397  18.116   6.783   0.437  0.3635 -0.1489  0.0781
 5267W        W20398  10.410   4.035  11.511 -0.2186  0.1976 -0.0451
 5268W        W20399  14.254   6.468   1.761 -0.0001  0.2990 -0.0713
 5269W        W20400  10.137   6.693   2.013  0.0775 -0.2475 -0.1380
 5270W        W20401  16.148  10.180   4.500  0.2364  0.0014  0.5830
 5271W        W20402  10.778   7.274  12.950 -0.1276 -0.3655  0.1567
 5272W        W20403  16.741  16.309   0.282  0.3978 -0.2854  0.0031
 5273W        W20404  18.615  14.763  12.775 -0.0966  0.0428 -0.0099
 5274W        W20405   4.471  17.222  12.198  0.1247 -0.3116  0.0524
 5275W        W20406  13.115  11.004  11.326  0.1026  0.2563 -0.0104
 5276W        W20407   7.325   4.325   0.401  0.2992  0.3668  0.1816
 5277W        W20408  11.813  14.424  11.303 -0.2539  0.1058 -0.2928
 5278W        W20409   1.102   2.581  12.810  0.0127 -0.2631 -0.0496
 5279W        W20410   1.074   4.847  13.869 -0.2295 -0.0372 -0.1368
 5280W        W20411   5.289  13.666   0.598  0.1235  0.4528 -0.0166
 5281W        W20412  14.378   7.075  11.963 -0.0627  0.0894 -0.0844
 5282W        W20413   9.987  16.362  11.848  0.0767 -0.1247  0.1101
 5283W        W20414   6.937   7.904   6.357  0.0446  0.1939 -0.0026
 5284W        W20415  12.604  13.023  14.745 -0.0935 -0.1181  0.0768
 5285W        W20416   2.482   3.487   0.672 -0.2188  0.1260 -0.1917
 5286W        W20417  17.943  12.137   2.891 -0.0098 -0.0785  0.2408
 5287W        W20418   2.836   3.143  14.636 -0.2274  0.1291  0.0475
 5288W        W20419  16.142  11.560   5.639 -0.0967 -0.1517  0.3102
 5289W        W20420  11.578  16.392   3.790 -0.0096 -0.1962 -0.0673
 5290W        W20421  17.228  16.986   0.134 -0.0657  0.0741  0.3179
 5291W        W20422  15.012   2.989   3.225  0.2403  0.3201  0.0892
 5292W        W20423   0.018  17.682   4.336 -0.2394  0.0958  0.3202
 5293W        W20424   3.749   6.156  10.834 -0.3632 -0.1449  0.0861
 5294W        W20425  15.021   0.068   4.514 -0.1870 -0.2171 -0.0476
 5295W        W20426  12.360   0.374   4.124  0.0547 -0.3134 -0.3488
 5296W        W20427   8.864  17.979   5.293 -0.2688 -0.3004 -0.2058
 5297W        W20428   9.457  12.285  15.035 -0.2425  0.1852 -0.0659
 5298W        W20429   3.337  15.262   4.565 -0.0702  0.1605  0.4127
 5299W        W20430   5.235   9.584  15.426 -0.2416  0.0408  0.0051
 5300W        W20431  18.320   3.492   1.248  0.0078 -0.3298 -0.1890
 5301W        W20432   6.114   2.553  15.613 -0.2607  0.2386  0.5054
 5302W        W20433   7.168   3.861   0.166  0.0190 -0.2159 -0.0020
 5303W        W20434  12.333  15.959   2.461 -0.1770  0.0766 -0.2427
 5304W        W20435   0.471   3.527   3.595 -0.3504 -0.0379  0.0175
 5305W        W20436   8.293  18.292  14.178  0.0401  0.1058  0.2323
 5306W        W20437   2.042   2.596  11.746  0.2117 -0.0825 -0.3533
 5307W        W20438  14.806   8.180  14.021  0.1231 -0.3485 -0.2943
 5308W        W20439   4.711  11.099   4.855 -0.4391  0.0617 -0.0711
 5309W        W20440   4.281  14.223  12.823  0.3512 -0.1800  0.3274
 5310W        W20441   5.648   4.558  11.369 -0.1148 -0.0163  0.0557
 5311W        W20442   8.694   6.992  11.142  0.0068 -0.3300  0.2311
 5312W        W20443   8.311  10.172   2.436 -0.1796  0.3584 -0.1399
 5313W        W20444   7.222  13.685   0.676 -0.0218  0.0031 -0.1732
 5314W        W20445  15.846  18.521  14.302 -0.1109  0.0241 -0.1314
 5315W        W20446  12.862  17.570  13.958 -0.0163 -0.3088 -0.0687
 5316W        W20447   7.088   6.029  13.941  0.1564  0.0396 -0.0854
 5317W        W20448  10.229  13.315  15.707 -0.1014  0.0724 -0.2274
 5318W        W20449  13.322  12.663   1.786 -0.0205 -0.0155  0.1721
 5319W        W20450  16.958  12.531  15.167  0.1245 -0.4761 -0.1774
 5320W        W20451   3.463   5.380  11.377 -0.3336  0.1518 -0.0873
 5321W        W20452   2.236  15.558   0.426 -0.0814 -0.1912  0.2926
 5322W        W20453  11.472   7.835   2.838  0.1827  0.0670 -0.3120
 5323W        W20454   0.281   2.372  14.573 -0.0104 -0.2218  0.0972
 5324W        W20455  18.699   8.761  13.071  0.2738  0.0164 -0.0162
 5325W        W20456   3.857  18.350  12.728 -0.0309 -0.0425  0.4372
 5326W        W20457   4.127   8.251  12.397 -0.2500  0.0075  0.0214
 5327W        W20458  10.559  15.778   2.223 -0.2744 -0.0204  0.3976
 5328W        W20459   4.275   5.889  14.388  0.0265  0.2444 -0.2910
 5329W        W20460  12.766   3.151   0.708 -0.1155  0.0907  0.2508
 5330W        W20461  16.539   0.054   6.188  0.1297  0.2170 -0.3898
 5331W        W20462  12.653   8.191  12.912  0.1804 -0.1440 -0.0238
 5332W        W20463   6.751  10.875  15.132  0.5660  0.0051 -0.0239
 5333W        W20464   4.677   2.586  11.919 -0.2220 -0.3876  0.0380
 5334W        W20465  10.950  16.728  14.673  0.1179  0.3142 -0.1371
 5335W        W20466  14.904  17.508   1.858 -0.1272  0.0185 -0.4344
 5336W        W20467   8.244  15.797  12.852  0.0107  0.1112  0.1182
 5337W        W20468   4.282   2.975   1.004 -0.4394  0.0072 -0.1551
 5338W        W20469  10.845   7.295   4.603 -0.2637 -0.1889  0.2405
 5339W        W20470   9.909  15.769   1.482 -0.0964 -0.0820  0.1082
 5340W        W20471  12.927   7.926  12.123  0.1825 -0.2802  0.2498
 5341W        W20472  18.603   9.251  12.983  0.0885  0.0011 -0.0056
 5342W        W20473  14.055  11.801  14.798  0.1719 -0.2059  0.1422
 5343W        W20474   2.993   5.511   4.500  0.0711  0.0813 -0.0770
 5344W        W20475  13.043   1.848  14.606  0.0737  0.1108 -0.3026
 5345W        W20476   9.398   7.548  11.579  0.2341 -0.3092  0.1135
 5346W        W20477  15.250   0.030  13.539 -0.0401 -0.3739 -0.0766
 5347W        W20478   0.791   7.095  13.563  0.0246 -0.0041  0.0706
 5348W        W20479   2.070  12.845  14.919  0.0568  0.1521  0.0771
 5349W        W20480   8.298  13.665  14.334 -0.2516 -0.1235 -0.2474
 5350W        W20481   3.754  18.494   4.840 -0.3245 -0.1350  0.1938
 5351W        W20482   0.742  13.027   0.367  0.0699 -0.0683 -0.0615
 5352W        W20483  15.435  15.529  14.455  0.1652 -0.1630 -0.0148
 5353W        W20484   9.463   8.819   0.977  0.2282  0.0173 -0.0900
 5354W        W20485   5.870  14.992   1.823 -0.0964 -0.2823  0.1717
 5355W        W20486  12.906  11.776   5.318  0.5541  0.1919 -0.2458
 5356W        W20487   5.618   3.210   2.538  0.1052 -0.0200 -0.1112
 5357W        W20488  11.972   5.263   0.065  0.0374 -0.0133 -0.1813
 5358W        W20489   2.099   3.209  14.748  0.0771 -0.1902 -0.1637
 5359W        W20490  12.959  16.825   4.542  0.1306  0.1727  0.2659
 5360W        W20491   6.511  10.038   3.034  0.1247  0.2773  0.4645
 5361W        W20492  12.212   2.122   2.370 -0.1228 -0.1488 -0.3848
 5362W        W20493  13.985  13.896  15.059 -0.1798 -0.3118 -0.0939
 5363W        W20494   4.990  14.238   4.579 -0.3034 -0.2350 -0.1318
 5364W        W20495   9.084   1.780  13.268 -0.0451 -0.1394 -0.1817
 5365W        W20496   2.736  12.470  11.243  0.2079 -0.2940 -0.1218
 5366W        W20497  13.522   1.720   0.535  0.0528  0.2526 -0.0981
 5367W        W20498   9.531   1.544   1.420  0.3057  0.1912  0.1710
 5368W        W20499   5.434  16.049   1.744  0.2770 -0.0144  0.3828
 5369W        W20500   5.922  16.454  12.206  0.1837 -0.1579  0.3289
 5370W        W20501  14.843   9.091   2.143 -0.1133 -0.3393 -0.0572
 5371W        W20502   1.070   1.772  15.193 -0.1996  0.0740  0.3648
 5372W        W20503  18.235   0.307   0.163 -0.0426  0.0136 -0.0831
 5373W        W20504  10.268   6.508   2.635 -0.1693 -0.2201  0.3444
 5374W        W20505   9.606   2.586  13.332  0.0550  0.2118 -0.1289
 5375W        W20506  18.058   2.773  12.404  0.1835  0.0682 -0.0377
 5376W        W20507  15.037  13.059   4.536 -0.3182 -0.1801  0.1448
 5377W        W20508  15.834   9.649   5.215 -0.1708  0.0213 -0.1021
 5378W        W20509  17.828   9.651  12.033  0.0177  0.0812  0.1180
 5379W        W20510   7.147   2.573   1.460 -0.1077 -0.0232 -0.1359
 5380W        W20511  18.012  18.253  12.678  0.0175  0.3433 -0.2890
 5381W        W20512   2.957   5.474   3.254  0.2696 -0.2746  0.2510
 5382W        W20513   1.066   5.517  11.777 -0.2408 -0.2535  0.2207
 5383W        W20514  17.505   0.257   1.928 -0.1185 -0.1932  0.2382
 5384W        W20515   3.763  11.691  13.827  0.1922 -0.1057 -0.1329
 5385W        W20516   0.813   8.725   1.810  0.0181  0.1571  0.3293
 5386W        W20517   4.379  14.440  13.669 -0.0717 -0.0989  0.2106
 5387W        W20518   0.706   9.125  13.278 -0.0588 -0.2267 -0.2360
 5388W        W20519   7.713  17.799   2.920  0.0955  0.1735  0.3681
 5389W        W20520  10.705   9.773   2.877  0.2102 -0.2191 -0.2352
 5390W        W20521   2.483  10.726   1.986  0.0552  0.1892 -0.0511
 5391W        W20522  14.969  17.942   2.125  0.0303  0.1499 -0.1096
 5392W        W20523   2.048   9.993  15.005  0.0501 -0.0500  0.2025
 5393W        W20524   9.310   3.750  11.570 -0.2276  0.0759  0.1936
 5394W        W20525   2.043  10.314  10.778 -0.1144  0.0741  0.2420
 5395W        W20526   1.366  16.405  11.779 -0.0223 -0.0278  0.1102
 5396W        W20527  11.283   2.460  12.735  0.0604  0.4443  0.2132
 5397W        W20528  12.786   1.428  15.441 -0.0579  0.0933  0.3053
 5398W        W20529   9.937  18.621   5.302  0.1773 -0.0377  0.0831
 5399W        W20530   4.079   5.462   3.365  0.1048  0.0329  0.0648
 5400W        W20531   2.774  17.495   4.334 -0.0543  0.1590 -0.0320
 5401W        W20532  14.084  16.304  13.731 -0.2281  0.3043 -0.0506
 5402W        W20533  17.436   2.151   3.945  0.3197 -0.0363 -0.0631
 5403W        W20534  18.075  16.576   4.077 -0.3026  0.1323 -0.0464
 5404W        W20535  11.939   7.745  10.976  0.1619  0.0477 -0.2399
 5405W        W20536   0.137  17.510   1.328 -0.1246  0.0563  0.2498
 5406W        W20537   3.318  16.245  13.811 -0.1722  0.0423  0.1514
 5407W        W20538  16.146   6.903  14.290 -0.0160  0.2432 -0.1362
 5408W        W20539   7.501  14.466   0.969 -0.3598 -0.0441  0.2518
 5409W        W20540  16.004   7.029   1.564 -0.0966 -0.1959  0.3757
 5410W        W20541  14.224  11.625   2.181 -0.1457  0.1352 -0.0348
 5411W        W20542   9.861   2.527   2.150  0.2937 -0.0255  0.0743
 5412W        W20543   9.793  14.202  14.765 -0.0856  0.1840  0.0156
 5413W        W20544   5.358   4.029   1.718 -0.2090 -0.4576  0.0272
 5414W        W20545  17.365  16.095   2.523 -0.0355 -0.2122  0.0789
 5415W        W20546  12.195  10.836  12.356  0.0740  0.0342 -0.0764
 5416W        W20547   6.071  14.173  12.255 -0.1181  0.2235  0.3299
 5417W        W20548  10.502   3.919   5.362  0.0809 -0.0252  0.1468
 5418W        W20549   0.592  12.052   5.331 -0.1251 -0.2268  0.1433
 5419W        W20550  12.072  17.346   0.647 -0.1403 -0.2454 -0.0879
 5420W        W20551   4.503  10.661  11.825  0.1043 -0.0978 -0.0871
 5421W        W20552   1.060   3.568   4.799 -0.2823 -0.0088 -0.1691
 5422W        W20553   2.423   9.456  14.659 -0.1926  0.3931  0.1263
 5423W        W20554  10.590  15.211   1.955  0.1374 -0.1472 -0.0309
 5424W        W20555   5.501  16.520   0.899 -0.1344 -0.0234 -0.1638
 5425W        W20556   7.986  15.357  14.529 -0.1340  0.0433 -0.0605
 5426W        W20557   2.641  12.303  12.260  0.3073 -0.1087  0.3651
 5427W        W20558  18.423  14.016   5.455 -0.1919  0.1865 -0.2034
 5428W        W20559   2.025   6.735  11.682 -0.2114  0.1539 -0.0669
 5429W        W20560   6.283  18.331  13.961 -0.1166  0.2919  0.3411
 5430W        W20561  13.054   9.735  12.188  0.0700  0.0554 -0.0221
 5431W        W20562  12.534  12.579   0.344  0.1472  0.2982  0.1632
 5432W        W20563   3.268   1.172  13.563 -0.5987 -0.1079 -0.0643
 5433W        W20564   1.308   2.736   4.308 -0.2642 -0.2699 -0.2216
 5434W        W20565  16.303   7.877   2.770  0.0012 -0.6100 -0.1990
 5435W        W20566   5.963  14.341   0.987  0.0512  0.1034  0.2887
 5436W        W20567   1.784  11.992   2.003  0.2444 -0.1920  0.0591
 5437W        W20568  15.445   6.287  13.872 -0.0781 -0.2314  0.0988
 5438W        W20569   0.800  15.434   1.127  0.0337 -0.1832 -0.1576
 5439W        W20570  18.028  14.533   5.402  0.2963  0.3609 -0.2519
 5440W        W20571  11.516  12.040  12.012  0.1396  0.0079  0.2369
 5441W        W20572   0.119   6.523   4.121 -0.1181  0.0149  0.0017
 5442W        W20573  18.097   9.807  13.321  0.1648  0.0564 -0.1280
 5443W        W20574  16.986   2.503  12.811  0.1664  0.1391 -0.0259
 5444W        W20575  13.252   1.245  15.449 -0.1950 -0.1002 -0.1580
 5445W        W20576   9.110  13.037  14.390 -0.0855 -0.3451 -0.3250
 5446W        W20577   1.403  18.078   3.684 -0.0400 -0.1024 -0.4113
 5447W        W20578  10.487   2.736   4.254 -0.2071 -0.4107  0.2483
 5448W        W20579   2.024  13.638   2.707  0.0535 -0.2499 -0.0716
 5449W        W20580  13.344  13.523  15.556  0.0966 -0.3016 -0.0965
 5450W        W20581   6.519  17.089   0.178 -0.0535  0.2629  0.2213
 5451W        W20582  11.872   0.111  11.039  0.0375  0.1379  0.0307
 5452W        W20583  17.267  11.847  14.019  0.3113  0.0401 -0.0911
 5453W        W20584  10.253  11.118  15.303  0.0982 -0.0542  0.0669
 5454W        W20585  17.122   3.806  11.228 -0.1927 -0.1890  0.4102
 5455W        W20586   0.398   5.253  12.919 -0.1327 -0.0904  0.2482
 5456W        W20587  15.106   3.001   0.328 -0.0185 -0.3049  0.1773
 5457W        W20588   3.175   6.190   5.634  0.1107  0.0530 -0.0682
 5458W        W20589  11.704   4.459  15.659  0.3680 -0.0498  0.1342
 5459W        W20590  15.778  15.537  11.627  0.0098  0.0112 -0.2430
 5460W        W20591   8.183   5.227  11.018  0.0109  0.1136 -0.1228
 5461W        W20592   2.179   1.034  13.137  0.0205 -0.3354 -0.0955
 5462W        W20593   3.374  12.450   4.425  0.2909  0.3398 -0.2950
 5463W        W20594  11.782  13.966   1.479 -0.2123  0.1013  0.3652
 5464W        W20595  12.146   1.337  11.464 -0.0897  0.0317 -0.1377
 5465W        W20596  12.229   4.946   2.129 -0.0927 -0.1361  0.0182
 5466W        W20597  13.113  14.301  11.617 -0.0588 -0.0616 -0.0491
 5467W        W20598   5.158   1.562   4.535  0.1768  0.1073  0.1519
 5468W        W20599  15.527   0.848  14.073  0.0501  0.0170  0.1511
 5469W        W20600   3.167   4.491  15.520  0.1491  0.1615  0.0655
 5470W        W20601   6.524  12.841   4.404 -0.1073  0.0778 -0.1228
 5471W        W20602   8.818  12.262   3.467  0.0125  0.3541  0.0871
 5472W        W20603   9.534   1.793  14.067 -0.3926 -0.1205  0.1420
 5473W        W20604  12.042  13.196  12.484 -0.2777  0.0031  0.1100
 5474W        W20605  18.397  14.427  13.075  0.0715 -0.3323  0.0081
 5475W        W20606  10.001  18.198   2.980  0.2222 -0.1969  0.1456
 5476W        W20607  14.596  18.045   5.511 -0.0000 -0.1023  0.0404
 5477W        W20608   9.287   3.197  10.847  0.1804 -0.0847  0.1256
 5478W        W20609  15.232  16.126  12.024  0.1305 -0.4965  0.1390
 5479W        W20610  18.676   4.816   1.711 -0.2363  0.0961 -0.3129
 5480W        W20611   4.010  17.674  14.952  0.4023  0.3104  0.1624
 5481W        W20612   4.445  14.201  12.317 -0.1942  0.0241  0.1288
 5482W        W20613  11.869  16.964   2.956  0.1390  0.0494  0.0761
 5483W        W20614   9.031  12.979   2.124 -0.1379 -0.4066  0.0868
 5484W        W20615   0.427  18.213  15.661 -0.0600  0.0237 -0.1467
 5485W        W20616  11.599  10.054  13.468  0.0458  0.2098  0.1919
 5486W        W20617  10.294  16.777  12.043 -0.2190  0.2988  0.1224
 5487W        W20618  11.570  12.922  12.902 -0.2771  0.2061  0.0110
 5488W        W20619  10.805   9.478   1.227  0.2077  0.0416 -0.2994
 5489W        W20620  12.543   3.934  11.288  0.2647  0.2463 -0.0773
 5490W        W20621  17.259   2.931  10.823 -0.0619 -0.2415 -0.0430
 5491W        W20622   3.021   0.811   3.680  0.5116  0.1692 -0.1667
 5492W        W20623   9.858   0.548   0.513 -0.2858  0.0572 -0.0646
 5493W        W20624   2.566  16.479  15.204 -0.0420  0.4099 -0.0694
 5494W        W20625   2.409   7.351   4.617 -0.0769 -0.0640 -0.3492
 5495W        W20626  16.208   2.698  15.575  0.2895  0.3229 -0.2923
 5496W        W20627  14.873   1.019   0.808 -0.0060 -0.1227 -0.1285
 5497W        W20628   3.734   5.895   3.319 -0.0988  0.0140 -0.2903
 5498W        W20629  10.684  11.184   0.816  0.2448  0.1652  0.0188
 5499W        W20630   7.499   8.940   4.422  0.1031 -0.1582  0.1103
 5500W        W20631  12.045   4.134   4.061 -0.3425  0.3199  0.0733
 5501W        W20632   1.350  14.965   0.002  0.1681 -0.0635 -0.2955
 5502W        W20633   9.139   0.208  10.552  0.0157 -0.0242 -0.2560
 5503W        W20634   3.053  14.466   2.583  0.0737 -0.0204  0.1371
 5504W        W20635   6.605  14.036  14.009  0.0067 -0.2358 -0.2533
 5505W        W20636   5.684   8.688  12.910 -0.2470  0.1457 -0.1873
 5506W        W20637  10.357   5.275   4.568  0.0084  0.3134 -0.0259
 5507W        W20638  16.408   2.955  11.649  0.1406  0.1556 -0.1879
 5508W        W20639   0.016   2.667  15.483  0.1634 -0.1756  0.0552
 5509W        W20640   0.074  11.955  12.304  0.0922  0.1428 -0.0830
 5510W        W20641   5.324  13.589  11.255  0.1581 -0.1773 -0.2371
 5511W        W20642   1.044  11.487  11.789  0.3132 -0.4572  0.0081
 5512W        W20643  14.765   3.374   2.984 -0.0211  0.0772  0.0621
 5513W        W20644  14.893   1.576  11.885 -0.0916  0.1934 -0.0440
 5514W        W20645   6.483   3.136  15.135 -0.0443 -0.1499  0.3321
 5515W        W20646   8.481   1.557   1.195  0.2572  0.3430  0.1211
 5516W        W20647   9.843   7.577   5.412  0.3001 -0.2789 -0.1529
 5517W        W20648   1.154  13.169  11.093  0.3101 -0.1305 -0.2401
 5518W        W20649  17.617   2.214   1.521  0.1205 -0.0625 -0.0438
 5519W        W20650   4.324  12.166   3.882  0.1277  0.0644 -0.2261
 5520W        W20651   9.683  14.373   1.129 -0.0240  0.1234 -0.1926
 5521W        W20652  18.512  11.252  14.606  0.1346 -0.3192 -0.0746
 5522W        W20653  11.329   0.350  14.950 -0.1127  0.3980 -0.0242
 5523W        W20654  18.005   0.858   2.791  0.0993 -0.1369 -0.1073
 5524W        W20655   1.778  13.813   5.335 -0.0791 -0.1167  0.2418
 5525W        W20656  10.006  18.183   1.214  0.0383 -0.3142  0.1737
 5526W        W20657   3.569   4.666  13.749  0.1453  0.0076 -0.1884
 5527W        W20658   1.269  15.853   5.107 -0.1900 -0.1396  0.2860
 5528W        W20659  16.310  12.920   1.166 -0.4213  0.0019  0.0480
 5529W        W20660  14.789  12.138   1.974  0.0674 -0.1129  0.0606
 5530W        W20661   2.141   8.448   4.096 -0.0518  0.0168 -0.1613
 5531W        W20662  18.485   2.385  11.090 -0.1902  0.2817 -0.0138
 5532W        W20663  11.907   4.560   3.832 -0.2843 -0.1289 -0.1093
 5533W        W20664  17.758   7.974   0.555  0.0275 -0.1710 -0.0294
 5534W        W20665   5.021  11.606   3.660  0.1018  0.0861  0.1043
 5535W        W20666  15.217  17.234   2.717 -0.1183 -0.1702  0.0164
 5536W        W20667   6.133   5.270   5.967  0.0004 -0.0353  0.1532
 5537W        W20668   9.906   7.310   4.968  0.1743 -0.1428  0.2450
 5538W        W20669   4.590  14.716   4.789 -0.3821  0.1410  0.0855
 5539W        W20670   8.844   9.609  13.345 -0.0285  0.2156 -0.1049
 5540W        W20671  10.948   7.203  12.388 -0.0507  0.0577 -0.0215
 5541W        W20672   0.943  18.643   1.886 -0.0499  0.0903  0.1983
 5542W        W20673  16.017  10.557   2.039 -0.1765 -0.1970  0.1250
 5543W        W20674  15.502  12.740  11.345  0.0340 -0.0420 -0.0581
 5544W        W20675   0.276   3.960  15.680 -0.1564 -0.1609  0.0302
 5545W        W20676  10.438  16.554  14.571 -0.1937  0.2999  0.0385
 5546W        W20677  11.152  15.442   4.972  0.0292  0.1336  0.1195
 5547W        W20678   5.968  10.014  14.997 -0.0001 -0.1013 -0.1513
 5548W        W20679  10.085   3.588  12.786  0.0158 -0.0861  0.0840
 5549W        W20680   4.189  10.071   3.047 -0.0275 -0.1500 -0.0863
 5550W        W20681   1.184   7.361   5.807 -0.0745  0.1300 -0.1981
 5551W        W20682   4.829  12.570   0.683  0.0528  0.0688 -0.5814
 5552W        W20683  10.412  11.244   5.234 -0.3473 -0.2187  0.0084
 5553W        W20684  11.999  15.842   5.497 -0.2896 -0.0338 -0.0891
 5554W        W20685  16.397  13.842   3.815  0.2356 -0.0780 -0.1524
 5555W        W20686  13.859  16.505  11.559  0.1171  0.0052  0.0597
 5556W        W20687   9.992  10.296   4.113  0.0655  0.1960  0.0156
 5557W        W20688   3.733   1.834  14.747 -0.1513  0.1008 -0.1264
 5558W        W20689  17.800   8.997   4.859  0.5295  0.2746  0.1019
 5559W        W20690   7.558  18.024  13.876  0.2575  0.0688 -0.1743
 5560W        W20691   9.023   5.337  12.968  0.0404 -0.1602  0.0828
 5561W        W20692  12.095   9.802  13.347 -0.0119 -0.0420  0.0081
 5562W        W20693   6.233   0.662  13.732 -0.2090 -0.1038  0.1650
 5563W        W20694  10.957  15.764   0.339 -0.4607 -0.2445  0.1094
 5564W        W20695  15.096  13.381   1.943 -0.0750  0.0610  0.2680
 5565W        W20696  14.665  11.717  13.707  0.0707 -0.1524  0.3566
 5566W        W20697  17.115   6.858   4.769  0.5546 -0.0255 -0.0617
 5567W        W20698   6.968   6.665  12.430 -0.2364  0.0051 -0.0708
 5568W        W20699   6.773   7.717  14.696 -0.4684  0.1652 -0.2649
 5569W        W20700   8.508  17.093  13.284  0.2315 -0.0256  0.1918
 5570W        W20701  13.146  17.348   2.593  0.3228  0.1125 -0.1723
 5571W        W20702   8.890  10.999  10.638  0.0459 -0.2747  0.0206
 5572W        W20703   2.437  17.501   5.047 -0.0190  0.1216  0.0676
 5573W        W20704  12.525  17.223  12.358  0.2671 -0.0396  0.1301
 5574W        W20705  10.873   1.670   3.501 -0.2544 -0.2003  0.1767
 5575W        W20706   8.066   0.165   2.559  0.3746 -0.2578  0.4944
 5576W        W20707   0.455   9.026  10.310  0.1845 -0.3346  0.1566
 5577W        W20708  17.713  17.932   1.265 -0.1210  0.0661  0.3142
 5578W        W20709  16.975   4.819  11.835  0.3416 -0.2368 -0.2014
 5579W        W20710  16.190  10.942  13.396  0.0131  0.2001 -0.1499
 5580W        W20711   5.243   1.377  15.063  0.1788 -0.3122 -0.2420
 5581W        W20712   6.684   3.586  14.973 -0.3656 -0.1075 -0.0770
 5582W        W20713  17.557  12.349   1.021  0.1661  0.1607  0.3195
 5583W        W20714  14.511   8.250   2.718  0.0999  0.1280 -0.0753
 5584W        W20715  13.081   2.458  15.182  0.1192 -0.0830  0.0382
 5585W        W20716  14.085  18.240   1.424 -0.1376  0.0079 -0.1536
 5586W        W20717   3.264  11.888  13.805  0.0560 -0.1336  0.2009
 5587W        W20718   5.310   1.251  13.812 -0.1505  0.1435 -0.1850
 5588W        W20719   8.698   6.127   5.156  0.0590  0.3073  0.0598
 5589W        W20720   0.319  13.656   0.948  0.3350 -0.1353 -0.0002
 5590W        W20721  17.999  15.917  12.101  0.0163  0.3728  0.2101
 5591W        W20722  14.754  18.546  12.412 -0.1823  0.1060 -0.0692
 5592W        W20723   8.272   9.645  14.917  0.1177 -0.1554  0.0470
 5593W        W20724  18.615   6.245   1.282  0.2862 -0.0264  0.1590
 5594W        W20725  12.353   5.977   5.617  0.1469 -0.2597  0.0719
 5595W        W20726   4.715  10.326  12.107 -0.1711  0.1759  0.1679
 5596W        W20727   9.616  17.518  12.335  0.0097 -0.3200 -0.0445
 5597W        W20728   5.845   5.414   4.716 -0.2152  0.0444  0.0309
 5598W        W20729   1.656  14.666  12.542 -0.0892 -0.2084 -0.2011
 5599W        W20730   2.537   3.779  12.470 -0.1277 -0.1054 -0.0182
 5600W        W20731   4.540  17.562  11.856  0.2454  0.3517 -0.0617
 5601W        W20732  11.851  18.258   3.489  0.3343  0.1776 -0.1025
 5602W        W20733  10.111  11.057   2.952 -0.0980  0.1217  0.4190
 5603W        W20734   8.517   2.199   4.190 -0.4006  0.4640  0.2810
 5604W        W20735   2.812  14.699   4.174 -0.2356  0.1500 -0.0638
 5605W        W20736  16.281  10.613   4.177 -0.1580  0.1623  0.1146
 5606W        W20737  16.587  17.652   5.800  0.3442  0.0484 -0.0034
 5607W        W20738   4.870   6.618   5.166 -0.3624  0.2944  0.1908
 5608W        W20739   1.283  17.427  13.127  0.3810 -0.1773  0.3577
 5609W        W20740   3.585   4.282   4.125 -0.0771  0.1223  0.0652
 5610W        W20741  14.033  15.955   5.737  0.0989 -0.1794 -0.2247
 5611W        W20742  15.237   6.073  11.902 -0.1892  0.4669  0.0278
 5612W        W20743  18.435   2.901   5.207 -0.1315  0.0041  0.0115
 5613W        W20744   5.915   2.873   4.195  0.1059  0.1822 -0.1155
 5614W        W20745  11.961   3.625  15.244  0.0602 -0.1148 -0.0345
 5615W        W20746   6.997  11.221  13.763  0.1933  0.1172  0.0179
 5616W        W20747  15.359   2.135   3.583 -0.0288  0.0450  0.1015
 5617W        W20748   6.823   2.971   4.351 -0.2305 -0.0768  0.4936
 5618W        W20749   1.566   9.092  13.126  0.0871 -0.1839  0.0556
 5619W        W20750   2.962  17.005  10.357 -0.1585 -0.0398  0.2076
 5620W        W20751   3.758  14.505   2.364  0.0488 -0.3439  0.1167
 5621W        W20752   9.470   1.965   5.303 -0.0968  0.1536  0.0091
 5622W        W20753   4.242   5.763  13.088  0.2970  0.0444  0.0009
 5623W        W20754   9.844   0.105   6.040 -0.2067  0.1980 -0.0348
 5624W        W20755  17.284   6.837   5.321 -0.0877  0.1765  0.2397
 5625W        W20756  16.354   4.468  10.864 -0.3071  0.2462 -0.0371
 5626W        W20757   7.841  13.566   2.379  0.0151  0.0320 -0.2530
 5627W        W20758   4.539   9.790  15.111 -0.2659 -0.0417  0.0879
 5628W        W20759   8.688   9.425   1.048  0.0253  0.0101  0.1477
 5629W        W20760   8.321   3.112   4.393 -0.0779 -0.0295  0.1358
 5630W        W20761  15.591  12.108  14.873 -0.1119  0.5273  0.3109
 5631W        W20762   1.541  17.218  12.308  0.2219 -0.0040  0.0793
 5632W        W20763   7.943   9.294   0.057  0.2251 -0.1270  0.0909
 5633W        W20764  10.415  13.815   3.601  0.2674 -0.3809  0.1852
 5634W        W20765   7.154  14.378   0.191 -0.0172  0.1383 -0.0151
 5635W        W20766  11.900  11.158   5.778  0.4000  0.1880  0.0520
 5636W        W20767  10.761   5.338   4.942 -0.2913 -0.0858  0.3553
 5637W        W20768   0.888   5.364  15.298  0.1797 -0.0200  0.0038
 5638W        W20769  17.824   6.105  11.589  0.0902 -0.0435 -0.0372
 5639W        W20770   6.271  17.168  15.250 -0.1488  0.2009  0.0936
 5640W        W20771  14.020   6.466   1.333  0.2444  0.2066  0.3086
 5641W        W20772   1.365  18.304   2.169 -0.2103 -0.1883  0.0751
 5642W        W20773   5.584  15.113  14.035 -0.2430  0.1252  0.6029
 5643W        W20774   3.629   4.609  12.551  0.0534  0.1408 -0.0100
 5644W        W20775   3.299  11.531  14.857  0.0872 -0.0751 -0.0708
 5645W        W20776  12.972   6.545  12.457  0.2470  0.3052  0.3430
 5646W        W20777   2.958  15.951   3.047 -0.0547 -0.0578  0.1051
 5647W        W20778  13.467   3.777   4.209 -0.2260 -0.1528 -0.0431
 5648W        W20779   5.191   8.994  10.893  0.2202 -0.1006 -0.0956
 5649W        W20780   1.817   3.325   2.330 -0.2119  0.0170 -0.1571
 5650W        W20781   8.222  13.348  11.801 -0.0090  0.1585  0.0744
 5651W        W20782   1.423   9.191   0.646 -0.0408  0.3473 -0.1778
 5652W        W20783  18.275  16.287  15.560  0.0864  0.1775  0.1800
 5653W        W20784  18.028  13.373  13.678  0.1437  0.0620 -0.0260
 5654W        W20785  15.874   4.138  12.202 -0.1096  0.0916  0.0894
 5655W        W20786  11.258  12.150  15.494 -0.0290 -0.1665 -0.0480
 5656W        W20787   3.191   9.751   4.607  0.1196  0.1596 -0.0311
 5657W        W20788  14.732  13.954  11.637  0.2108 -0.5853  0.2264
 5658W        W20789  12.729  17.638  12.509  0.1662 -0.3106 -0.2442
 5659W        W20790   3.699   4.649  15.420  0.3793 -0.1279 -0.0131
 5660W        W20791  12.295  18.546   0.015  0.2809  0.2811 -0.1631
 5661W        W20792  17.229  14.649   1.046 -0.0097  0.0864 -0.1005
 5662W        W20793  14.728   0.791   3.478 -0.1044  0.2111  0.1879
 5663W        W20794   1.699  15.174  12.764  0.2463 -0.1127  0.2152
 5664W        W20795  10.518  15.394   4.909 -0.1295  0.0581 -0.1442
 5665W        W20796  16.901  17.218   0.627  0.1022 -0.0500 -0.0417
 5666W        W20797   5.003  12.325   1.409  0.0475  0.0534  0.2351
 5667W        W20798  16.740  10.042  12.733 -0.1173 -0.1737 -0.2890
 5668W        W20799   7.439  16.153  11.570 -0.2033  0.2565 -0.0449
 5669W        W20800   2.926  11.074  13.633 -0.1090  0.0056 -0.0610
 5670W        W20801  12.550   8.772   4.579  0.3353 -0.0883 -0.1186
 5671W        W20802  17.709  11.458  11.369 -0.2545  0.4080 -0.1991
 5672W        W20803   5.390   8.714   4.509 -0.3800  0.0646  0.0226
 5673W        W20804   6.914   7.437   3.157  0.0838  0.0591 -0.1865
 5674W        W20805   9.570  14.873  14.227 -0.4414 -0.1730 -0.0722
 5675W        W20806   6.118  10.352  11.794  0.1974  0.1238 -0.1081
 5676W        W20807   9.135   2.606  13.570  0.1762 -0.0389 -0.0179
 5677W        W20808   5.928   2.429   9.506 -0.0950 -0.1452  0.0164
 5678W        W20809   4.973  14.514   4.160  0.0528  0.2900  0.0711
 5679W        W20810   1.979  12.804  15.611 -0.1519  0.0460  0.1285
 5680W        W20811   9.672   0.042   0.434  0.1889  0.1950 -0.2788
 5681W        W20812   0.680  12.086  11.218  0.5325  0.2122 -0.1572
 5682W        W20813  10.997   0.650   3.166  0.2356 -0.1040  0.3764
 5683W        W20814   1.552   5.681  10.716 -0.1605 -0.2725 -0.0771
 5684W        W20815   0.767  15.950   2.454 -0.1687 -0.1321 -0.0496
 5685W        W20816   3.717   2.888   0.029  0.2818  0.2317 -0.3746
 5686W        W20817  11.288  16.655   4.222  0.1261 -0.0604 -0.0155
 5687W        W20818   1.335   8.346   1.636 -0.1193  0.0206 -0.1186
 5688W        W20819   4.617   5.285   2.247 -0.1320 -0.1072  0.1057
 5689W        W20820  16.494   8.592  12.763 -0.1684  0.0912  0.1682
 5690W        W20821   9.735   8.865   1.457  0.0687  0.0039 -0.1542
 5691W        W20822   9.223  14.440   2.423  0.2064 -0.3460 -0.2402
 5692W        W20823  13.277  11.644   4.941 -0.0685  0.2085 -0.1935
 5693W        W20824  11.342  13.411   6.532 -0.0785  0.1652  0.0572
 5694W        W20825   7.831  11.242  15.149  0.3821  0.2092  0.2385
 5695W        W20826  14.695  14.207  10.523  0.0472 -0.0367  0.0097
 5696W        W20827   8.520   8.714  13.014  0.1820  0.0430 -0.2647
 5697W        W20828   2.805   9.906  15.402  0.3565  0.0187  0.0990
 5698W        W20829  13.096   1.825   0.007  0.1066  0.0315 -0.0979
 5699W        W20830  13.355  18.721  13.585  0.1421 -0.0084  0.0213
 5700W        W20831  13.292   8.378  15.098 -0.0862  0.2724  0.1808
 5701W        W20832  10.974   5.029   3.895  0.0963 -0.4617 -0.3056
 5702W        W20833   5.268   4.782  14.084 -0.1217  0.3418  0.1448
 5703W        W20834  16.239   8.513  14.984  0.0321 -0.1180 -0.2082
 5704W        W20835  18.690  16.991   2.291 -0.2786  0.0515  0.0240
 5705W        W20836  17.287  15.513   2.010  0.1681  0.2916 -0.1182
 5706W        W20837   2.818   7.598   3.373  0.0163  0.4110 -0.2611
 5707W        W20838  17.872   7.521  15.650 -0.1049 -0.0800  0.3031
 5708W        W20839   6.813   1.049   4.618 -0.4032  0.2564 -0.2791
 5709W        W20840   5.807  16.729   1.398 -0.0483 -0.4799  0.0665
 5710W        W20841   7.422   6.876  12.296  0.0553 -0.0519  0.0844
 5711W        W20842   5.358  11.313  10.733 -0.1965  0.0182 -0.2292
 5712W        W20843  18.651  10.667  10.894  0.0689  0.1241 -0.1526
 5713W        W20844   4.256   1.391   2.903 -0.1025  0.0396 -0.1902
 5714W        W20845   3.558  11.204  11.265  0.2287  0.1541  0.0916
 5715W        W20846   3.255  17.768   1.642 -0.0447 -0.3093  0.1577
 5716W        W20847   1.772   3.910   1.027  0.0770  0.2339  0.0778
 5717W        W20848   0.316  12.667   1.134 -0.3164 -0.0532 -0.3359
 5718W        W20849  15.016   6.676  13.716 -0.4285 -0.0095  0.2985
 5719W        W20850  16.091  12.575   3.105  0.2776  0.0515 -0.1500
 5720W        W20851   0.211   3.240  15.018  0.0069 -0.1718  0.1576
 5721W        W20852  15.005  15.632   0.527  0.1763  0.0364  0.1308
 5722W        W20853   2.948   1.433   1.619  0.0990  0.1564  0.0208
 5723W        W20854  18.723  13.768   2.661 -0.1815  0.2406 -0.2017
 5724W        W20855   8.916  12.143  12.492 -0.1252 -0.0301 -0.3064
 5725W        W20856  15.015   5.237   1.234 -0.1289 -0.0633 -0.0188
 5726W        W20857  11.036  10.301   1.987  0.0772 -0.0393 -0.1245
 5727W        W20858   5.468   6.009  13.460  0.0752  0.1630 -0.0965
 5728W        W20859   2.733  17.183  11.071  0.1271  0.2269  0.1755
 5729W        W20860  15.994  12.840   0.527  0.1651  0.1488 -0.1707
 5730W        W20861   8.134   6.216  13.846 -0.1013  0.2536 -0.4822
 5731W        W20862   8.493   0.904  14.259 -0.0489  0.0620  0.1083
 5732W        W20863   9.678   8.024  14.462 -0.0409  0.0085  0.1449
 5733W        W20864  11.758  18.257   5.032  0.0519 -0.0064 -0.0994
 5734W        W20865  18.567   0.254  14.939 -0.2706  0.0389 -0.1042
 5735W        W20866  10.647   0.764   6.059 -0.0609  0.0865  0.1562
 5736W        W20867   1.822   6.313   0.920  0.0683 -0.0430  0.0337
 5737W        W20868  14.208  13.629  12.912  0.1088 -0.1199 -0.4385
 5738W        W20869   5.189   2.737  11.205  0.0699 -0.0945  0.5073
 5739W        W20870  13.046   2.600   0.274  0.1897  0.0711  0.2597
 5740W        W20871  17.184   5.446   1.599 -0.0380  0.0108 -0.0629
 5741W        W20872   6.140  18.704   0.462  0.1536  0.2471 -0.3279
 5742W        W20873  13.185  10.998   5.926  0.1344 -0.2379  0.0568
 5743W        W20874  10.165   6.316  14.324 -0.0016 -0.2553 -0.1018
 5744W        W20875  11.552   6.107  11.104 -0.4970  0.0240  0.2866
 5745W        W20876   0.232   0.796   1.050 -0.3121  0.1706 -0.2379
 5746W        W20877  16.504   3.598  10.344  0.3259 -0.2285 -0.0050
 5747W        W20878   9.640  14.171  11.613  0.4006 -0.3297  0.3675
 5748W        W20879   1.006   7.575   3.718  0.0909 -0.1393 -0.4089
 5749W        W20880   1.388  18.334  15.433  0.1067 -0.1312 -0.0591
 5750W        W20881   0.493  11.109   5.026  0.1794 -0.0952 -0.1517
 5751W        W20882   0.198  13.241  11.624  0.1890  0.2017 -0.1230
 5752W        W20883  14.328   3.471   0.471  0.0809  0.2013  0.1132
 5753W        W20884   4.225  18.064  13.155 -0.1786  0.2495  0.1278
 5754W        W20885  18.558   0.706  15.102  0.1795 -0.0083  0.0506
 5755W        W20886  16.600   1.188  13.671  0.3095  0.1694  0.1210
 5756W        W20887  15.931   3.434   4.128 -0.1254  0.0166 -0.1085
 5757W        W20888   3.135  17.399  13.462  0.0935 -0.1662  0.0015
 5758W        W20889  13.495   3.369  15.133 -0.0711  0.3610  0.0996
 5759W        W20890  14.822   3.208  11.205 -0.0534 -0.2324  0.1042
 5760W        W20891  14.544  16.186   3.938 -0.1353  0.0320 -0.1492
 5761W        W20892   2.434   9.634   2.494 -0.3485 -0.3182 -0.2543
 5762W        W20893   1.066   4.769  12.964  0.0407 -0.1717  0.0595
 5763W        W20894   5.208  10.743   3.073  0.2674  0.2037  0.2398
 5764W        W20895   7.157   1.657  14.948 -0.0481 -0.0734 -0.0096
 5765W        W20896   6.313   9.830   0.619  0.1666 -0.0346  0.3167
 5766W        W20897  11.999   3.263   3.440 -0.1093  0.0013 -0.1757
 5767W        W20898  11.081   1.703   1.027 -0.0639  0.0256 -0.0531
 5768W        W20899   8.251   0.164   0.995 -0.1159  0.1961  0.2465
 5769W        W20900   3.535   9.464   4.238 -0.0653 -0.1590  0.3340
 5770W        W20901  15.788  13.671   5.106  0.0911 -0.2513  0.1013
 5771W        W20902   9.389   2.333  11.502 -0.0417 -0.5996 -0.2463
 5772W        W20903   3.594   4.745  13.075 -0.5206 -0.1888 -0.2064
 5773W        W20904   7.275  15.234  14.225 -0.2947  0.1419 -0.3224
 5774W        W20905   0.063  11.384   1.897 -0.1195  0.0637  0.1140
 5775W        W20906  13.296   6.315   3.661  0.0419  0.1449 -0.3590
 5776W        W20907   4.307  16.062   0.169 -0.0581  0.0370 -0.2742
 5777W        W20908   8.473  15.378  12.676  0.0641  0.2270  0.2756
 5778W        W20909   5.797   7.784  14.638  0.0375  0.1982  0.0320
 5779W        W20910   4.731   6.402   3.088 -0.1173  0.1317 -0.0549
 5780W        W20911   9.719  13.466  14.019  0.1341  0.2175 -0.2560
 5781W        W20912  12.713  18.308   4.661  0.0044 -0.1105 -0.1226
 5782W        W20913   4.490   1.550  13.515  0.0510 -0.0173  0.2621
 5783W        W20914   7.010   3.193  11.778 -0.0484 -0.1212 -0.1660
 5784W        W20915  12.249   3.673  14.886 -0.1042 -0.0794 -0.2826
 5785W        W20916   5.783   1.343  15.113 -0.1598 -0.2840  0.1684
 5786W        W20917   2.803  13.103   2.721 -0.3738  0.0146 -0.0627
 5787W        W20918  18.035  10.423  10.833  0.0016 -0.0751  0.0560
 5788W        W20919   9.517  14.037   4.136  0.1689 -0.0901  0.0375
 5789W        W20920   1.884   6.696   0.174 -0.2406  0.3084  0.1578
 5790W        W20921   3.570  11.901   1.225 -0.0707 -0.3011 -0.0253
 5791W        W20922   4.059   3.333   0.085 -0.0770  0.0715  0.0144
 5792W        W20923   1.074   8.341  12.768 -0.0588 -0.2283 -0.2388
 5793W        W20924  15.048   6.112  14.221 -0.0348 -0.1092 -0.1491
 5794W        W20925  13.749  11.542   1.874  0.3099 -0.1561  0.0238
 5795W        W20926   9.418   7.626   1.270 -0.5238  0.0136 -0.0819
 5796W        W20927   4.278   2.404  13.374  0.0945 -0.0573  0.0716
 5797W        W20928   9.725  18.160  14.859  0.0861  0.0778  0.0286
 5798W        W20929  10.582   8.339  12.979  0.2176  0.1133  0.0473
 5799W        W20930  12.206   9.217   5.071 -0.1455 -0.3499 -0.1708
 5800W        W20931  10.973  14.582   1.325  0.0273  0.1256  0.0256
 5801W        W20932  10.721  11.888   3.808 -0.2280 -0.2924  0.0266
 5802W        W20933   2.562   8.778  14.758 -0.0503 -0.0461  0.1604
 5803W        W20934  13.261  15.505  14.720 -0.0102 -0.2271 -0.0006
 5804W        W20935   2.648   1.080  14.539  0.2017 -0.3053  0.0142
 5805W        W20936   3.008   6.678  12.342  0.2355  0.0205  0.1497
 5806W        W20937  15.618   3.696  11.449  0.0854 -0.0767  0.4774
 5807W        W20938   5.003  12.037   2.896 -0.1830  0.0006  0.0654
 5808W        W20939  17.081   2.458   3.896  0.4656 -0.3540 -0.2406
 5809W        W20940   3.105   5.024   4.374  0.2215 -0.0504  0.3196
 5810W        W20941   6.427  13.896  15.599  0.3280 -0.1823  0.1059
 5811W        W20942  16.852  14.993   0.532 -0.1629  0.1476 -0.0699
 5812W        W20943  13.927   7.202  12.425  0.2022  0.0898 -0.2408
 5813W        W20944  11.008   1.247  15.497 -0.2413 -0.0600 -0.0770
 5814W        W20945  16.343   0.094   1.197 -0.4451 -0.0142 -0.0644
 5815W        W20946   4.208   5.797   2.098  0.0319 -0.1793 -0.3551
 5816W        W20947   0.436   4.853  13.793 -0.0352 -0.0449 -0.0923
 5817W        W20948   0.005   9.111  12.529 -0.3015 -0.1576  0.1852
 5818W        W20949  15.933   4.217  10.742  0.1917 -0.0743 -0.2743
 5819W        W20950   7.619  18.616  11.609  0.3642 -0.1917 -0.0697
 5820W        W20951   1.023   8.642  15.764 -0.0797 -0.1393 -0.0704
 5821W        W20952  16.740  10.467  13.133 -0.0333 -0.1163 -0.1020
 5822W        W20953  10.119   1.309  15.728 -0.0807  0.2623  0.0958
 5823W        W20954  15.490   1.740   2.894  0.0653  0.0172  0.0419
 5824W        W20955  16.690   0.892   2.357  0.4714  0.1658 -0.2231
 5825W        W20956   0.625  18.209  12.100  0.2316 -0.2493  0.0947
 5826W        W20957  14.757   0.994   0.307  0.0391  0.0238  0.1775
 5827W        W20958   8.934   2.128  14.884  0.1417  0.0107 -0.3439
 5828W        W20959   1.714   4.584  11.850  0.0757  0.4520 -0.0235
 5829W        W20960  13.278   9.327   6.555  0.0944  0.1179 -0.0501
 5830W        W20961   0.374  16.825  15.402 -0.0756  0.2751 -0.3041
 5831W        W20962   5.992  12.922  12.377 -0.1880 -0.0189 -0.1615
 5832W        W20963   2.308   2.552   3.999  0.1001  0.1001 -0.2379
 5833W        W20964  15.350   9.983  15.192  0.1304  0.2528 -0.1703
 5834W        W20965   5.187   7.070   0.877  0.1191 -0.0724  0.1137
 5835W        W20966  17.305  13.594   2.937 -0.1359  0.2151 -0.1925
 5836W        W20967  15.438  13.790   1.941 -0.1030  0.2134 -0.0760
 5837W        W20968  15.542  11.811  13.611  0.0687  0.3909 -0.0230
 5838W        W20969  18.523   5.389  14.319 -0.1476 -0.1904 -0.2417
 5839W        W20970  15.069  13.406  12.587  0.0850  0.2027 -0.1041
 5840W        W20971  13.339   5.658   9.841 -0.1360  0.3998  0.0119
 5841W        W20972   0.074  12.968  13.564  0.0095  0.1656 -0.0290
 5842W        W20973   1.147   6.245  13.975  0.1417  0.0754  0.3030
 5843W        W20974  10.232   7.795   1.674 -0.2946  0.1383  0.0671
 5844W        W20975   1.238   8.537  10.886  0.3123 -0.1160  0.3387
 5845W        W20976  15.087   1.705   5.255 -0.0472  0.0945  0.1442
 5846W        W20977  16.807  12.537  14.643 -0.0846 -0.3308 -0.2408
 5847W        W20978   5.964  17.358  15.579 -0.2871  0.2425 -0.2522
 5848W        W20979  12.993  18.505   0.853 -0.3238 -0.0391  0.2793
 5849W        W20980  11.918  16.877   1.082  0.2638 -0.1557  0.2386
 5850W        W20981   9.432  15.724   9.866  0.2221  0.0203  0.1367
 5851W        W20982  17.618   5.548   3.661 -0.2274 -0.2231  0.2033
 5852W        W20983   5.209   6.392   3.095  0.0706 -0.2678 -0.0425
 5853W        W20984   3.073  13.632  12.588 -0.1033  0.1710 -0.1949
 5854W        W20985  18.422  15.331  14.998 -0.0829  0.0648  0.1412
 5855W        W20986   2.675  15.495  10.579 -0.1185  0.1539  0.1029
 5856W        W20987   1.621   4.956  13.475  0.0289 -0.0982 -0.0036
 5857W        W20988  12.781   7.164   0.534 -0.2275 -0.0537 -0.0701
 5858W        W20989   9.360  13.714  13.687 -0.0529 -0.1139 -0.0235
 5859W        W20990   1.547   0.997  14.440 -0.1444 -0.3400  0.1973
 5860W        W20991  15.152  18.729  14.993  0.3032 -0.1034 -0.2167
 5861W        W20992  13.915  15.032   2.735 -0.0228 -0.1986  0.2549
 5862W        W20993  12.599  17.489   3.131  0.1461 -0.0687  0.0799
 5863W        W20994   2.776  16.567   2.277 -0.2695 -0.1494 -0.0173
 5864W        W20995   4.655  10.182   4.891  0.0310  0.1360 -0.3726
 5865W        W20996  13.306   5.827  11.616  0.2019  0.1690 -0.1241
 5866W        W20997   3.982   5.503  15.735  0.1680  0.0269 -0.3162
 5867W        W20998   8.374   7.746   3.248  0.1766  0.2483  0.1593
 5868W        W20999   7.943  14.056  12.870 -0.2803 -0.1093 -0.5257
 5869W        W21000  10.687  10.640   4.574  0.0886 -0.1339 -0.1149
 5870W        W21001  15.427  17.844   0.896 -0.3818 -0.0713 -0.1244
 5871W        W21002  18.377   6.756  13.577 -0.0050  0.2284 -0.1178
 5872W        W21003   3.540   6.446  10.511 -0.1705  0.1033 -0.0444
 5873W        W21004  13.076  15.266   1.438  0.1931 -0.0064  0.0645
 5874W        W21005  18.363  17.680  12.328 -0.1755  0.2192  0.0617
 5875W        W21006  16.464  18.705   5.709 -0.0778  0.0547 -0.0821
 5876W        W21007   6.357   0.185   2.112 -0.3662  0.3471 -0.0565
 5877W        W21008  10.871   2.110  13.730 -0.1851  0.0716 -0.0186
 5878W        W21009  18.352   4.796  11.295 -0.0619 -0.2327 -0.0897
 5879W        W21010   1.635  17.036  13.338  0.0740 -0.0798 -0.2665
 5880W        W21011  12.761  17.398  14.798  0.5501  0.0582 -0.1886
 5881W        W21012   0.894  11.968  12.859 -0.1153 -0.0685 -0.2848
 5882W        W21013   1.110   8.161  15.588 -0.0134 -0.1151 -0.1669
 5883W        W21014   0.969   2.096   2.218 -0.0499 -0.0668  0.0407
 5884W        W21015   6.286   7.572  11.415 -0.1496  0.1380  0.4317
 5885W        W21016  14.691  11.018  12.982 -0.1372 -0.1486  0.2580
 5886W        W21017  16.571  11.803  12.612 -0.3489  0.1362  0.1562
 5887W        W21018  11.564  17.299   4.708  0.1733 -0.0777 -0.1305
 5888W        W21019  17.627   7.333   9.377 -0.3284 -0.0309  0.1330
 5889W        W21020   7.773  11.048  12.016  0.0083  0.1400 -0.4171
 5890W        W21021  15.769   6.275   4.135 -0.0368 -0.2233 -0.2447
 5891W        W21022   7.544   6.522  10.986 -0.2905  0.0150 -0.0665
 5892W        W21023  16.004   8.433  13.687  0.1707  0.2625  0.1950
 5893W        W21024  16.841   7.418   3.929 -0.0037  0.1810  0.1066
 5894W        W21025   8.449   3.642  15.444 -0.3284  0.0429 -0.1056
 5895W        W21026   7.688   6.005  14.697 -0.1329 -0.0922 -0.3112
 5896W        W21027   6.866  13.837  11.350  0.1165 -0.1906  0.2316
 5897W        W21028   3.196   4.172  13.693  0.1696 -0.0293 -0.1078
 5898W        W21029   0.014   9.827   3.977  0.2296 -0.2257 -0.0372
 5899W        W21030   2.619   4.767   3.549 -0.1931 -0.0051  0.2698
 5900W        W21031  14.023   3.287  14.251  0.3985 -0.1541  0.1464
 5901W        W21032   4.222  17.847  15.382 -0.1042  0.1165  0.0084
 5902W        W21033  11.192   5.943   0.556 -0.1691 -0.1332 -0.1757
 5903W        W21034   0.032   8.122   1.019  0.0662 -0.1083 -0.3833
 5904W        W21035  15.243  18.474  13.917 -0.0583  0.0475 -0.3411
 5905W        W21036  15.600   8.584   4.883  0.1221  0.1479 -0.1677
 5906W        W21037  12.939  12.641  13.072 -0.1240 -0.2255  0.1142
 5907W        W21038  12.567  15.182   0.150 -0.0947  0.0538  0.0163
 5908W        W21039   1.371   9.713   1.154 -0.0769 -0.3967  0.1807
 5909W        W21040  15.275  14.459   4.530  0.4444  0.2887 -0.2207
 5910W        W21041   3.588  17.085   0.286  0.1562  0.2650 -0.0151
 5911W        W21042   5.699  14.285  13.535 -0.3259 -0.0415  0.0132
 5912W        W21043   3.411  14.345   5.317 -0.2124  0.1034 -0.0970
 5913W        W21044   7.566  13.969   4.312 -0.3746 -0.1018 -0.1003
 5914W        W21045   2.467   7.478   4.062  0.1838  0.1603  0.1817
 5915W        W21046  11.624   0.799   3.706  0.2852  0.1959  0.0800
 5916W        W21047  13.038   5.684  13.476  0.0085  0.1422 -0.0763
 5917W        W21048  17.271   6.550  14.482 -0.0679 -0.1194 -0.2798
 5918W        W21049   5.472   0.926  12.981  0.1627 -0.1194  0.1412
 5919W        W21050  12.606   1.318   2.999  0.0854 -0.0931 -0.0196
 5920W        W21051   6.923   9.156  15.125 -0.0050 -0.0619  0.1529
 5921W        W21052  18.281   2.440  11.609  0.0598 -0.1285  0.1989
 5922W        W21053  14.609   9.101   5.896  0.1326 -0.5415  0.5044
 5923W        W21054  13.240  10.588   5.470 -0.0121 -0.0953 -0.2267
 5924W        W21055   8.000   9.725   1.853  0.1906 -0.1618  0.2936
 5925W        W21056   9.993  16.907   3.758 -0.2463 -0.3337 -0.1539
 5926W        W21057   3.247  10.693  13.589 -0.2928  0.2007  0.1675
 5927W        W21058   0.596  12.357  10.210  0.2881 -0.2164 -0.0720
 5928W        W21059   3.165  18.668   4.472  0.4901  0.2337  0.0610
 5929W        W21060   7.203  13.143   0.754 -0.0565 -0.2653 -0.3085
 5930W        W21061  10.876   0.919  13.131  0.0015  0.0245 -0.2114
 5931W        W21062   9.851   0.996  15.427  0.0930 -0.1703 -0.1762
 5932W        W21063   5.631   9.197  13.823  0.3289 -0.5808 -0.0916
 5933W        W21064  11.409   1.608  13.088 -0.0882 -0.3596 -0.1129
 5934W        W21065   4.312  16.503   4.599  0.0633  0.2254  0.1108
 5935W        W21066  16.023  12.729  12.816 -0.1340  0.1459  0.5476
 5936W        W21067  11.841  12.056   1.008 -0.1406  0.0597  0.0400
 5937W        W21068  12.491   0.939  12.491  0.3877  0.1274 -0.2674
 5938W        W21069   9.366   3.995  13.042  0.1228  0.2316  0.0125
 5939W        W21070   7.481   6.613   4.133  0.2194 -0.1680 -0.1469
 5940W        W21071   1.945   2.198   0.982 -0.0276 -0.1155  0.2077
 5941W        W21072   1.802   8.444   2.815  0.0654  0.1393 -0.0888
 5942W        W21073   3.064   1.781  10.497 -0.2993  0.0663 -0.2729
 5943W        W21074  12.564  13.989  11.700  0.2639  0.0504  0.2444
 5944W        W21075   3.100   0.147  11.673  0.1168 -0.0089  0.1043
 5945W        W21076   5.689   0.853   4.960  0.0396  0.2232 -0.0256
 5946W        W21077  17.998   5.296   3.926  0.1060 -0.3893  0.1509
 5947W        W21078   0.116   5.429   0.578  0.4352  0.0005 -0.3710
 5948W        W21079   5.405   3.248  11.961  0.4157  0.0804  0.0844
 5949W        W21080   6.552   4.550   4.657 -0.1689  0.1001  0.1232
 5950W        W21081  17.535   2.836   0.051  0.0908  0.0607  0.1614
 5951W        W21082   0.320   9.090  12.014  0.5028 -0.0596  0.3140
 5952W        W21083   0.002  11.461   0.146  0.2186  0.2991 -0.0457
 5953W        W21084   7.056   8.708  11.239  0.0485  0.0864 -0.1837
 5954W        W21085   9.256  11.489   0.281 -0.1700 -0.1507  0.0070
 5955W        W21086   8.490   4.742  14.594 -0.1562 -0.0587 -0.0562
 5956W        W21087  11.348  10.520   1.700 -0.1169  0.1666 -0.1225
 5957W        W21088   9.145  12.485   5.037 -0.0490  0.0674  0.3415
 5958W        W21089   2.062   8.214  14.230  0.2008  0.0653  0.1803
 5959W        W21090   6.663   6.235   5.058  0.0096 -0.1281 -0.0123
 5960W        W21091  18.398  13.906   3.915 -0.0804  0.0113 -0.2003
 5961W        W21092   1.287   7.714  15.570  0.0623  0.2921 -0.2287
 5962W        W21093   5.793   6.397   9.536  0.1851 -0.0469  0.1073
 5963W        W21094  17.733   9.960   1.913  0.0427 -0.1390  0.1662
 5964W        W21095   0.323   9.814  14.626  0.1151 -0.2899 -0.2608
 5965W        W21096   3.861   8.595   5.013 -0.2024 -0.0508 -0.0785
 5966W        W21097   9.072  13.187   4.719 -0.2433  0.0548 -0.0668
 5967W        W21098   0.908  10.484  13.128 -0.2492 -0.1769 -0.4124
 5968W        W21099  12.103  16.534   1.532  0.1511 -0.4982  0.1043
 5969W        W21100   2.114   0.312   1.885 -0.0824  0.0239  0.4119
 5970W        W21101  15.719   1.652   0.044  0.2617 -0.3556 -0.0489
 5971W        W21102  15.206  11.373   4.490 -0.0118  0.0561  0.0308
 5972W        W21103   9.678   4.114   3.577 -0.4174  0.1069  0.0843
 5973W        W21104   1.699   5.073  10.722  0.4406 -0.0474 -0.1848
 5974W        W21105   2.031   8.855   2.278  0.2482  0.0078 -0.4299
 5975W        W21106   8.032   1.768  15.147  0.1137  0.0086 -0.0559
 5976W        W21107   6.759  12.173  15.075  0.1526  0.0404  0.3187
 5977W        W21108  11.439   6.899   0.493 -0.2806  0.1008 -0.2702
 5978W        W21109   2.406   1.161   1.528 -0.0095 -0.1854  0.2197
 5979W        W21110  14.202  13.645   0.573 -0.0056  0.2018  0.1901
 5980W        W21111  18.033  12.686   2.482  0.0554  0.1924 -0.0747
 5981W        W21112   6.456  11.395   4.285  0.0107  0.0884  0.1288
 5982W        W21113  15.413  16.070   3.242  0.1056  0.0111 -0.0715
 5983W        W21114   9.832  10.556  13.037  0.2453  0.1833 -0.1206
 5984W        W21115  18.299   2.039  12.414  0.1041  0.1200  0.1885
 5985W        W21116  15.826  14.108  14.737  0.1259  0.1073  0.1371
 5986W        W21117   4.804  14.492  15.221 -0.1547  0.5642 -0.1211
 5987W        W21118  15.108   1.353   1.128  0.0620 -0.2369  0.0756
 5988W        W21119   7.833   5.595  15.423 -0.0823 -0.0983  0.0992
 5989W        W21120  15.696  15.514  11.100 -0.0890 -0.3241 -0.0216
 5990W        W21121   8.807  12.770   2.632 -0.0288 -0.2545 -0.2478
 5991W        W21122  15.022  12.877   3.745  0.0356 -0.0230  0.1764
 5992W        W21123   7.618   7.065  13.119  0.1766 -0.3342  0.3663
 5993W        W21124  17.926   7.621   2.285  0.1432  0.0721  0.1493
 5994W        W21125  10.914  14.538   3.069  0.1226  0.2390  0.0884
 5995W        W21126  18.340  11.517   0.411  0.4225  0.2027  0.3266
 5996W        W21127   5.368   3.737  15.439 -0.0943 -0.1328 -0.2589
 5997W        W21128   2.286   3.445  12.801  0.2217 -0.0489  0.0717
 5998W        W21129  12.320  14.175   4.374 -0.1690  0.0183 -0.2452
 5999W        W21130   7.764   6.919  11.261 -0.1896 -0.0264  0.1358
 6000W        W21131   9.819  16.528   0.528  0.0301 -0.1633  0.3218
 6001W        W21132   2.779  18.550   0.145 -0.2996 -0.0135  0.2282
 6002W        W21133   0.172  13.303  12.619 -0.1831 -0.1707 -0.2449
 6003W        W21134  10.196   8.234   3.143 -0.0493 -0.1264 -0.1185
 6004W        W21135   9.500   3.790  11.082 -0.0475  0.0884 -0.3331
 6005W        W21136  14.426  18.750  14.240 -0.2677 -0.1321 -0.0628
 6006W        W21137  15.196   4.748   3.984 -0.1152  0.2150 -0.0232
 6007W        W21138  14.782   5.279   3.105  0.2409  0.0532  0.2633
 6008W        W21139  13.463   8.876   0.044  0.1541 -0.0100  0.2640
 6009W        W21140   5.988   2.437   4.337 -0.1645 -0.0580 -0.0313
 6010W        W21141   0.155   8.651  12.587  0.0266  0.2882  0.0186
 6011W        W21142   6.621  11.825  14.343  0.1422 -0.0220  0.0265
 6012W        W21143  11.445   0.855  12.340  0.1650  0.1156 -0.1603
 6013W        W21144  14.456   7.411   2.051 -0.1269  0.2313 -0.1926
 6014W        W21145  16.235  15.007   2.718 -0.0694 -0.0628  0.0354
 6015W        W21146   1.048   2.067   0.199  0.2846  0.1231  0.0021
 6016W        W21147   4.313   3.165  14.415 -0.0689  0.0891  0.1927
 6017W        W21148   4.403   5.596   3.730  0.1765  0.1082 -0.2320
 6018W        W21149   2.963  16.023   1.462 -0.2008 -0.2988 -0.0274
 6019W        W21150   6.853  16.999  10.519 -0.3111 -0.1100  0.1585
 6020W        W21151  15.413   1.435  11.752  0.0448  0.0630 -0.0961
 6021W        W21152   0.911   2.827  13.300 -0.2908  0.3355  0.0179
 6022W        W21153  13.720   4.584   3.626  0.2170  0.0866 -0.2680
 6023W        W21154  11.014  14.211  13.455 -0.1001 -0.0849 -0.2144
 6024W        W21155  15.201   5.067  12.775 -0.0671  0.3181  0.2982
 6025W        W21156  14.236  16.527  11.234  0.0111  0.0946  0.1463
 6026W        W21157  10.872   1.467  13.168 -0.0426 -0.3330  0.0748
 6027W        W21158   6.923   5.578   2.706  0.4235 -0.0037  0.0174
 6028W        W21159  14.070   9.238   1.057  0.0504  0.2395  0.2297
 6029W        W21160   5.788  12.969  13.997 -0.0826 -0.0939  0.3648
 6030W        W21161  15.370  14.409   1.816 -0.0858 -0.1927  0.0464
 6031W        W21162  14.480   3.190  15.523  0.1197  0.5288 -0.2039
 6032W        W21163   4.328   3.186   4.419  0.5592 -0.3287  0.1188
 6033W        W21164   1.484  17.006   0.876  0.0405 -0.1763  0.1708
 6034W        W21165  12.687   8.509   1.761  0.0577 -0.0890 -0.2392
 6035W        W21166   8.393   9.471   1.727  0.1238  0.3840  0.0615
 6036W        W21167   1.231   2.064   2.845 -0.2885 -0.0950 -0.1078
 6037W        W21168  18.424  14.661   9.841  0.3104  0.0664  0.1570
 6038W        W21169   5.472  15.844  11.334  0.4269 -0.1714  0.1118
 6039W        W21170   3.231   8.725  11.535  0.2151 -0.0818 -0.1175
 6040W        W21171   8.700   7.042   4.208  0.1402 -0.3154  0.1501
 6041W        W21172  14.771   0.317  13.358 -0.2885  0.2195 -0.1139
 6042W        W21173  10.237   2.683  10.852  0.2507 -0.0196  0.0671
 6043W        W21174  11.400  14.665   4.072  0.1780 -0.2078 -0.0222
 6044W        W21175  11.477   3.879  10.669 -0.1545  0.0747  0.1204
 6045W        W21176  15.389  16.053   5.397 -0.3560 -0.1147  0.2430
 6046W        W21177   9.404  14.324  13.172  0.3079  0.4055 -0.0809
 6047W        W21178   0.677   9.611   0.466 -0.1412  0.2244  0.3232
 6048W        W21179  14.953  15.104  13.516 -0.0148 -0.1354 -0.1962
 6049W        W21180   3.592   2.314  12.574 -0.2875  0.5411 -0.0807
 6050W        W21181  13.963   9.347   3.024 -0.1247 -0.1349 -0.0606
 6051W        W21182   7.332  11.018  12.286  0.1584  0.0518 -0.2712
 6052W        W21183   3.083   4.002   4.185 -0.2545  0.1745  0.2662
 6053W        W21184  11.954  10.892  14.157  0.3178  0.0899  0.0925
 6054W        W21185  14.770  10.209  10.781  0.2762 -0.0817 -0.1470
 6055W        W21186   8.174  18.142   1.136 -0.1295  0.1408  0.4349
 6056W        W21187   1.948  13.340   3.537 -0.0361 -0.1769  0.1653
 6057W        W21188   5.882  18.650   3.181  0.0186 -0.1608 -0.0532
 6058W        W21189   5.947  17.516  14.915  0.0840  0.0110  0.1705
 6059W        W21190  13.528  17.489   1.203  0.5232 -0.0812  0.0474
 6060W        W21191  11.532   0.074   4.997  0.1548  0.1935  0.1024
 6061W        W21192  11.993   5.433  10.645 -0.2564  0.3085 -0.0203
 6062W        W21193   7.354  12.795   1.718 -0.3999 -0.3098  0.2343
 6063W        W21194   0.785   2.045  15.557  0.1330 -0.0754  0.1261
 6064W        W21195   9.025   3.620  12.456  0.2416 -0.3373 -0.0232
 6065W        W21196  11.892   0.828  10.622 -0.0753 -0.1312 -0.2589
 6066W        W21197   8.044  14.213  15.639 -0.1354 -0.0554  0.2169
 6067W        W21198   2.409  13.854   2.391  0.1837 -0.0823 -0.0470
 6068W        W21199   9.673  13.564   5.811  0.1605 -0.0928 -0.4471
 6069W        W21200  18.736   3.287   9.697  0.1055  0.0855 -0.2139
 6070W        W21201  14.496  12.772  11.034  0.0988 -0.2372  0.0447
 6071W        W21202   8.504   1.376   2.156  0.1037  0.0985 -0.2911
 6072W        W21203  17.669  18.405  15.622  0.3670  0.1383  0.1658
 6073W        W21204  17.742   4.288   4.350 -0.1384  0.1214  0.0760
 6074W        W21205   2.288  11.816  13.559 -0.0042 -0.0419  0.0062
 6075W        W21206   6.596  10.256   5.149  0.1367  0.1127 -0.1268
 6076W        W21207  18.465   6.319   3.934  0.3863  0.0525  0.1970
 6077W        W21208   6.024   4.457  14.308 -0.0889 -0.1997 -0.3144
 6078W        W21209  15.300   5.714  10.496  0.0204 -0.1751 -0.1304
 6079W        W21210  15.119   7.093   4.061  0.1920 -0.1611  0.0178
 6080W        W21211  13.568   0.831   1.716  0.1446 -0.3396 -0.0091
 6081W        W21212   9.561  11.055  11.651 -0.0972 -0.5584  0.1132
 6082W        W21213   3.436   2.974   3.280  0.2469 -0.2168 -0.0183
 6083W        W21214   1.831   2.813   2.379 -0.0986 -0.1548 -0.0495
 6084W        W21215   8.092  13.032   3.631  0.1923  0.1147  0.1297
 6085W        W21216   6.576  18.020  14.224 -0.0394 -0.2514 -0.0529
 6086W        W21217   6.481   8.773  12.278  0.1202  0.2659 -0.1036
 6087W        W21218   2.845  17.174  11.567 -0.3161  0.0344  0.0425
 6088W        W21219  12.665  13.447  11.956 -0.0951 -0.2401 -0.4031
 6089W        W21220  16.102   1.005   4.368  0.4571  0.1334 -0.0142
 6090W        W21221   7.828  18.005  10.742 -0.0618 -0.3767  0.1147
 6091W        W21222   2.598   1.121   2.440  0.0272 -0.2457  0.0023
 6092W        W21223  11.864  13.849   2.423 -0.1704  0.0303 -0.3298
 6093W        W21224  12.174   0.453   2.272  0.0910 -0.1166  0.1598
 6094W        W21225   1.488  15.017   4.062 -0.2110  0.3418  0.1443
 6095W        W21226  16.987  14.585  10.064  0.1629 -0.3369 -0.3540
 6096W        W21227   6.038   5.349  11.912  0.1003 -0.2996 -0.0797
 6097W        W21228  16.100   1.305  15.240 -0.0131 -0.1995 -0.1315
 6098W        W21229   2.589   6.614  12.023 -0.2274 -0.0446 -0.0440
 6099W        W21230   7.644   6.568   4.937  0.1854 -0.0639 -0.1363
 6100W        W21231   8.797  13.554   2.168  0.2620  0.0045  0.0249
 6101W        W21232   7.334  10.453  15.140  0.3498 -0.1509  0.1766
 6102W        W21233   7.045   9.743  12.866  0.0884 -0.2459 -0.1895
 6103W        W21234  16.974  13.910   4.910  0.0843  0.1218  0.0421
 6104W        W21235  16.901  15.533  13.153 -0.0240  0.1547 -0.0558
 6105W        W21236  10.178  16.684   0.193 -0.2838  0.1028  0.3265
 6106W        W21237  10.082   0.024  12.328 -0.1942  0.1414  0.0871
 6107W        W21238   7.642  10.001  13.426  0.1218  0.3189 -0.0433
 6108W        W21239   5.139  18.297  10.929 -0.0051 -0.1151  0.0681
 6109W        W21240   1.338  16.505   0.621  0.0381 -0.1104 -0.1336
 6110W        W21241   6.255  18.719   4.701 -0.3021 -0.0553  0.3031
 6111W        W21242  14.738  17.204   0.853  0.0720 -0.0720  0.1739
 6112W        W21243   2.046   3.377  13.881 -0.1356  0.0820  0.1058
 6113W        W21244   2.871  10.621   0.678 -0.0094  0.1273 -0.0643
 6114W        W21245   7.318   0.505  12.589 -0.3696  0.1188 -0.0369
 6115W        W21246  13.871  17.166   3.594  0.5981 -0.0643  0.0021
 6116W        W21247   6.769   6.981  12.085  0.0703  0.0695  0.0722
 6117W        W21248   1.567   2.999   2.816 -0.0546 -0.3034 -0.1558
 6118W        W21249  12.297  15.833   1.737  0.2094 -0.2698 -0.1411
 6119W        W21250   0.037  17.262  13.873  0.0545 -0.3917  0.1355
 6120W        W21251   6.441  13.134  14.346 -0.0327 -0.2093  0.2300
 6121W        W21252   8.830   1.931   6.499  0.3107 -0.0531 -0.2836
 6122W        W21253  12.781   1.043  13.104 -0.1000  0.0151 -0.1030
 6123W        W21254  18.657   1.717   2.671 -0.1602  0.0457  0.1002
 6124W        W21255  18.031  15.915   2.013  0.1958 -0.2050  0.0422
 6125W        W21256   6.875   5.740   5.458 -0.3803 -0.0558  0.0319
 6126W        W21257   4.550   1.249  13.110  0.0312 -0.0591 -0.1519
 6127W        W21258  17.112  12.092  11.051 -0.0196  0.2331 -0.1105
 6128W        W21259  17.214   1.345   1.362 -0.0943  0.1161  0.4087
 6129W        W21260   2.013   7.653   1.539  0.1252 -0.3295  0.0349
 6130W        W21261   5.031   1.862   1.206  0.3891  0.3290 -0.2109
 6131W        W21262   2.944  13.201  15.168 -0.0575 -0.1579 -0.1275
 6132W        W21263  16.069   9.746  15.556 -0.0900  0.0950  0.1010
 6133W        W21264  16.585   1.812   3.090 -0.0046 -0.1797  0.0676
 6134W        W21265  18.150   4.349   4.620 -0.3909 -0.0506 -0.1037
 6135W        W21266   5.208   5.380  14.671  0.0394  0.2398 -0.2260
 6136W        W21267   4.045   1.189  15.237 -0.0746  0.0765  0.1941
 6137W        W21268   2.015   1.878  10.773 -0.1517  0.0993 -0.0569
 6138W        W21269  12.941  10.108   0.070 -0.0241  0.1911  0.0112
 6139W        W21270   2.203  13.255  11.469 -0.3215  0.0031 -0.2627
 6140W        W21271   6.668   7.100  13.610 -0.2251  0.3537 -0.3785
 6141W        W21272   7.210   4.092  11.038  0.0066 -0.0463 -0.1489
 6142W        W21273   3.932  13.356  11.647  0.3341 -0.1975  0.1590
 6143W        W21274  17.127  16.961  11.772  0.0444 -0.1006  0.1668
 6144W        W21275  10.372   1.679  14.424 -0.1667  0.2917  0.0204
 6145W        W21276   5.439   2.283   2.013 -0.1494 -0.1604  0.0251
 6146W        W21277  12.760  12.860   5.654  0.0218  0.1766  0.0494
 6147W        W21278  16.966   1.686   2.656  0.2041 -0.2296  0.2647
 6148W        W21279   8.334   2.841   3.078  0.0891  0.4739 -0.2797
 6149W        W21280   1.192   4.589   4.368 -0.3673  0.3554 -0.5617
 6150W        W21281   5.377   7.263   4.150 -0.1615  0.2586  0.2809
 6151W        W21282  17.721   7.032   4.545 -0.1013  0.0083 -0.0656
 6152W        W21283  10.021  17.714   4.745 -0.0297 -0.1408  0.1851
 6153W        W21284   4.297   8.481   2.299 -0.2391  0.2094  0.2881
 6154W        W21285   8.422   1.551  15.482 -0.1727 -0.2093 -0.1450
 6155W        W21286   5.680   0.372  11.810  0.3455 -0.0188  0.2952
 6156W        W21287  17.346  16.605  13.789 -0.2168  0.1332  0.4049
 6157W        W21288  16.821   5.181   3.473 -0.3714 -0.0169  0.2995
 6158W        W21289   3.986  13.055  10.189  0.2837  0.0378  0.0953
 6159W        W21290  17.274   5.046   0.315 -0.0410  0.1404  0.0519
 6160W        W21291   1.073   9.715  14.978 -0.2377 -0.3708  0.0812
 6161W        W21292   7.811  17.373  11.575  0.0118 -0.0389  0.3945
 6162W        W21293  11.459  15.054  14.167 -0.0038  0.3637  0.2286
 6163W        W21294  10.851   6.683  15.690 -0.0076 -0.0847  0.0829
 6164W        W21295  12.986   0.582  13.274 -0.3855  0.3562  0.1584
 6165W        W21296   4.423   9.215   1.492 -0.0993 -0.3669 -0.4078
 6166W        W21297   1.405   9.983   0.043 -0.0054  0.0855  0.0109
 6167W        W21298   3.794   3.978  11.769 -0.0021  0.1273  0.0377
 6168W        W21299  17.572  13.231   0.391  0.0997 -0.2145  0.1792
 6169W        W21300   7.618  14.530   4.282  0.0892  0.0687 -0.1936
 6170W        W21301  12.905  13.218  10.888 -0.3149 -0.0164  0.1098
 6171W        W21302  11.724   5.974  11.577  0.1284 -0.1107  0.1055
 6172W        W21303  11.666   7.146  15.270 -0.1390  0.0548 -0.1029
 6173W        W21304  15.595   4.503   4.872  0.3172 -0.3209 -0.1390
 6174W        W21305  16.335   8.221   4.697 -0.2209  0.0906  0.1879
 6175W        W21306  12.532  12.895   4.917  0.0930 -0.1258  0.1631
 6176W        W21307   0.784   5.218   0.715 -0.1878 -0.0328 -0.1368
 6177W        W21308   7.956  10.824  13.113 -0.2062 -0.0651  0.2037
 6178W        W21309   0.004   0.062  12.012 -0.1672 -0.2857  0.0334
 6179W        W21310   9.069  11.690  12.695  0.0556  0.2658  0.1306
 6180W        W21311  17.543  14.448  13.510 -0.3055 -0.0345 -0.1629
 6181W        W21312   0.374   0.152   4.632 -0.1060 -0.1894 -0.0324
 6182W        W21313   4.634   7.377  14.377  0.0050 -0.0704 -0.1179
 6183W        W21314   4.193   6.846  11.319 -0.0742 -0.0785  0.0091
 6184W        W21315   6.327  10.555   3.942 -0.2637 -0.0355 -0.1067
 6185W        W21316   6.009   3.087  12.772 -0.2474 -0.0776  0.0623
 6186W        W21317  13.626  18.703   3.508  0.1685 -0.2151  0.1980
 6187W        W21318   5.941  13.176   1.847  0.0948 -0.1463  0.0507
 6188W        W21319   2.028   8.740  13.299  0.0887 -0.0092  0.3161
 6189W        W21320  18.021   6.108   2.108  0.1622 -0.0182  0.2006
 6190W        W21321   4.866   8.833   0.847 -0.1307  0.0414 -0.2659
 6191W        W21322  17.978  14.351   2.794  0.1724  0.2363 -0.0487
 6192W        W21323  11.120   7.131  15.392 -0.0929 -0.0975  0.1702
 6193W        W21324  10.055   4.440  12.390 -0.0214 -0.1178 -0.1274
 6194W        W21325  14.372   2.268  13.519 -0.3363  0.2656  0.1282
 6195W        W21326  17.413   6.268  14.098 -0.0887 -0.0352  0.2434
 6196W        W21327  17.141  12.345   5.317 -0.1712  0.0785  0.1969
 6197W        W21328   1.997   6.906  14.858  0.3467 -0.0642  0.2507
 6198W        W21329  12.064  13.873   1.952 -0.4082 -0.1797 -0.1836
 6199W        W21330  17.652  12.508   1.512 -0.1459 -0.2651  0.0235
 6200W        W21331   8.386   1.385  11.620  0.1387 -0.3364  0.1441
 6201W        W21332   5.796  10.258  11.381  0.1344  0.2583 -0.2673
 6202W        W21333   5.361   6.525  12.276 -0.0285  0.0932 -0.0137
 6203W        W21334  13.542   9.367   2.338 -0.0353 -0.1052 -0.2629
 6204W        W21335   6.324  18.478   3.230  0.2523 -0.1166  0.0238
 6205W        W21336  14.005   0.286   3.554 -0.0887  0.1901  0.2491
 6206W        W21337   0.740  12.569   4.000 -0.4530 -0.0552 -0.3250
 6207W        W21338  12.658  13.578   3.516  0.2109 -0.1227 -0.1135
 6208W        W21339  11.582   5.418  14.909 -0.2749  0.1606 -0.1846
 6209W        W21340  13.865  15.942   0.501  0.1117  0.1484 -0.1340
 6210W        W21341   4.335  11.130   3.046 -0.0699 -0.1403  0.2681
 6211W        W21342  15.459  11.309  15.470  0.2631 -0.2025 -0.2014
 6212W        W21343  10.646   7.177  15.506  0.1133  0.0346  0.1084
 6213W        W21344   3.972  14.288  13.431 -0.3535 -0.1553  0.3875
 6214W        W21345  16.291   7.154   3.106  0.1588 -0.0747 -0.2869
 6215W        W21346   5.835  15.747   0.822  0.2921 -0.0256 -0.1464
 6216W        W21347   0.039   2.649   4.905  0.2451 -0.0656 -0.1688
 6217W        W21348   1.170   9.336   4.403 -0.1576  0.0859  0.0514
 6218W        W21349  11.411   3.896   1.380 -0.0432 -0.2359 -0.1243
 6219W        W21350   7.744  12.504   1.860  0.3953  0.0649  0.0250
 6220W        W21351  13.214   0.590   4.062  0.1577 -0.0132  0.1294
 6221W        W21352   9.059   7.426  13.014  0.2269 -0.1810 -0.1251
 6222W        W21353   9.964   5.334   4.305  0.2104  0.0018  0.0460
 6223W        W21354  14.561   7.726  13.994  0.2687 -0.2180 -0.2567
 6224W        W21355  11.909   9.317   3.402 -0.0271  0.1417 -0.0830
 6225W        W21356   1.807   5.958   2.812  0.0098 -0.1336  0.0600
 6226W        W21357  15.184   8.167   3.165 -0.1651 -0.3377 -0.2030
 6227W        W21358   5.236  18.049   3.570  0.0588  0.0055  0.5069
 6228W        W21359  11.324   9.881   5.442 -0.0745  0.0075 -0.1960
 6229W        W21360  14.064   8.863   4.872 -0.0121 -0.2812 -0.0267
 6230W        W21361  13.486  12.020   3.088 -0.1816 -0.3376  0.0808
 6231W        W21362   8.745   0.191  12.919  0.0166  0.1489 -0.1887
 6232W        W21363  17.545  14.360   0.358  0.0192  0.0292  0.1080
 6233W        W21364  13.847  13.375   2.233  0.0859 -0.0977 -0.0311
 6234W        W21365   0.653  11.591  13.578 -0.0836 -0.0589  0.0437
 6235W        W21366   9.035  13.955  15.704 -0.4033  0.1476 -0.0870
 6236W        W21367  10.286  16.466   3.844  0.0524  0.1428  0.1190
 6237W        W21368  10.183   5.933   0.409  0.1485  0.1274  0.0360
 6238W        W21369   3.877  13.881  13.050  0.4341  0.1978 -0.2172
 6239W        W21370  14.078  16.272   0.223  0.1634 -0.2031  0.2113
 6240W        W21371   3.146   2.738  11.591 -0.2433  0.1331 -0.1296
 6241W        W21372  13.164  18.749   3.211  0.0789 -0.1902 -0.3665
 6242W        W21373   8.411   5.386   0.511  0.0601  0.0666 -0.0694
 6243W        W21374  18.047   3.349  13.145  0.3413 -0.3551 -0.1554
 6244W        W21375  17.775   3.660   3.020  0.0275 -0.0973 -0.0815
 6245W        W21376  18.045   3.793   0.379  0.0171  0.2271  0.0956
 6246W        W21377  18.107  14.343  14.917 -0.0295 -0.2520  0.1260
 6247W        W21378   9.451   1.330  15.202  0.0380 -0.0578 -0.2895
 6248W        W21379   0.263  11.883  11.755  0.0471  0.0230  0.0742
 6249W        W21380   2.855  16.477   2.811  0.1720  0.0493  0.0303
 6250W        W21381   1.252  11.441   9.402  0.0380  0.0376  0.0659
 6251W        W21382   3.739   7.340   4.815  0.0182  0.1766 -0.1564
 6252W        W21383   9.859  12.003  15.312  0.0038  0.2772  0.2193
 6253W        W21384  15.118   1.744   0.777 -0.0571 -0.2156 -0.0419
 6254W        W21385  18.448  18.027   1.966 -0.0160 -0.3035  0.2234
 6255W        W21386   6.065   3.088   1.976 -0.0402 -0.2676 -0.1023
 6256W        W21387  12.542  17.354   0.873  0.0081 -0.3580  0.2580
 6257W        W21388  10.094   4.420   2.094 -0.0021 -0.3035 -0.1371
 6258W        W21389   3.199  16.170   5.199  0.2916  0.1390  0.1256
 6259W        W21390   2.643  13.190   0.361  0.0726 -0.1552 -0.0755
 6260W        W21391   4.523  11.686  14.442  0.1151  0.1821 -0.1464
 6261W        W21392  12.802  15.097   1.914  0.2771 -0.0487  0.4364
 6262W        W21393  18.721  17.116   6.282  0.0432  0.0883  0.1296
 6263W        W21394   1.236   4.157   2.110 -0.0814 -0.0157 -0.0731
 6264W        W21395  18.396   8.600   3.245 -0.0566 -0.1865  0.1147
 6265W        W21396  12.952  11.060   0.021 -0.0107 -0.3520  0.2841
 6266W        W21397   5.771   4.034  11.778 -0.3155 -0.2310 -0.0619
 6267W        W21398  14.781   5.139   0.260  0.3253 -0.1561  0.0822
 6268W        W21399   2.915   1.177   5.549 -0.1285  0.3414  0.1015
 6269W        W21400  18.276  16.854   1.459 -0.4075 -0.0739  0.0330
 6270W        W21401  17.418   6.215   0.280  0.0943 -0.3666 -0.2804
 6271W        W21402   1.410   5.553   3.650  0.0478  0.1689  0.0129
 6272W        W21403   2.426  15.076   3.242  0.0351 -0.4719  0.1230
 6273W        W21404   4.987   2.382   3.683  0.3531  0.3185  0.2506
 6274W        W21405   0.661   0.453   3.032  0.0807  0.0545 -0.2383
 6275W        W21406   5.535   5.248   1.151  0.1337 -0.1521  0.1926
 6276W        W21407   6.840  12.845   1.729  0.0657  0.1485  0.1765
 6277W        W21408  12.359  16.038  11.363  0.3137  0.0038  0.0560
 6278W        W21409  13.511   1.839   2.750 -0.2977 -0.1919 -0.0815
 6279W        W21410   6.322  12.267   5.491 -0.5445 -0.0141 -0.2295
 6280W        W21411   9.870   4.447  13.762 -0.2952  0.1559  0.2379
 6281W        W21412   0.393  15.904   3.863  0.1829 -0.0944  0.2082
 6282W        W21413   0.714   6.241  13.013 -0.0687  0.3285 -0.0035
 6283W        W21414  11.668  18.190  15.141 -0.1576  0.0972  0.2234
 6284W        W21415   7.697   1.740  11.200 -0.2856  0.2390 -0.1568
 6285W        W21416   8.107   4.041  10.674 -0.0398 -0.1242  0.0646
 6286W        W21417   0.515  18.494  13.544 -0.1802 -0.1498  0.0102
 6287W        W21418  16.087   2.153  15.335 -0.0049 -0.4386  0.1354
 6288W        W21419   8.619  14.441  12.036 -0.0191  0.0803  0.0710
 6289W        W21420   7.069   0.187  11.671  0.1448  0.3082  0.0902
 6290W        W21421  16.699   7.734  13.419 -0.2285  0.0375 -0.1132
 6291W        W21422  10.983  14.585   2.580  0.0828 -0.2655 -0.0455
 6292W        W21423  14.976   0.342   3.638  0.0225  0.0488 -0.0996
 6293W        W21424  18.750   1.590   0.403  0.1169  0.0899  0.2499
 6294W        W21425  13.902  12.825   2.638  0.1163 -0.3545  0.2739
 6295W        W21426  18.675   1.160   0.679 -0.5189 -0.0412  0.1202
 6296W        W21427   5.181  17.260   1.807  0.1182  0.0804  0.1017
 6297W        W21428  17.660   5.277  13.537  0.0770 -0.3106  0.1769
 6298W        W21429  18.115   6.321   4.769 -0.0287  0.0153  0.2694
 6299W        W21430   0.229  10.024   0.596 -0.0376 -0.1121  0.2306
 6300W        W21431   5.168   5.250   5.035 -0.1054  0.3352 -0.1919
 6301W        W21432  16.622  11.126  13.636  0.1610 -0.1643 -0.1084
 6302W        W21433  13.688   0.047   4.403 -0.1085 -0.3254  0.0047
 6303W        W21434  12.588   4.444  13.076 -0.0614 -0.0879 -0.1593
 6304W        W21435   3.495   5.984   4.633  0.1845  0.0590  0.2954
 6305W        W21436   2.292   9.785  14.230 -0.2019  0.2046 -0.0181
 6306W        W21437  11.738   7.958  11.561  0.3179  0.1650  0.2781
 6307W        W21438   5.604   5.097   3.896  0.2665  0.3023  0.0072
 6308W        W21439  18.375  12.355   2.608 -0.2157  0.0051  0.0124
 6309W        W21440   3.722   1.744   4.059 -0.2817 -0.0399 -0.0348
 6310W        W21441  16.349   4.441   0.739  0.4566  0.0136  0.1944
 6311W        W21442   0.316   7.174  14.332  0.0084  0.0567 -0.0364
 6312W        W21443  17.884   9.105  11.297  0.0732 -0.2307 -0.1374
 6313W        W21444   0.545   8.362   5.056  0.1715 -0.1164 -0.0947
 6314W        W21445  14.574   4.068   3.326 -0.1364 -0.0569  0.0562
 6315W        W21446   1.773  15.770   1.141  0.1543  0.0628  0.0331
 6316W        W21447   6.338  10.842   0.618 -0.1773  0.2672 -0.1865
 6317W        W21448   9.108  14.112  12.762  0.2058 -0.3601 -0.0398
 6318W        W21449   0.125   1.000  14.803  0.1309 -0.2479 -0.5965
 6319W        W21450  10.306   0.680  15.470  0.0389 -0.3141  0.0126
 6320W        W21451   7.975  13.958  10.983 -0.1908 -0.4422 -0.1125
 6321W        W21452   5.614  10.318   0.243 -0.3939 -0.3603 -0.4912
 6322W        W21453  10.254  14.138   0.641 -0.2019 -0.2725  0.0982
 6323W        W21454  13.299   4.089  14.314  0.0815  0.1471 -0.0932
 6324W        W21455  13.568  17.644   2.660 -0.0448 -0.0219  0.1588
 6325W        W21456   7.899  12.605  12.485  0.0389  0.0748 -0.1570
 6326W        W21457   1.836  10.630  14.162 -0.1512  0.0409 -0.1970
 6327W        W21458   9.620   1.964  11.848  0.3942  0.2082  0.2386
 6328W        W21459   9.561  10.975  14.610  0.0996  0.1255  0.1929
 6329W        W21460   1.656  15.814   4.471  0.0477  0.3345 -0.2552
 6330W        W21461  13.913   0.492   4.515 -0.0014  0.3159  0.0191
 6331W        W21462   3.856  16.970   5.123 -0.2021 -0.2861 -0.2178
 6332W        W21463   1.382   6.690  13.479 -0.1189  0.1088 -0.2587
 6333W        W21464   3.815  10.648   0.773  0.3618 -0.2346  0.1987
 6334W        W21465  14.784  13.950   4.831 -0.0555 -0.1479 -0.0281
 6335W        W21466   0.796   8.136   2.698 -0.1162  0.2230 -0.1279
 6336W        W21467   4.031  15.076   2.737 -0.2767  0.1727  0.1220
 6337W        W21468  18.270   6.535  12.079 -0.1109 -0.1124  0.2221
 6338W        W21469   4.820   3.336   3.107  0.3399 -0.4208 -0.0853
 6339W        W21470   7.548  16.742  14.374  0.0310 -0.3014 -0.2323
 6340W        W21471   7.417  12.678  13.488 -0.1738  0.2871 -0.1424
 6341W        W21472   6.927  17.655  14.365 -0.1289  0.1373 -0.2673
 6342W        W21473   0.767   8.713   2.534  0.4132 -0.0010  0.1710
 6343W        W21474   9.554   3.898   1.758 -0.0195  0.2037 -0.1377
 6344W        W21475  13.833  13.816  11.149 -0.1502 -0.2555 -0.4586
 6345W        W21476  13.438  12.113   4.658  0.0790  0.1929  0.2572
 6346W        W21477   8.333  12.628   1.219 -0.1843  0.3280 -0.1256
 6347W        W21478  15.106   8.549   0.780  0.0371  0.0698  0.3815
 6348W        W21479  15.173  11.048   4.857 -0.0766  0.1457  0.0659
 6349W        W21480  15.484   9.918   2.370 -0.0052  0.5035  0.0445
 6350W        W21481  11.533   4.092  13.288  0.0739 -0.1362 -0.1804
 6351W        W21482  12.350   6.101  13.803  0.1312 -0.2909  0.0133
 6352W        W21483   6.986   5.563  11.727  0.1624 -0.1195 -0.0344
 6353W        W21484   8.239   2.885   2.545  0.2515 -0.2208 -0.0882
 6354W        W21485  11.343  17.993  11.672  0.1270  0.0288 -0.1818
 6355W        W21486   7.061   7.725  13.082  0.2624 -0.4328 -0.2270
 6356W        W21487   8.035   0.814   1.588  0.1162  0.1623  0.0155
 6357W        W21488   7.089  16.707  14.673  0.1556 -0.2087 -0.1460
 6358W        W21489   5.079   4.644   0.709 -0.2779 -0.0242 -0.4924
 6359W        W21490  17.997  16.915  13.880 -0.2026 -0.1384  0.1848
 6360W        W21491  14.037   2.608   2.280 -0.1035  0.0919  0.2077
 6361W        W21492  13.862  16.382  12.053  0.1699  0.4227  0.1569
 6362W        W21493   9.581   1.494   1.951 -0.0024 -0.0240 -0.0028
 6363W        W21494   4.697   9.281  15.272  0.2843 -0.0363  0.0120
 6364W        W21495   6.352   3.945  15.165  0.5599 -0.0730 -0.1465
 6365W        W21496   7.024  10.084   3.220  0.0864  0.2499  0.1885
 6366W        W21497   7.356  16.948   1.587 -0.0504  0.1994  0.2467
 6367W        W21498   0.513  12.747   4.696  0.0096  0.2439 -0.3209
 6368W        W21499   9.876   5.581   0.811 -0.1020 -0.1112 -0.0289
 6369W        W21500   9.462   4.806   0.406 -0.2516 -0.2630 -0.2369
 6370W        W21501  14.728  14.340  12.539  0.0386 -0.1336  0.4522
 6371W        W21502   6.084   4.552  13.544 -0.0815  0.0702 -0.2405
 6372W        W21503  16.904   1.846   3.925 -0.0015 -0.1832 -0.0221
 6373W        W21504  14.955   7.392   0.875 -0.2117  0.2350  0.0003
 6374W        W21505  17.722   7.460  14.721 -0.0201  0.2465  0.2357
 6375W        W21506  10.848  11.668   3.209 -0.3176  0.1586 -0.0427
 6376W        W21507  16.548  15.921  15.060  0.0352 -0.3069 -0.1187
 6377W        W21508  10.790   1.909   2.417  0.1879  0.1802  0.0524
 6378W        W21509  13.052  14.466   1.588 -0.0001  0.0109 -0.0659
 6379W        W21510  11.273   4.962  14.983 -0.1714 -0.0206 -0.0390
 6380W        W21511  10.797   9.907   4.376 -0.7810  0.4501  0.0359
 6381W        W21512  17.446   1.908  11.352  0.0922  0.0245  0.0094
 6382W        W21513  11.653   6.323   5.328 -0.0754  0.0660 -0.0607
 6383W        W21514  16.424   6.055  11.511 -0.0641 -0.1249 -0.0530
 6384W        W21515  17.242  16.082   5.209 -0.1807  0.0094  0.0132
 6385W        W21516   1.790   0.714   1.910 -0.2122 -0.3907  0.0726
 6386W        W21517   3.077   7.085  14.370  0.1041 -0.0040  0.2223
 6387W        W21518  17.612   3.318   0.711 -0.1004  0.1428 -0.3591
 6388W        W21519   9.979  17.891   5.676 -0.2472 -0.0364 -0.2206
 6389W        W21520   0.895   0.722   1.485 -0.0278 -0.2243 -0.0913
 6390W        W21521   5.200   3.441   2.247  0.0962  0.0430 -0.0560
 6391W        W21522  11.554   9.616  11.185  0.2826  0.1000 -0.1857
 6392W        W21523  10.976   3.151   1.712  0.0567  0.0672 -0.1772
 6393W        W21524   5.458  12.259  13.649 -0.0422  0.1889 -0.0096
 6394W        W21525   6.061  10.724   2.948 -0.0460 -0.1383  0.0712
 6395W        W21526  13.624   4.959   1.919 -0.3594  0.0539  0.2916
 6396W        W21527   4.833  10.894   6.028  0.1061 -0.3159 -0.1765
 6397W        W21528   1.937  14.837  12.014  0.1467  0.1606  0.5900
 6398W        W21529   2.709  10.652   3.921 -0.0720  0.0133  0.2591
 6399W        W21530   2.887  13.082   3.525 -0.1290 -0.0495 -0.2038
 6400W        W21531  18.531   9.950  13.851  0.1087  0.3114  0.0062
 6401W        W21532   6.312   8.630  13.851  0.1409  0.1971  0.0563
 6402W        W21533  16.930   0.099   4.402 -0.1426  0.0143 -0.0870
 6403W        W21534   3.092   4.197  11.034  0.0800  0.2972  0.0311
 6404W        W21535  17.792   1.102  12.983  0.1201 -0.2142 -0.4000
 6405W        W21536  10.641   8.663   1.615  0.1816  0.0447 -0.0576
 6406W        W21537  10.685   2.764   1.858 -0.1625  0.3326 -0.1448
 6407W        W21538  15.550  15.088  14.050  0.0969  0.0244 -0.2890
 6408W        W21539   5.905   1.170  13.199  0.0805  0.2137 -0.1659
 6409W        W21540  14.510  10.679   2.142  0.1427 -0.4729  0.0002
 6410W        W21541   0.185   9.661  11.287 -0.2234  0.0594 -0.3337
 6411W        W21542  13.814   1.205   4.533  0.1940  0.0268 -0.0582
 6412W        W21543   4.276   7.266  14.046 -0.0521  0.1167  0.3035
 6413W        W21544  11.359   3.734  11.154 -0.1518 -0.0001 -0.0919
 6414W        W21545   2.838  11.194   9.848  0.0964  0.0041  0.1302
 6415W        W21546  10.775   3.600   3.275 -0.0340 -0.2237  0.0059
 6416W        W21547   5.912   4.935   1.764  0.0734 -0.1510  0.0319
 6417W        W21548   4.031   4.434  14.965  0.2360  0.3203  0.0201
 6418W        W21549   9.549  14.692   0.265 -0.0453  0.1226 -0.1202
 6419W        W21550  17.024   1.131   2.658 -0.0539  0.0127 -0.0716
 6420W        W21551  14.661   1.174  15.554 -0.2705  0.1593 -0.0968
 6421W        W21552  10.207   6.432   0.589 -0.1512  0.3374  0.1316
 6422W        W21553  18.355  18.315  13.999 -0.0365  0.0649 -0.0218
 6423W        W21554  15.731   3.222   2.193  0.1454 -0.1799  0.0400
 6424W        W21555  12.119  11.711   0.556  0.1711 -0.1488  0.1584
 6425W        W21556   9.115   1.717   1.129  0.1235  0.0168  0.1702
 6426W        W21557   7.960   8.350  11.999  0.2353  0.5437  0.3871
 6427W        W21558   4.111   9.191  10.621 -0.0820 -0.0400  0.2327
 6428W        W21559   0.956  14.489   5.468 -0.1541  0.2515 -0.0369
 6429W        W21560  17.135  10.612   4.268 -0.0408  0.2108  0.1559
 6430W        W21561  15.256   0.516   4.817  0.2722  0.1611  0.0398
 6431W        W21562  16.433  16.270  10.103 -0.3063 -0.1011 -0.0618
 6432W        W21563   6.561  15.056  10.461 -0.4654 -0.2976 -0.1813
 6433W        W21564   1.556   5.497   1.143  0.1591 -0.2877  0.4327
 6434W        W21565   0.407  12.871  12.635 -0.0661 -0.2533  0.3657
 6435W        W21566  10.103   8.566   0.412 -0.0814  0.0660  0.1474
 6436W        W21567  15.116  14.193   0.818 -0.0707 -0.0100 -0.2463
 6437W        W21568  15.498  16.065  11.593  0.0541  0.2690 -0.1907
 6438W        W21569  11.296  12.274   2.414 -0.0341 -0.2225 -0.2081
 6439W        W21570  17.361   2.686   0.660  0.0448 -0.0444  0.0921
 6440W        W21571  18.280  13.034  15.693  0.0477  0.2803 -0.0130
 6441W        W21572  10.677   8.832   0.407 -0.0831  0.0160  0.3156
 6442W        W21573   6.901   6.817   0.246  0.2472  0.0632 -0.2552
 6443W        W21574  11.180   2.672  15.055  0.2655  0.0878 -0.2633
 6444W        W21575   7.444  14.766   5.004 -0.0319  0.3395 -0.0180
 6445W        W21576  10.084   6.961   5.256 -0.2515  0.1882  0.0729
 6446W        W21577   0.563   7.715   0.264  0.2675  0.1278 -0.1306
 6447W        W21578   7.386  11.135  14.455 -0.0763  0.0600 -0.3588
 6448W        W21579   2.164   7.852   4.959 -0.2170 -0.2068  0.2498
 6449W        W21580   8.895   3.653   0.624 -0.0546  0.4272  0.1055
 6450W        W21581   8.932   4.517  14.464 -0.1905  0.1534  0.2285
 6451W        W21582   1.206   4.373   0.545  0.1127  0.3472 -0.0925
 6452W        W21583   2.620   5.716   2.325  0.0191  0.2933 -0.1892
 6453W        W21584   2.783  14.181  10.024  0.1806  0.2331  0.3055
 6454W        W21585   9.153  15.403   2.134 -0.1121 -0.3011  0.2857
 6455W        W21586   4.928  13.101  11.716  0.0928 -0.0209  0.0577
 6456W        W21587   0.291   1.297   0.969  0.0761  0.1443  0.1216
 6457W        W21588  17.677   7.443  11.364  0.0560  0.0523 -0.0644
 6458W        W21589  12.645  15.482  14.528 -0.0722  0.2766 -0.2815
 6459W        W21590   6.322   7.248  13.897 -0.0727 -0.0663  0.2517
 6460W        W21591  16.507   9.704  13.024  0.2344  0.0704  0.2765
 6461W        W21592   0.097  16.237   1.833 -0.1410 -0.1110 -0.1537
 6462W        W21593  18.389  12.566   2.105  0.0118  0.1071 -0.2450
 6463W        W21594  15.443  17.752   2.912 -0.0605  0.0210  0.0855
 6464W        W21595  17.255   4.247  10.904 -0.0823  0.1807  0.1272
 6465W        W21596   1.949  14.879   3.070  0.2179 -0.0360 -0.2830
 6466W        W21597  11.769   1.874   3.577 -0.2332 -0.0698  0.1028
 6467W        W21598   6.361  13.752  12.405 -0.2676  0.0671 -0.2073
 6468W        W21599   8.690   0.503  11.244 -0.1842  0.1583  0.1201
 6469W        W21600   5.850   9.000  10.859 -0.1462 -0.2195  0.1532
 6470W        W21601  11.074   4.526   3.852 -0.2546 -0.0170  0.2245
 6471W        W21602   4.449  14.366   1.355 -0.0023 -0.0803 -0.1649
 6472W        W21603   7.123   6.794  11.031  0.3460 -0.1526 -0.2243
 6473W        W21604  13.932   7.804   4.038 -0.1903 -0.1242 -0.0587
 6474W        W21605  13.387   4.488  12.604  0.1832 -0.4275 -0.2228
 6475W        W21606   6.254  11.669  13.654 -0.2174 -0.4685  0.2845
 6476W        W21607  16.111   9.688   3.476  0.3744  0.1823  0.0264
 6477W        W21608   3.129   1.586   2.065 -0.0811  0.4812 -0.2860
 6478W        W21609  14.350  12.848  12.264  0.0276 -0.0059 -0.0045
 6479W        W21610   5.866   0.230  12.697  0.0745 -0.2048 -0.2079
 6480W        W21611   6.782   9.042   5.759  0.0541  0.0805 -0.4687
 6481W        W21612   1.709   7.793  14.577  0.0881  0.2111 -0.2232
 6482W        W21613  14.346   6.788   2.192  0.0101 -0.0003  0.1046
 6483W        W21614  16.970   6.800  13.263 -0.1911  0.1602  0.0235
 6484W        W21615   3.638   0.109  14.176  0.2420  0.1951 -0.1661
 6485W        W21616   7.697  12.815   2.247  0.3493 -0.0562  0.0106
 6486W        W21617   7.156  14.353   1.317 -0.0453 -0.1431 -0.0732
 6487W        W21618  10.142  10.422   5.570 -0.0560  0.0161 -0.4423
 6488W        W21619   8.500   8.470   5.523  0.1594 -0.2251  0.3301
 6489W        W21620  11.184   3.717  13.442 -0.2226  0.1609 -0.0567
 6490W        W21621   6.173   1.503   0.219 -0.0843 -0.0682 -0.1054
 6491W        W21622   7.208   1.031  13.947 -0.0694 -0.3655  0.1487
 6492W        W21623   6.838  18.454   6.155 -0.4584  0.1980 -0.0140
 6493W        W21624   1.398  15.089  14.166  0.2655  0.1750 -0.0788
 6494W        W21625  10.637   0.960   4.730 -0.3456  0.0062 -0.4714
 6495W        W21626  17.658   5.785   4.085 -0.0675  0.1084 -0.2300
 6496W        W21627   2.040   1.675   2.944 -0.0013 -0.1993 -0.1750
 6497W        W21628  16.104  13.857   2.363 -0.0015 -0.2673 -0.0453
 6498W        W21629   7.123  11.722  15.740 -0.0856  0.0380 -0.3156
 6499W        W21630  17.345  15.199   0.491 -0.3409  0.2002 -0.1379
 6500W        W21631  15.695  10.364  14.382 -0.1641  0.2589  0.3241
 6501W        W21632  14.518  10.830   4.173  0.0555 -0.0265  0.0060
 6502W        W21633  14.187   6.730  11.436  0.0699 -0.1914 -0.0166
 6503W        W21634   8.929   8.193   4.798 -0.0092 -0.1350 -0.0565
 6504W        W21635   3.513  16.208   4.431 -0.1211  0.2545  0.2626
 6505W        W21636   8.086   9.925   0.433 -0.0633 -0.2734 -0.0043
 6506W        W21637  16.299   0.979   6.339  0.1923  0.1099  0.2330
 6507W        W21638   2.849   3.635  15.169  0.5338  0.2740  0.3902
 6508W        W21639  13.077   7.303   1.398  0.1063 -0.2456  0.1781
 6509W        W21640  17.631  15.560   4.674  0.0216 -0.0343  0.0333
 6510W        W21641  17.761  18.664  13.156 -0.1925 -0.1183 -0.3044
 6511W        W21642   3.948   5.694  10.799 -0.0034  0.2720 -0.0883
 6512W        W21643   4.673  12.143   0.897 -0.0507  0.1018  0.0575
 6513W        W21644   2.758   0.350  13.594 -0.1488 -0.2650  0.0529
 6514W        W21645   7.958  18.694   4.018 -0.0290  0.1767  0.1119
 6515W        W21646  16.418   7.820   3.770 -0.1373  0.0965  0.1907
 6516W        W21647  16.822  13.448  12.366  0.1190 -0.2419 -0.1745
 6517W        W21648   9.546   2.660  14.195 -0.1204 -0.1796  0.0748
 6518W        W21649  18.408   4.309   3.035 -0.0750 -0.1327  0.0221
 6519W        W21650  14.229   4.891  12.131  0.2101 -0.0294 -0.1914
 6520W        W21651  18.240   5.817   4.767 -0.1499  0.0113  0.1574
 6521W        W21652   0.206  18.403   2.710 -0.1794  0.3362  0.0539
 6522W        W21653  16.714   9.909   4.423 -0.1715 -0.1816 -0.0246
 6523W        W21654  13.359   2.898  13.767  0.1700  0.2556  0.1689
 6524W        W21655   3.939   4.783   2.785 -0.0873 -0.1317 -0.0430
 6525W        W21656  10.255  12.311  15.631  0.0409  0.1273  0.2121
 6526W        W21657   7.607   9.738  12.890  0.0222 -0.1731 -0.1527
 6527W        W21658  14.023   2.831   1.302  0.0619 -0.0691 -0.2873
 6528W        W21659   2.208   7.117  11.370 -0.1934  0.1360  0.0854
 6529W        W21660   6.767   4.642   0.030 -0.0840  0.1910  0.1576
 6530W        W21661  13.106  12.027  13.410  0.4801 -0.3305 -0.2373
 6531W        W21662  16.537   8.838   1.825 -0.0384 -0.0409 -0.6095
 6532W        W21663  16.816   0.272  12.494 -0.2490  0.0575  0.1499
 6533W        W21664   0.464   1.477   0.247 -0.2545  0.0911 -0.0615
 6534W        W21665  13.239  14.585  13.317 -0.1395 -0.1524 -0.2957
 6535W        W21666   2.821  16.694   1.294 -0.0438 -0.0055 -0.2799
 6536W        W21667   8.156   2.764   1.391  0.2288 -0.2229 -0.2201
 6537W        W21668   2.887   7.169   4.843  0.1013  0.1401  0.3380
 6538W        W21669   1.607  14.191  12.931  0.0971 -0.1964 -0.1584
 6539W        W21670   1.815   8.852   0.476 -0.1749  0.0583 -0.3084
 6540W        W21671  17.092  18.702  14.420 -0.1527  0.0489 -0.1611
 6541W        W21672  18.405  10.982   0.445  0.1866  0.0491  0.0911
 6542W        W21673   9.903  15.186  11.594  0.0159  0.1262 -0.0657
 6543W        W21674   9.449  16.284  13.309  0.2852 -0.0773 -0.1709
 6544W        W21675  18.644   3.717   0.690 -0.2594 -0.1331 -0.2436
 6545W        W21676   9.455  16.849   0.743  0.2994 -0.0929  0.0413
 6546W        W21677  13.727  17.012   2.051  0.1599 -0.0394 -0.0768
 6547W        W21678   0.852   8.141   3.237  0.0854  0.0986 -0.0020
 6548W        W21679   4.630  11.203  14.445 -0.0817  0.1084  0.0508
 6549W        W21680  14.920   0.567   5.652  0.0960 -0.2395  0.2641
 6550W        W21681   4.683  14.592  11.679 -0.0625  0.2256  0.1280
 6551W        W21682   5.183  14.163   1.876  0.4258 -0.2322 -0.0937
 6552W        W21683   2.926  16.417  12.593 -0.3155  0.1471  0.2793
 6553W        W21684   9.088  12.930   3.952 -0.1217  0.1424  0.4224
 6554W        W21685  13.192  16.464   1.252  0.0334 -0.2076 -0.2812
 6555W        W21686   8.990   9.485   1.461 -0.0122 -0.4564  0.0336
 6556W        W21687   0.702  14.540   4.966  0.0043 -0.0756 -0.0038
 6557W        W21688   8.501   4.113  13.632  0.1463 -0.0481  0.0188
 6558W        W21689  14.583   0.726   1.391  0.0242  0.0465  0.2730
 6559W        W21690   3.807   3.942   1.355  0.4745  0.1540  0.1108
 6560W        W21691  17.600  12.356  11.026 -0.0423 -0.0672  0.1934
 6561W        W21692   6.509  10.404  14.970 -0.1553  0.0377  0.0482
 6562W        W21693   1.944   3.889   5.102 -0.1802 -0.1073  0.0956
 6563W        W21694  12.161  18.179  10.854  0.0159 -0.2152  0.0544
 6564W        W21695  11.859  15.448   4.203 -0.1375  0.2249  0.1696
 6565W        W21696   8.585  10.210   4.195 -0.1948  0.2169 -0.0914
 6566W        W21697  12.362  12.606   5.865  0.0904 -0.1526  0.1831
 6567W        W21698   7.568   1.547  10.654  0.0325 -0.1267 -0.2442
 6568W        W21699  11.419   4.799  10.959 -0.1044 -0.1060 -0.0151
 6569W        W21700   3.031   7.869   2.730  0.0207  0.0934 -0.1232
 6570W        W21701   7.364  16.426  12.094 -0.3242 -0.1294  0.2220
 6571W        W21702   8.392  14.335  10.367 -0.0005 -0.3465  0.1851
 6572W        W21703  15.361   5.168  15.298  0.1131 -0.1474 -0.2609
 6573W        W21704   5.691  16.603   2.494  0.1246 -0.0968 -0.0352
 6574W        W21705   0.233  17.543  11.900  0.1566  0.0850  0.1514
 6575W        W21706   0.974  11.524   3.751 -0.3342 -0.1186  0.2307
 6576W        W21707   6.946   8.951  12.577 -0.0655  0.0185 -0.0133
 6577W        W21708  16.728   3.943  12.621  0.3078  0.1796  0.0259
 6578W        W21709  14.602   6.036   0.009  0.2647  0.0135  0.4866
 6579W        W21710  15.827   4.620   3.432  0.1322  0.3028 -0.1845
 6580W        W21711  12.659   5.454  13.198 -0.1131  0.1062 -0.2035
 6581W        W21712   7.343   6.437   0.096 -0.2180  0.1114  0.1583
 6582W        W21713   8.074   3.734   3.131  0.1684  0.0621 -0.1210
 6583W        W21714   7.853   5.565   4.254  0.0409  0.2182  0.0691
 6584W        W21715   4.153   3.234   0.564 -0.0124  0.0943  0.1733
 6585W        W21716  15.428   8.061   2.669  0.0171 -0.1318  0.0098
 6586W        W21717  13.963  18.384  12.294  0.0043  0.0047  0.1632
 6587W        W21718  17.016   5.144   2.980 -0.1318 -0.0276 -0.1457
 6588W        W21719  15.142   9.135  14.616 -0.0076 -0.2843 -0.1463
 6589W        W21720  11.819  17.132   2.449 -0.1663 -0.1045 -0.3336
 6590W        W21721  14.337   4.790  14.309  0.0633  0.0804 -0.0594
 6591W        W21722  11.283   7.176   3.283  0.1637 -0.1391 -0.1024
 6592W        W21723   4.563   3.216  12.326 -0.4325  0.1592 -0.0346
 6593W        W21724  16.578   0.048   5.224  0.2244  0.1443 -0.1938
 6594W        W21725   9.459   0.684   1.758 -0.0836 -0.1780  0.0439
 6595W        W21726   6.676  18.652  15.476 -0.0005  0.1988 -0.0890
 6596W        W21727   7.984   4.661  14.627  0.0773 -0.3522  0.0546
 6597W        W21728  13.719   8.917   1.124 -0.0178 -0.1433  0.1939
 6598W        W21729   3.049   8.360  14.366  0.2033  0.1002  0.3822
 6599W        W21730   9.015  15.461  13.021 -0.2788  0.1559  0.0120
 6600W        W21731  15.904  10.215   1.063  0.3359 -0.2128  0.1036
 6601W        W21732   6.590  18.116   4.746  0.0600  0.1599 -0.0213
 6602W        W21733  17.584   3.262   5.370 -0.0169 -0.1334 -0.1476
 6603W        W21734   7.423  13.509  11.932  0.2255 -0.0555  0.1837
 6604W        W21735  12.421   2.337   1.047  0.0008  0.2603 -0.1015
 6605W        W21736  11.349  13.302   0.773  0.4472 -0.0435  0.0405
 6606W        W21737  10.036  16.350  14.202 -0.0896 -0.0561  0.0699
 6607W        W21738  16.670  17.836  14.433 -0.0468  0.0253 -0.1282
 6608W        W21739  17.018   1.670   4.747 -0.1278  0.3860 -0.3172
 6609W        W21740  17.328   5.836  15.604 -0.0087 -0.1448 -0.0383
 6610W        W21741  11.665   8.333  11.099 -0.0703  0.0191  0.1379
 6611W        W21742  13.588  12.416   2.740  0.2502  0.0957  0.1150
 6612W        W21743   7.068   8.053   1.806 -0.3338  0.0903  0.0084
 6613W        W21744  11.428   4.124   5.422 -0.2505 -0.1427 -0.1023
 6614W        W21745   3.076  16.694   9.610  0.0817  0.1299  0.5674
 6615W        W21746   5.756   1.117   1.595  0.0920  0.1141  0.2343
 6616W        W21747   6.952  10.861  11.982 -0.0167 -0.1877 -0.1657
 6617W        W21748   6.858  17.106   5.361  0.1010 -0.0071 -0.3325
 6618W        W21749   4.631  17.079  10.526 -0.2206 -0.2002 -0.2692
 6619W        W21750   9.349   3.381   1.724  0.2628  0.0273 -0.0454
 6620W        W21751  18.253  10.299  14.201  0.0166 -0.1987  0.0856
 6621W        W21752   8.696   5.302  15.184 -0.1217 -0.0230 -0.4828
 6622W        W21753  12.023  16.313  13.052  0.0880  0.1357 -0.3264
 6623W        W21754   7.260   7.837  11.327 -0.0948  0.1978  0.0678
 6624W        W21755  16.457   7.624  14.836  0.4055  0.0538 -0.2576
 6625W        W21756  14.651  16.884  11.251 -0.0765  0.0093  0.0923
 6626W        W21757  17.492  13.053   1.679  0.0648 -0.1787 -0.2815
 6627W        W21758  12.573   0.052  14.799 -0.0790 -0.2762 -0.2652
 6628W        W21759   7.580  17.434   1.623  0.0536 -0.0380 -0.1800
 6629W        W21760  12.498   9.582   0.138  0.1101  0.1360  0.1822
 6630W        W21761   4.589   3.426   3.963 -0.1505 -0.2734  0.0573
 6631W        W21762   1.445  12.527   0.675 -0.2699 -0.0964 -0.1098
 6632W        W21763  17.531   9.884   3.834 -0.2962  0.0084 -0.2551
 6633W        W21764   4.183  13.109   3.601 -0.5762  0.0432  0.1259
 6634W        W21765  11.043   4.164   0.534 -0.2923 -0.0703  0.1677
 6635W        W21766  17.208   5.484  14.437  0.5091  0.2730  0.0425
 6636W        W21767   0.363   3.698   5.852 -0.1594 -0.3098 -0.0823
 6637W        W21768  14.069   8.674   2.466 -0.1898 -0.2253  0.0134
 6638W        W21769   4.760   3.027   4.439  0.0051 -0.3025  0.1409
 6639W        W21770   6.543   8.548  11.345  0.2335  0.0091 -0.1640
 6640W        W21771  14.083  16.667   1.174 -0.2068  0.1621  0.4647
 6641W        W21772   4.701  17.346  13.475  0.0652 -0.1243 -0.0370
 6642W        W21773   9.539  13.421   2.699  0.3072  0.1255  0.2779
 6643W        W21774   3.357   2.305  14.634  0.2502 -0.0900  0.1925
 6644W        W21775   6.979   3.648  11.257  0.1955 -0.0717 -0.1868
 6645W        W21776   0.455  13.406   9.807 -0.0960 -0.0754 -0.1596
 6646W        W21777   6.563  11.381   4.843  0.1712 -0.1962  0.1123
 6647W        W21778  16.790  13.989  12.432 -0.2667 -0.0963  0.1537
 6648W        W21779  10.526  18.661   2.264 -0.1141 -0.1880 -0.1044
 6649W        W21780   8.921   3.903  15.508 -0.1808  0.0175 -0.0586
 6650W        W21781   0.765  16.887   2.086  0.0590 -0.0938  0.4328
 6651W        W21782   8.146  12.644  11.186  0.1487  0.2385  0.2591
 6652W        W21783  12.578   9.511   0.667  0.3077  0.1195  0.1191
 6653W        W21784  15.867  17.481  14.205  0.0586  0.1832  0.0379
 6654W        W21785   4.831   7.656  11.326  0.2329  0.2232  0.0513
 6655W        W21786   7.536   0.384   4.454  0.0086  0.1741 -0.0784
 6656W        W21787  16.108  18.545   2.876  0.1225 -0.2387 -0.1938
 6657W        W21788  15.838  13.150  13.069  0.0815 -0.2584 -0.2056
 6658W        W21789   6.548  12.334   4.931  0.2540  0.0319 -0.2490
 6659W        W21790   9.534   2.251  14.855  0.3748 -0.1034  0.1097
 6660W        W21791  17.794  10.938   4.491 -0.0890  0.2233 -0.1480
 6661W        W21792   2.947   0.710   2.543  0.0571 -0.2157 -0.0013
 6662W        W21793  11.236   8.267   1.907 -0.1779 -0.2281  0.1027
 6663W        W21794   7.160   3.696   2.278  0.0670  0.0048  0.0215
 6664W        W21795   8.107   7.615  15.354  0.2164 -0.0606 -0.1151
 6665W        W21796  11.994   5.321  13.823 -0.0656 -0.0773 -0.3021
 6666W        W21797  10.645  17.004   2.132 -0.2058 -0.1725 -0.3532
 6667W        W21798   2.790   0.205  14.188 -0.0708 -0.0077 -0.0512
 6668W        W21799   4.410  14.710   0.286 -0.2965  0.0527 -0.0876
 6669W        W21800  16.901  11.105   0.577  0.1590  0.2272 -0.2162
 6670W        W21801   2.438   8.886  12.349 -0.2896  0.0175  0.2850
 6671W        W21802  13.017   0.755   2.311  0.3913 -0.2147 -0.0977
 6672W        W21803   5.180   3.441   4.729 -0.1586  0.2032 -0.0536
 6673W        W21804   6.183   5.759  13.913 -0.1080  0.2507  0.1720
 6674W        W21805  15.437   0.815   2.490  0.3036  0.0780 -0.0134
 6675W        W21806   6.650   8.555  12.685 -0.1821 -0.1022  0.0352
 6676W        W21807   1.098  13.779  15.679 -0.0669  0.2254 -0.2418
 6677W        W21808  13.836  12.862   4.225  0.0832  0.1136 -0.0106
 6678W        W21809   6.470   5.116  14.686  0.1285  0.2120  0.0287
 6679W        W21810  12.795   0.625   4.959 -0.0251 -0.4095  0.0675
 6680W        W21811  14.536   6.411   0.373  0.0429  0.0458 -0.2196
 6681W        W21812  15.773  16.489  15.062 -0.0999  0.0569 -0.3214
 6682W        W21813  10.519  17.615  11.599  0.1902 -0.1924  0.1751
 6683W        W21814   7.711   2.443  15.043 -0.2662  0.0107  0.4344
 6684W        W21815   1.493   7.454  15.080 -0.2022  0.1461 -0.0007
 6685W        W21816  10.163   5.539   1.204  0.1565  0.2946  0.0375
 6686W        W21817  11.372   4.102  14.719 -0.1784 -0.3596  0.2046
 6687W        W21818  13.318   0.635  13.666  0.1045 -0.0303  0.0274
 6688W        W21819   9.659  15.835   4.125 -0.0158  0.2707  0.1725
 6689W        W21820   9.119   0.715   9.808  0.2734  0.0156  0.0880
 6690W        W21821   1.781   4.486   4.261 -0.2958  0.2538  0.0001
 6691W        W21822   6.231   6.261   2.663 -0.0564 -0.0578 -0.3043
 6692W        W21823  13.172  11.066  10.810 -0.2501  0.1680  0.0313
 6693W        W21824   6.416   3.718   9.615  0.1036 -0.2569  0.2502
 6694W        W21825  14.525  15.506   4.106 -0.2391 -0.0171  0.2130
 6695W        W21826   4.400  16.374   3.059 -0.4530 -0.1058  0.3793
 6696W        W21827  11.649   5.868  14.949 -0.2495 -0.0948  0.4878
 6697W        W21828   7.283  16.261   1.703 -0.2388  0.1193  0.2218
 6698W        W21829  17.969   2.675   5.200 -0.0184  0.0791  0.0342
 6699W        W21830   6.586   3.099   2.104 -0.1674 -0.0392  0.3084
 6700W        W21831  17.467   4.246  11.413  0.0651  0.2624 -0.0511
 6701W        W21832  16.387  17.849   3.913 -0.2462  0.0756  0.0782
 6702W        W21833   9.958   9.636  15.160  0.2184 -0.1863  0.0563
 6703W        W21834  14.217   7.185  13.768  0.2005  0.0038 -0.0030
 6704W        W21835  18.704  16.226   0.355 -0.2657 -0.1331  0.0439
 6705W        W21836   8.374   9.998  13.397  0.1651 -0.1180  0.0436
 6706W        W21837   6.929  11.963   4.152 -0.3754 -0.3324 -0.1913
 6707W        W21838  18.599   3.082   4.212  0.3087 -0.2662  0.0060
 6708W        W21839   8.345   3.194   3.481  0.0499  0.4756 -0.1476
 6709W        W21840  11.826  12.672   4.235 -0.1740 -0.0849  0.0242
 6710W        W21841   5.563  17.384  13.239 -0.0493  0.1328  0.1541
 6711W        W21842   6.585  11.557   3.355 -0.1296  0.0941 -0.3258
 6712W        W21843  12.983   3.805   2.085 -0.1983 -0.1494 -0.2017
 6713W        W21844   9.219   7.290  15.499 -0.0725  0.1988  0.4189
 6714W        W21845  11.911   4.486   5.286 -0.1041  0.0388  0.0516
 6715W        W21846   9.343   4.550   2.817 -0.0049  0.0063  0.0884
 6716W        W21847   1.577   8.996  14.046 -0.1749 -0.1407  0.2823
 6717W        W21848  17.503   7.915  11.303  0.1930  0.2202 -0.1364
 6718W        W21849   4.109  12.657   5.069  0.0590  0.2561 -0.0413
 6719W        W21850  13.170   5.171   9.962 -0.1765 -0.0646 -0.2284
 6720W        W21851  17.119   6.082   0.760  0.5148 -0.1948 -0.0119
 6721W        W21852   3.279  18.459   1.057 -0.1953  0.0294  0.0153
 6722W        W21853   0.282  12.561   3.764 -0.1281  0.0506  0.1705
 6723W        W21854  16.806   0.988   0.653 -0.4418 -0.0790  0.0281
 6724W        W21855   6.028   6.613   0.541  0.1824 -0.2242 -0.0912
 6725W        W21856   7.129   9.290   4.243  0.2340  0.4287  0.0099
 6726W        W21857   1.933  16.482  15.052 -0.1435 -0.2282 -0.0433
 6727W        W21858   8.765   9.715   1.832  0.0358 -0.0409 -0.5011
 6728W        W21859   7.643  17.277   3.015 -0.0500  0.1174  0.1949
 6729W        W21860   8.451   3.917   3.968 -0.1530 -0.1176  0.0500
 6730W        W21861   3.636   2.879  10.523 -0.1096 -0.1049 -0.1763
 6731W        W21862   7.491   7.315  13.786 -0.1138  0.1990  0.0163
 6732W        W21863   7.538   3.453  15.237 -0.0216  0.1152 -0.0784
 6733W        W21864   5.328  17.109   3.919  0.0564 -0.0440 -0.0225
 6734W        W21865  16.784  11.342   1.100 -0.0577  0.1206 -0.0544
 6735W        W21866   6.374   2.086   5.291 -0.2085 -0.0668  0.1658
 6736W        W21867   1.434  16.057   6.046  0.1868 -0.1540 -0.0634
 6737W        W21868  18.564  10.252   1.057 -0.0126 -0.3332  0.0370
 6738W        W21869  15.529   1.208   5.519 -0.0227 -0.0204  0.0702
 6739W        W21870  14.025   0.516   5.039 -0.0936  0.0373  0.5326
 6740W        W21871  17.666  10.269  12.713 -0.1303 -0.2846 -0.1307
 6741W        W21872  11.197  16.059   3.837 -0.1830 -0.2260 -0.1525
 6742W        W21873  17.435  10.355   3.653 -0.0502 -0.1306  0.0838
 6743W        W21874   8.649   2.635  10.195  0.0261 -0.1172  0.1092
 6744W        W21875  13.700   6.000  15.469  0.1434 -0.1082 -0.1320
 6745W        W21876   0.042   3.229  13.749 -0.1621 -0.2115  0.0418
 6746W        W21877  14.351  14.562  10.897  0.3185  0.0778 -0.1444
 6747W        W21878  12.957   8.460   1.307  0.1961  0.2886 -0.1062
 6748W        W21879  15.921  12.727  13.329  0.2267 -0.3507 -0.2077
 6749W        W21880  17.656   6.324  14.730  0.0569  0.0675 -0.1715
 6750W        W21881   9.153   8.325   0.336  0.0862 -0.1125  0.1800
 6751W        W21882  12.514   3.640   2.721 -0.2749  0.2656 -0.1810
 6752W        W21883   9.604   2.280   2.963 -0.0889 -0.3019 -0.1467
 6753W        W21884   9.595  17.101  12.153  0.3333  0.3262 -0.0615
 6754W        W21885   8.112   6.106  11.736  0.0616 -0.0769  0.0070
 6755W        W21886  13.828  14.162  10.301 -0.2065  0.0958  0.0793
 6756W        W21887  15.911   4.006  14.938  0.0664 -0.3886 -0.3383
 6757W        W21888   4.850   8.182   5.377 -0.0856 -0.0206  0.2105
 6758W        W21889   1.674   6.516  14.752 -0.0336  0.1997  0.0042
 6759W        W21890  13.705   0.379  15.590 -0.2438 -0.0111 -0.0131
 6760W        W21891  15.508   9.784  12.240  0.0317 -0.0706 -0.0897
 6761W        W21892   7.564   0.109  14.353 -0.5886  0.1245 -0.1210
 6762W        W21893  15.721   6.639  10.590  0.3155  0.2455  0.1154
 6763W        W21894   5.609  16.512  14.339 -0.2228  0.0626 -0.3694
 6764W        W21895   5.986   7.443  14.310 -0.0976  0.0144 -0.4350
 6765W        W21896   0.045  12.528   4.764  0.0397  0.0172  0.1605
 6766W        W21897   6.869  12.847   0.552  0.1136  0.2392  0.1848
 6767W        W21898  14.961  18.157  15.050  0.0659 -0.1067 -0.0844
 6768W        W21899  11.376  17.925  14.320 -0.0538  0.3197 -0.0144
 6769W        W21900   7.916  10.544  12.117  0.2195 -0.0168 -0.2426
 6770W        W21901   2.113   3.858   0.547 -0.2114 -0.2521 -0.1517
 6771W        W21902   9.050  18.732  14.684  0.1279  0.0216  0.1244
 6772W        W21903  12.121   0.438   3.247 -0.0867  0.0405  0.1393
 6773W        W21904   2.020   3.501   0.889 -0.0365  0.0106  0.0217
 6774W        W21905   1.074  14.539   2.899 -0.2525  0.2158  0.1964
 6775W        W21906   7.941  10.004  15.645  0.1661 -0.2096  0.0690
 6776W        W21907  18.393  11.594  13.642  0.2744  0.3136 -0.1415
 6777W        W21908  15.884   5.333   1.105 -0.0418 -0.0657  0.3814
 6778W        W21909   2.644   4.278   5.236 -0.0206 -0.3206  0.0890
 6779W        W21910  18.514  12.925   1.701 -0.2726 -0.2044 -0.0718
 6780W        W21911   2.648  13.697   0.372 -0.5876  0.0425 -0.0851
 6781W        W21912   6.485   8.936   0.039 -0.2408 -0.0828  0.1039
 6782W        W21913   5.102   2.205  13.634 -0.0144  0.3083 -0.1328
 6783W        W21914  12.698  18.106   2.481  0.1458 -0.0501  0.1513
 6784W        W21915  16.356  11.635   1.291  0.2777  0.2028  0.0900
 6785W        W21916  18.365  15.018   1.735  0.2646 -0.1439 -0.0612
 6786W        W21917   7.579  12.356  13.857  0.0773 -0.0238  0.1553
 6787W        W21918  13.664   4.996  12.776 -0.1316  0.0075 -0.1772
 6788W        W21919  14.577  10.704   4.671  0.1211 -0.1677  0.2676
 6789W        W21920  16.674   8.473   0.436 -0.1519  0.2517 -0.1462
 6790W        W21921   4.557  16.034  10.815  0.0801 -0.4508 -0.4833
 6791W        W21922  12.429  11.348   0.693  0.0883 -0.0440  0.2835
 6792W        W21923   1.744  18.005  15.221 -0.0414 -0.2317  0.1186
 6793W        W21924   4.425  15.428  12.059 -0.0871  0.0348 -0.1673
 6794W        W21925  16.104   5.665   0.002  0.4020 -0.4076  0.0402
 6795W        W21926   1.174   6.977   0.649  0.1047 -0.1147 -0.4142
 6796W        W21927  15.058  10.029  13.208 -0.0928  0.3185  0.3374
 6797W        W21928   2.393   5.986   3.751 -0.1375 -0.1358 -0.3026
 6798W        W21929   9.415  17.278  10.221  0.0723 -0.1181 -0.1261
 6799W        W21930  17.604   7.395  14.053  0.0125 -0.2820  0.1725
 6800W        W21931   0.944  11.104  13.351  0.1763 -0.0833  0.0736
 6801W        W21932  10.244   5.909  11.637  0.0442 -0.0917  0.3056
 6802W        W21933  10.488  18.031   3.187  0.0935  0.0521  0.2358
 6803W        W21934  17.106   9.477  14.477  0.2262 -0.0713  0.1531
 6804W        W21935  11.884   7.830   3.161  0.4417 -0.1589  0.1756
 6805W        W21936   0.787  14.206  11.192 -0.0393  0.0510  0.1815
 6806W        W21937  15.429   8.005  15.691  0.0650  0.0552  0.2505
 6807W        W21938   9.944   1.350   2.299  0.2348 -0.0018  0.2159
 6808W        W21939   1.860  15.653  12.542 -0.3420 -0.1242  0.2444
 6809W        W21940   6.329  18.179  10.566 -0.1155 -0.2956 -0.0837
 6810W        W21941  15.974  13.807   5.684  0.2968  0.0280 -0.0641
 6811W        W21942   4.477  14.729   2.024  0.3458 -0.1786 -0.3090
 6812W        W21943  10.321   6.554   1.531  0.0506  0.2159 -0.1983
 6813W        W21944   4.175  11.082   3.509  0.0166 -0.1027 -0.0361
 6814W        W21945   9.882   3.972  13.676  0.0548 -0.0064  0.0930
 6815W        W21946  15.962   4.453  15.325  0.1091  0.2236  0.0488
 6816W        W21947  13.589  11.329  15.606  0.0989 -0.0987  0.2158
 6817W        W21948   6.350  17.846  12.036 -0.4313 -0.0707 -0.2764
 6818W        W21949   6.114  13.781  14.092 -0.0042  0.0291  0.1231
 6819W        W21950  11.429  15.541   2.780 -0.0666  0.1265 -0.0527
 6820W        W21951  15.939  15.956   5.165 -0.1289 -0.1734  0.3301
 6821W        W21952  17.410   1.466  14.997  0.3133 -0.1289 -0.0792
 6822W        W21953   9.030   2.418   1.444 -0.0380 -0.1155 -0.2096
 6823W        W21954  14.296   9.619   1.463 -0.1616  0.1774  0.4315
 6824W        W21955   9.735   2.086  13.682 -0.1210  0.0282  0.1645
 6825W        W21956   3.308   1.189  15.180  0.3211  0.1749  0.0514
 6826W        W21957   3.885  10.368  11.357  0.0020 -0.2033  0.2536
 6827W        W21958   0.976   2.126  12.559 -0.0980 -0.2030  0.0573
 6828W        W21959   2.138  15.186  11.535 -0.1786  0.0777 -0.0379
 6829W        W21960   6.259   1.013   4.557  0.1830  0.0756  0.3868
 6830W        W21961   1.350  13.115   4.911 -0.1597  0.0660  0.1396
 6831W        W21962   8.603  14.990   3.208 -0.2973 -0.1902 -0.2649
 6832W        W21963   1.451  18.372   1.130 -0.1825 -0.1076 -0.0994
 6833W        W21964  17.671   3.840   3.633 -0.0392  0.3250 -0.3981
 6834W        W21965  17.304   5.559   4.336 -0.1625 -0.0015 -0.0376
 6835W        W21966  11.059   8.147  12.537 -0.0584 -0.0837 -0.0535
 6836W        W21967   0.723  12.338  11.850  0.0179  0.0906  0.1017
 6837W        W21968   5.125   5.499   2.429 -0.2115 -0.0660  0.0250
 6838W        W21969  18.457   7.644  14.212  0.1277  0.2848 -0.1715
 6839W        W21970  16.181  12.107  15.410  0.2058 -0.0737  0.1095
 6840W        W21971  14.900  13.603   0.099 -0.0978 -0.3047 -0.1707
 6841W        W21972  11.648   8.965  12.287 -0.1805 -0.1336 -0.1079
 6842W        W21973   8.431   7.789   4.245 -0.4033  0.0576  0.0429
 6843W        W21974   2.592  14.135  10.888  0.0374  0.0889  0.0710
 6844W        W21975   3.427  11.151  13.748 -0.0378 -0.1666 -0.0679
 6845W        W21976   3.507   2.134  12.100 -0.4346 -0.1738  0.4500
 6846W        W21977   9.688   9.017   5.795 -0.1773  0.1275  0.0365
 6847W        W21978   7.501  17.605  13.568 -0.1432  0.1663 -0.2456
 6848W        W21979   9.505   0.183  10.950  0.2006 -0.0043 -0.2128
 6849W        W21980   7.379  16.137  12.921  0.1689  0.2828  0.0949
 6850W        W21981   9.485  13.045  14.015  0.0601  0.2104 -0.0489
 6851W        W21982   2.196  13.133  10.768 -0.1961 -0.2074  0.0457
 6852W        W21983   9.477   0.274   2.983 -0.0828 -0.0498  0.1510
 6853W        W21984   9.777  17.850  10.139  0.2095  0.0722  0.2511
 6854W        W21985   7.288  10.654   6.156 -0.1389  0.3833  0.1733
 6855W        W21986   8.841   0.854   4.820 -0.0267  0.1504  0.1420
 6856W        W21987  12.564  11.575   3.481  0.0897  0.1447 -0.0395
 6857W        W21988   6.636   1.964   5.672 -0.0582  0.0378  0.0949
 6858W        W21989   0.502   8.363   4.193 -0.0249 -0.2287 -0.1784
 6859W        W21990   8.270  17.278   3.457  0.3241 -0.2180 -0.0470
 6860W        W21991   1.354   9.358   2.025  0.3462 -0.1565 -0.0023
 6861W        W21992  17.004  13.166  12.014 -0.1519  0.3031 -0.1702
 6862W        W21993   1.753   2.361  12.164  0.2860  0.1537 -0.2166
 6863W        W21994  16.518   5.396   3.762  0.0065 -0.2979 -0.3421
 6864W        W21995  16.363   9.213   0.479  0.4104 -0.1936 -0.1269
 6865W        W21996  17.761  18.378   0.674 -0.0405  0.1865 -0.0455
 6866W        W21997  10.937   8.005  15.386 -0.0781  0.1003  0.0373
 6867W        W21998  16.361   1.492   1.237  0.0053 -0.0710 -0.0701
 6868W        W21999   5.053   4.141  15.340 -0.1146  0.0179 -0.0514
 6869W        W22000  18.096  18.228   3.802 -0.2762  0.0933  0.0645
 6870W        W22001   2.127   3.535   1.864 -0.0956 -0.0459  0.2584
 6871W        W22002  10.764  16.387  11.319 -0.0650  0.1243 -0.1016
 6872W        W22003   5.381   2.102   3.759  0.2442 -0.1740 -0.0882
 6873W        W22004   8.194   3.321   4.864 -0.2605  0.0207  0.3388
 6874W        W22005  10.504   0.855   3.033  0.0828  0.2456 -0.3312
 6875W        W22006   3.053   5.949   1.530 -0.1250 -0.3474 -0.2047
 6876W        W22007   0.884   9.530  13.521 -0.2302  0.0979 -0.0384
 6877W        W22008  10.698  15.813  15.694 -0.0732  0.2222  0.0295
 6878W        W22009  10.846  12.128   6.662  0.3571  0.0643  0.3453
 6879W        W22010   7.586   8.925   1.418 -0.3696 -0.0332  0.0336
 6880W        W22011  17.445   7.201  10.789  0.3612 -0.0348 -0.1758
 6881W        W22012   5.363   8.692  11.953 -0.0823 -0.4282  0.0023
 6882W        W22013   5.235   8.121   1.025  0.0766 -0.0186  0.0216
 6883W        W22014  14.508  12.044   2.499 -0.0483  0.0528 -0.0871
 6884W        W22015  16.613   5.714  12.012  0.2853 -0.1301 -0.1541
 6885W        W22016   8.304  14.643   5.607 -0.1237  0.0963 -0.0744
 6886W        W22017  14.764   3.533  15.327  0.2701 -0.1270  0.0467
 6887W        W22018  13.966   6.386   5.001 -0.2261  0.0112 -0.0471
 6888W        W22019   4.656   5.390   4.125  0.1201  0.4979 -0.0044
 6889W        W22020  11.683  13.468  10.441 -0.1165 -0.1226  0.1384
 6890W        W22021   5.495  15.951  10.736  0.2346  0.2631 -0.0747
 6891W        W22022  15.048   3.094  14.449  0.0384  0.2081 -0.0842
 6892W        W22023  13.249   6.641   6.008 -0.2428  0.0032  0.1775
 6893W        W22024  10.237   1.036   0.326  0.0774  0.3103  0.1990
 6894W        W22025   6.170   3.985   0.895  0.1783  0.1471 -0.3529
 6895W        W22026   4.071  10.218  10.532  0.2028  0.0034 -0.3296
 6896W        W22027   7.713   4.466   1.223 -0.1551  0.1347  0.1270
 6897W        W22028   1.390   2.154  14.461  0.2774  0.0850 -0.1419
 6898W        W22029   1.550  13.572  15.629 -0.2105 -0.1323  0.2248
 6899W        W22030  16.987   5.404   3.980 -0.1928  0.1701 -0.1292
 6900W        W22031  11.867  18.742   4.625 -0.1964  0.0154 -0.0503
 6901W        W22032   8.856  15.484   3.379  0.0469  0.2721 -0.0221
 6902W        W22033  11.183  14.748  12.144 -0.0669  0.0600  0.2204
 6903W        W22034   5.424   1.824  13.292 -0.2071  0.0835  0.2520
 6904W        W22035  10.300   8.064   5.647 -0.0387  0.0483  0.0568
 6905W        W22036   7.491  17.910   4.433  0.2714 -0.4447  0.1049
 6906W        W22037   0.767   1.040  12.393 -0.2926  0.2910 -0.1095
 6907W        W22038   1.540   5.302   3.169  0.2522 -0.1609  0.0268
 6908W        W22039   5.866   0.476  14.545  0.0057 -0.2457  0.0722
 6909W        W22040   0.546   4.351   4.026 -0.4995  0.1371  0.1126
 6910W        W22041   5.711   5.015  11.187  0.2890 -0.0275 -0.2282
 6911W        W22042  17.011   3.117   2.091  0.1349 -0.2454 -0.1161
 6912W        W22043   8.353  16.569   4.458  0.0694  0.2423 -0.4430
 6913W        W22044   1.090  16.670  11.037  0.0666 -0.0332 -0.1282
 6914W        W22045   9.283   9.476  12.242 -0.0761  0.3312 -0.1433
 6915W        W22046  12.601   7.099  15.206  0.0572  0.3503  0.0145
 6916W        W22047   1.325  17.959  14.346 -0.1140 -0.0198 -0.0445
 6917W        W22048  13.275   4.078   2.415 -0.0482 -0.4685  0.3232
 6918W        W22049   6.492  14.997   4.611 -0.2085 -0.3618 -0.3857
 6919W        W22050  15.413  14.981  15.499  0.0657 -0.0319 -0.1938
 6920W        W22051   9.949   9.736  14.342  0.2290 -0.3042 -0.2907
 6921W        W22052  14.471   8.219  14.944 -0.1042 -0.1542  0.1547
 6922W        W22053   3.952  14.560   0.476  0.1974  0.0340  0.1211
 6923W        W22054   6.637  15.029  12.884  0.3344  0.2758 -0.0388
 6924W        W22055  15.857  13.666   0.562  0.2337  0.2216  0.1281
 6925W        W22056   4.745  15.717  13.532  0.0921  0.0651 -0.2507
 6926W        W22057   6.760  18.477   2.904 -0.4277 -0.4909  0.1437
 6927W        W22058  10.540  10.811   5.664  0.0537 -0.1335 -0.1909
 6928W        W22059  13.164   4.843   1.826 -0.1098  0.1526  0.0691
 6929W        W22060   5.119   2.209  10.131  0.0808  0.0027 -0.0552
 6930W        W22061  12.683   4.584   2.471 -0.0135 -0.2042  0.0948
 6931W        W22062   4.232  12.792   2.415  0.0168 -0.1976  0.0007
 6932W        W22063   3.995   9.958  15.540 -0.1355 -0.0725 -0.0564
 6933W        W22064  18.656  11.704  12.722 -0.1149 -0.0054  0.0117
 6934W        W22065  16.096  16.553   5.894  0.3011  0.0400  0.1094
 6935W        W22066   6.828   6.355   2.166 -0.2364 -0.1182  0.2980
 6936W        W22067   7.197  15.836  14.139  0.1232  0.0544 -0.0815
 6937W        W22068  16.182   5.884   5.035  0.0812 -0.1170  0.2024
 6938W        W22069   3.304   4.319  12.805  0.1398 -0.3300 -0.2463
 6939W        W22070  13.196  12.934  12.717  0.0658  0.1068 -0.0962
 6940W        W22071  16.902  14.433  12.663  0.1916 -0.1045  0.3350
 6941W        W22072  18.092  17.325   0.610  0.6707  0.0804  0.5508
 6942W        W22073   9.047   3.565  12.011 -0.2042  0.2905  0.4085
 6943W        W22074  17.604  13.143  13.909  0.2131 -0.0129  0.0446
 6944W        W22075   4.531   4.601   1.555  0.1083  0.2139 -0.2214
 6945W        W22076  10.317   1.949   0.400  0.1480  0.1985  0.0475
 6946W        W22077  14.971  11.108  15.612  0.0915 -0.0309  0.0505
 6947W        W22078  17.215  15.586   5.521 -0.0258  0.1725 -0.3115
 6948W        W22079  10.555   4.882  10.491  0.2627 -0.4036 -0.0169
 6949W        W22080  15.693   5.347   0.242 -0.0754 -0.0432  0.0515
 6950W        W22081   3.176   2.939   0.148 -0.3331  0.0280  0.1008
 6951W        W22082   1.477   8.374  14.593  0.2032  0.0676  0.2263
 6952W        W22083   6.026  11.792  11.541 -0.1271  0.2074  0.2023
 6953W        W22084   4.581   7.514   9.338  0.2222 -0.1001  0.0435
 6954W        W22085  14.752   3.423   4.447 -0.2325  0.3093  0.2549
 6955W        W22086  17.925   7.442  11.997  0.2227  0.0759  0.1128
 6956W        W22087  17.923  15.141  11.670 -0.1058 -0.0535 -0.1246
 6957W        W22088   6.066  15.005   0.055  0.0518 -0.0944 -0.3000
 6958W        W22089  10.235  17.360   3.889 -0.3495 -0.1584  0.1763
 6959W        W22090  14.031   4.556  11.811  0.3443  0.1940 -0.1508
 6960W        W22091   8.317  12.396  11.580 -0.1301  0.1071  0.3747
 6961W        W22092   9.230  12.754  13.732 -0.2608  0.1746 -0.0214
 6962W        W22093  16.371   0.388   0.162  0.0910  0.1040 -0.2278
 6963W        W22094  14.198  12.557  12.783  0.1319 -0.2156 -0.2409
 6964W        W22095  12.825   7.105   3.593  0.2385 -0.0071 -0.1437
 6965W        W22096   1.368  10.331  11.339  0.1763 -0.0293  0.1075
 6966W        W22097  13.550  13.743   2.541 -0.1038  0.1891  0.0056
 6967W        W22098  14.368  10.003   4.406  0.0329 -0.0180  0.0185
 6968W        W22099   2.737  12.550  11.785  0.1248 -0.2871 -0.0104
 6969W        W22100  11.910   8.681   2.801 -0.1110 -0.1970  0.1681
 6970W        W22101  13.974   5.481  15.319 -0.0799 -0.0988  0.1729
 6971W        W22102  12.183  13.657   4.299 -0.0991 -0.1663  0.0638
 6972W        W22103   0.140  14.894  11.968  0.1387 -0.0115 -0.1158
 6973W        W22104   9.972   2.728   2.574 -0.1259  0.2318  0.2868
 6974W        W22105   8.954  11.465  13.348  0.3695  0.1337 -0.0240
 6975W        W22106   1.935  10.089  13.943  0.0658  0.1425  0.0115
 6976W        W22107  17.411   5.197   1.189  0.2780  0.2436 -0.2173
 6977W        W22108   0.454  10.461   0.842  0.0653  0.0207 -0.1021
 6978W        W22109  11.758  16.906  13.459  0.4241 -0.0611 -0.0657
 6979W        W22110   5.987   1.888  13.218 -0.0990 -0.2997  0.1869
 6980W        W22111  14.445   0.008   4.258  0.1136  0.0408 -0.2794
 6981W        W22112   4.038   1.304  12.677  0.1624 -0.0994  0.2521
 6982W        W22113  12.310  14.760  14.664  0.0946  0.3347 -0.2314
 6983W        W22114  12.427  11.055   3.275  0.1072  0.1959  0.1697
 6984W        W22115   9.781  17.405  11.647 -0.2164 -0.1527 -0.0258
 6985W        W22116  10.599   3.096   3.307 -0.1995 -0.2785 -0.0942
 6986W        W22117  14.111  16.784   5.298  0.0144 -0.1448 -0.0712
 6987W        W22118   3.178   7.296  15.711  0.1455  0.1550  0.0297
 6988W        W22119  13.064   1.954   2.497 -0.0830  0.2244  0.4310
 6989W        W22120   2.072   1.743   1.250 -0.0173 -0.1273  0.0841
 6990W        W22121  10.075   1.377   5.531 -0.2314 -0.0275  0.0262
 6991W        W22122  10.673  12.096   1.162 -0.0422  0.2041  0.0769
 6992W        W22123   4.103  13.393  12.930 -0.2755 -0.1517 -0.4908
 6993W        W22124   3.595  11.607   9.723 -0.1615 -0.2605  0.3082
 6994W        W22125   2.144   0.246  10.895 -0.0743 -0.0052 -0.1044
 6995W        W22126   6.567   2.912  15.599 -0.1731 -0.1626  0.1684
 6996W        W22127  11.487  10.056   3.635  0.0083 -0.0942 -0.3440
 6997W        W22128  18.632   8.883   3.782 -0.2269 -0.0049 -0.0257
 6998W        W22129  13.310  16.753  14.274 -0.0741  0.1136 -0.1300
 6999W        W22130  18.486   4.495  14.872 -0.0008 -0.1629 -0.0947
 7000W        W22131   0.458  18.728  14.354 -0.0188  0.1686  0.2384
 7001W        W22132  16.341  13.918   0.463 -0.1181  0.1627  0.2210
 7002W        W22133  10.775  12.208  11.052 -0.1679 -0.1169 -0.1338
 7003W        W22134  13.860   0.116   2.495 -0.1372  0.2677  0.0301
 7004W        W22135   6.624   1.053  11.087 -0.1811  0.0929 -0.1878
 7005W        W22136   9.465   9.291   1.558  0.1015  0.1231 -0.0637
 7006W        W22137   3.777  16.627  12.899 -0.0422 -0.4563 -0.1564
 7007W        W22138  15.040   7.577  13.788  0.0225  0.2616 -0.0916
 7008W        W22139  15.667   3.054   3.333  0.2162  0.0206  0.0945
 7009W        W22140  16.741  14.831  12.445 -0.1267  0.0680  0.1611
 7010W        W22141   7.497   6.082   4.911  0.0315 -0.0731  0.0141
 7011W        W22142  18.260  10.310  10.315 -0.3160 -0.3198 -0.0925
 7012W        W22143   5.270  10.967   5.030  0.3539 -0.2109  0.2987
 7013W        W22144  17.428   2.041   5.773  0.0187  0.0845 -0.0746
 7014W        W22145  18.287   6.772  13.082  0.1753  0.0365 -0.1319
 7015W        W22146   0.500   8.462   0.820  0.0503  0.0394  0.1428
 7016W        W22147  15.231   1.280   0.562 -0.3449  0.0647  0.2282
 7017W        W22148  11.663  14.906   3.337  0.3149 -0.2483  0.1909
 7018W        W22149   7.005   1.946  14.589 -0.2116  0.2599 -0.0862
 7019W        W22150   2.591  17.111   4.657 -0.2722 -0.3379  0.2977
 7020W        W22151   3.500  15.425  11.971  0.0994 -0.0240  0.0679
 7021W        W22152   0.591  10.832   1.420  0.2089  0.0405 -0.2239
 7022W        W22153  13.384   0.262   1.667 -0.0277 -0.2839 -0.4409
 7023W        W22154  11.018   5.012   0.750 -0.0881 -0.0076 -0.0494
 7024W        W22155  11.844   5.656  11.060 -0.3602  0.1973  0.3496
 7025W        W22156  10.965  15.283  12.716  0.0933 -0.0197 -0.1122
 7026W        W22157  15.164  10.750   2.979 -0.2780 -0.1516  0.1491
 7027W        W22158   9.730   0.897  14.862 -0.1654  0.3463  0.3846
 7028W        W22159  17.299   7.416  14.477  0.0383  0.4979  0.2205
 7029W        W22160  13.423  13.691   0.680 -0.1690 -0.0950 -0.1436
 7030W        W22161  18.235  16.514  14.058 -0.1027 -0.0445  0.0372
 7031W        W22162  14.737   1.443   2.046 -0.2255  0.1196 -0.0991
 7032W        W22163  14.775   1.982   1.201 -0.0756  0.1084 -0.1037
 7033W        W22164  13.581   9.470   1.814  0.2617  0.0596  0.1086
 7034W        W22165  10.507   5.729   9.964 -0.1584 -0.2095  0.0372
 7035W        W22166   8.687   2.320   9.749 -0.0829  0.2419 -0.4056
 7036W        W22167   1.270  12.850  13.870  0.4698 -0.0069 -0.1730
 7037W        W22168   8.530   2.596  11.871  0.1994 -0.1308  0.1596
 7038W        W22169  18.291   1.103  14.348  0.1263 -0.1589  0.1776
 7039W        W22170  15.380  11.018  10.834 -0.1371  0.4876  0.1115
 7040W        W22171   7.227  14.969  12.200  0.2732  0.0414 -0.1621
 7041W        W22172   7.560  15.691   4.916 -0.0515  0.0399 -0.0768
 7042W        W22173   4.805   6.400  15.526  0.0975  0.1094  0.1576
 7043W        W22174   9.820   7.464   4.166 -0.2314  0.3556  0.2142
 7044W        W22175   3.646   7.335  15.320  0.1653  0.5325  0.2168
 7045W        W22176  15.799   5.767   1.299 -0.2927  0.2032  0.4232
 7046W        W22177   4.014   5.924   4.534 -0.1140  0.1386 -0.2347
 7047W        W22178   4.495  16.712   9.564 -0.0977  0.2854 -0.1848
 7048W        W22179   8.130  11.945  13.757 -0.0625 -0.2582 -0.0147
 7049W        W22180  15.871  17.291   4.722 -0.0552  0.0015  0.2484
 7050W        W22181   8.887   0.106   3.114 -0.0359  0.0064 -0.2036
 7051W        W22182   8.707  17.050   3.581  0.1117 -0.4030 -0.2534
 7052W        W22183  12.082  10.261   2.905  0.0819 -0.0440 -0.2263
 7053W        W22184   3.493  14.547  13.351 -0.1132  0.1067  0.0327
 7054W        W22185  18.075   7.732  13.350 -0.0808  0.2285  0.3467
 7055W        W22186   1.300   3.363  13.167  0.0228  0.1510 -0.2132
 7056W        W22187   1.772  11.534  12.441  0.3832 -0.2611 -0.3677
 7057W        W22188   7.791   1.048  10.808 -0.0517 -0.0832 -0.2377
 7058W        W22189   6.957   9.714   0.962 -0.1840  0.3696 -0.0798
 7059W        W22190  17.573  18.136  15.144  0.1200  0.0304  0.1226
 7060W        W22191  18.130   7.462  12.906 -0.1124  0.3071  0.0803
 7061W        W22192  18.250  13.415   3.768  0.1167 -0.0836  0.3645
 7062W        W22193   6.102   0.781  14.210 -0.1742 -0.0396  0.0382
 7063W        W22194  10.389   5.947  12.598  0.3043 -0.1543  0.0633
 7064W        W22195  13.618   9.302   3.987  0.1259 -0.2750 -0.2614
 7065W        W22196   4.771   4.573   4.437  0.1763  0.1472  0.1039
 7066W        W22197   8.261  11.298   0.147  0.2859 -0.0572 -0.4036
 7067W        W22198  11.477  15.786  11.053 -0.4049  0.1444 -0.1746
 7068W        W22199  17.644  11.192   0.978 -0.0815 -0.1305  0.1101
 7069W        W22200  16.842   6.658   1.589 -0.0487  0.3050 -0.0001
 7070W        W22201   0.288  12.103  15.550  0.2752 -0.0542  0.1859
 7071W        W22202  16.317  16.863  12.877 -0.0404 -0.2219  0.2963
 7072W        W22203  15.744  12.937   3.472 -0.3004 -0.2555  0.3224
 7073W        W22204   8.864  11.431   2.096  0.1450  0.1505  0.1558
 7074W        W22205  14.856  17.477   2.404  0.0097 -0.0705  0.0548
 7075W        W22206   5.203   1.113  11.694  0.0065  0.2945  0.1911
 7076W        W22207   9.414   5.449   0.794 -0.2189  0.1605 -0.3011
 7077W        W22208   8.373   7.433  10.909 -0.1916 -0.0965  0.3640
 7078W        W22209   0.572  11.510  14.138  0.1755 -0.3423 -0.2848
 7079W        W22210   2.186   7.711  14.344  0.1331  0.2732 -0.2778
 7080W        W22211  10.684   2.139   3.637 -0.1349 -0.0843 -0.0203
 7081W        W22212   8.062   8.269   0.842  0.0978  0.1835  0.1614
 7082W        W22213  18.031  14.134   0.520  0.1151 -0.1406  0.2292
 7083W        W22214   5.579  13.999   4.632 -0.0240 -0.1271  0.1494
 7084W        W22215   9.136  10.375   3.902 -0.0881 -0.0511  0.2499
 7085W        W22216   1.254   3.652  10.376 -0.0327  0.3761  0.2318
 7086W        W22217  14.263  15.625  15.749  0.2753 -0.2425  0.0681
 7087W        W22218   6.808   2.616  12.894 -0.3095  0.1605 -0.3638
 7088W        W22219  17.082   6.171  14.695  0.1306  0.3058  0.1012
 7089W        W22220  13.856   3.052  13.747  0.1269 -0.0386 -0.1329
 7090W        W22221   2.839   4.656   0.499 -0.0013 -0.0659  0.2041
 7091W        W22222  14.168  10.074   3.523  0.3187  0.1559  0.2416
 7092W        W22223   2.145   3.240  11.321 -0.2405 -0.1702 -0.1290
 7093W        W22224  13.701  16.684   1.589  0.0348  0.0777 -0.3798
 7094W        W22225  13.990   3.015   1.817  0.2447 -0.0936 -0.0510
 7095W        W22226  16.280  17.755  15.732  0.1057 -0.1301 -0.0196
 7096W        W22227   6.878  10.662  12.482 -0.0774 -0.2023 -0.2337
 7097W        W22228   0.462  11.185   0.067 -0.2858 -0.2370  0.0033
 7098W        W22229  14.057   1.400  11.053 -0.4017  0.0397  0.1929
 7099W        W22230   5.265  12.460   3.170  0.0391  0.0006 -0.0445
 7100W        W22231   3.847  12.655   0.755  0.0817  0.2376 -0.0061
 7101W        W22232   4.640   0.435   4.049  0.1782 -0.2785 -0.2622
 7102W        W22233   2.596  18.655   3.744  0.0677 -0.1317 -0.1474
 7103W        W22234   9.469  14.515   4.438  0.1159  0.4895  0.1804
 7104W        W22235  14.790   8.191   1.186  0.0263  0.1918  0.2555
 7105W        W22236  10.950   6.891   4.958  0.3921  0.1701 -0.3741
 7106W        W22237   9.314  17.653  13.232 -0.4197  0.1699  0.2482
 7107W        W22238   9.832   3.686  10.259  0.0514  0.1907 -0.5346
 7108W        W22239   3.497  10.560  15.742  0.2441 -0.1618  0.0749
 7109W        W22240   8.635   9.646  11.570 -0.0160  0.0551 -0.1628
 7110W        W22241   7.376   4.429  14.183  0.1255 -0.1266  0.0404
 7111W        W22242   6.391  16.007  14.526 -0.0787 -0.3359 -0.1499
 7112W        W22243   2.445   9.205  11.396  0.1458  0.0034 -0.1898
 7113W        W22244   1.742  10.889   1.433  0.2537 -0.0740 -0.0281
 7114W        W22245  18.443  12.230  12.995  0.0270 -0.0700  0.2461
 7115W        W22246   3.670   9.120  13.670  0.1553  0.1157  0.1967
 7116W        W22247  14.895  10.816   0.321 -0.1705 -0.1144 -0.1491
 7117W        W22248   9.035  10.463  12.846 -0.1974  0.0561 -0.4547
 7118W        W22249  16.228   9.388  15.013 -0.2423  0.0283  0.1400
 7119W        W22250   6.207   3.278   4.410  0.2283  0.2032  0.0212
 7120W        W22251   8.534  10.840   0.146 -0.1378  0.0134 -0.4156
 7121W        W22252  18.213   0.669  11.759 -0.0643 -0.0698 -0.1007
 7122W        W22253   9.679   6.439  15.075  0.0246  0.0391 -0.3242
 7123W        W22254  18.650  16.553  13.193 -0.3919  0.0593  0.0477
 7124W        W22255   0.442   2.481   3.266 -0.2062  0.0742  0.0585
 7125W        W22256  18.684   2.857  14.948 -0.1482  0.0820  0.0953
 7126W        W22257   9.365  13.697   0.351  0.0035  0.1368 -0.2421
 7127W        W22258  16.190   2.681  12.996 -0.0899  0.3312  0.1952
 7128W        W22259   9.847  14.370  13.414  0.0419  0.0469  0.0848
 7129W        W22260   4.230   9.017  12.512 -0.0028 -0.0095 -0.1764
 7130W        W22261  11.158   8.981  12.024  0.1552 -0.2249 -0.1113
 7131W        W22262  16.498  16.429  15.023  0.0951  0.1779 -0.3531
 7132W        W22263   9.077  14.921  12.123 -0.1441  0.1606  0.0316
 7133W        W22264   7.256  11.346   1.010 -0.0430  0.0825  0.1921
 7134W        W22265  13.064   2.636   3.406 -0.1297  0.0666 -0.0099
 7135W        W22266  11.642  15.303   0.857  0.0884 -0.0324  0.4290
 7136W        W22267   5.828   0.213  13.203 -0.2011  0.2902  0.0304
 7137W        W22268   1.243   3.800  12.095 -0.0052 -0.4339  0.1167
 7138W        W22269   3.574  16.050  10.892  0.1331 -0.1769 -0.3138
 7139W        W22270   0.338  11.923  13.292  0.0887  0.1713  0.3971
 7140W        W22271  13.020  10.405   2.999  0.1252 -0.2138  0.1369
 7141W        W22272   3.543   3.284  10.905  0.0413  0.1303 -0.1283
 7142W        W22273   7.610  17.934  12.296 -0.0928  0.3346 -0.1670
 7143W        W22274  17.930   7.731   1.410 -0.2785 -0.3911 -0.1288
 7144W        W22275   1.488   1.905  10.801  0.2571  0.0158 -0.0224
 7145W        W22276   7.519   2.941   2.083  0.1130  0.0802 -0.1755
 7146W        W22277  17.810   0.860  11.484  0.0457 -0.3431  0.1657
 7147W        W22278   2.926  15.842  11.215  0.0706 -0.0039 -0.1849
 7148W        W22279   0.792  13.836   9.833 -0.0991  0.2162 -0.1528
 7149W        W22280   6.706  14.384   1.639 -0.5151  0.2332  0.3354
 7150W        W22281  15.264   6.950   3.608  0.1288  0.0720 -0.1724
 7151W        W22282   8.832   1.223  11.799  0.1810  0.0413 -0.4875
 7152W        W22283   7.590   1.208  13.637  0.0102  0.1970  0.0860
 7153W        W22284   7.761   6.733  15.763 -0.2071 -0.3039  0.0305
 7154W        W22285  16.809   0.343  14.579 -0.1658 -0.0102 -0.2471
 7155W        W22286   0.370   7.049   2.361  0.1817 -0.0752  0.4357
 7156W        W22287  12.662   2.367   3.548  0.0468 -0.0070  0.2139
 7157W        W22288  12.139   4.125   5.584  0.0029  0.0405  0.0839
 7158W        W22289   8.737  11.467   0.104  0.0824 -0.0088  0.0939
 7159W        W22290   1.595   1.070   4.103 -0.4783  0.0798 -0.1263
 7160W        W22291  15.963   4.706  15.741 -0.2666  0.0086 -0.0605
 7161W        W22292   2.086   2.712  14.634 -0.3491  0.1308 -0.1533
 7162W        W22293  17.055   3.993   1.072 -0.2558  0.3778  0.1530
 7163W        W22294   0.647   7.420  10.749 -0.1708 -0.0989 -0.1326
 7164W        W22295  10.954   6.218  15.153 -0.1208 -0.0033  0.0458
 7165W        W22296  15.552  17.289  15.251 -0.0930 -0.0360  0.2621
 7166W        W22297  18.421   5.221   0.610  0.0397 -0.3592  0.0618
 7167W        W22298   0.910  17.510  15.099  0.2543  0.2683 -0.0048
 7168W        W22299   1.908  13.824  10.253  0.4503 -0.0957 -0.1236
 7169W        W22300  10.785   0.281   2.027 -0.2549  0.1628  0.3243
 7170W        W22301  13.056   2.967  10.549  0.0494  0.1745  0.0924
 7171W        W22302  17.041   2.147   4.303 -0.0529  0.0055  0.2362
 7172W        W22303  15.031   9.318   1.112 -0.0873 -0.2418  0.0539
 7173W        W22304  11.107   5.373   3.363  0.0351  0.2915 -0.0206
 7174W        W22305  11.734  13.596   0.582 -0.1352 -0.2732 -0.2630
 7175W        W22306   7.277  18.516   3.514  0.0250 -0.0807  0.2016
 7176W        W22307  18.131  15.672  11.593  0.0764  0.3483 -0.4181
 7177W        W22308  10.385   8.773  13.175  0.2468  0.0026 -0.0106
 7178W        W22309   8.375   6.208  12.180 -0.0483  0.2600  0.2290
 7179W        W22310   1.439   4.838   9.965 -0.5464  0.1981  0.3526
 7180W        W22311   6.502   7.153   4.907  0.1125  0.0912  0.2184
 7181W        W22312  10.480  18.540  10.280  0.0100  0.3144 -0.0233
 7182W        W22313   8.067   0.851  13.778  0.1363  0.0089  0.0845
 7183W        W22314  15.997   9.834  13.284  0.1770 -0.0248 -0.0048
 7184W        W22315  11.375   6.252  12.299 -0.1335 -0.0195  0.1180
 7185W        W22316   6.225   5.509  14.820 -0.0077 -0.2267  0.0297
 7186W        W22317  11.894  12.125  11.019 -0.1041 -0.0149 -0.1919
 7187W        W22318   7.310   6.408  13.779 -0.3272 -0.2003 -0.3522
 7188W        W22319  12.121  16.620  14.851 -0.0455  0.0851 -0.3656
 7189W        W22320   6.385   2.625   1.837  0.2354 -0.1936 -0.1436
 7190W        W22321   1.072  15.560  11.734  0.0138  0.0133 -0.0197
 7191W        W22322   7.112  15.666   3.361 -0.1086 -0.1441 -0.0670
 7192W        W22323   8.121   0.380   2.054  0.1339 -0.1579 -0.0799
 7193W        W22324   0.674   9.707  10.932  0.2226 -0.1248  0.0594
 7194W        W22325   0.531   7.319   5.041 -0.2262  0.1965 -0.1118
 7195W        W22326  15.931   9.632  14.624 -0.0262 -0.2370  0.1949
 7196W        W22327  11.845  13.721  13.263 -0.1920 -0.0163 -0.1514
 7197W        W22328   1.239  10.266   2.068 -0.1677 -0.0350 -0.0305
 7198W        W22329  16.083   2.929   2.446  0.1075  0.1150 -0.1417
 7199W        W22330   7.507   8.431  11.237  0.3416 -0.1710  0.0224
 7200W        W22331   4.684  17.831  13.183 -0.0670  0.1414  0.1139
 7201W        W22332  14.531   4.917  13.229 -0.2661  0.1233  0.1854
 7202W        W22333  11.160  17.996   0.703  0.0687 -0.3221  0.2947
 7203W        W22334  17.932  18.248  10.674 -0.1620  0.3920 -0.2197
 7204W        W22335   1.324   2.192  12.892 -0.1403 -0.0369  0.2528
 7205W        W22336  12.488  13.004  13.267 -0.0211  0.1790  0.1711
 7206W        W22337   6.196   5.819   1.663 -0.0406 -0.1043 -0.0852
 7207W        W22338   5.710   6.048  13.042  0.0342 -0.0080  0.0146
 7208W        W22339   4.902  10.775   1.067  0.1031  0.0178  0.0562
 7209W        W22340   2.234   5.663  15.581  0.2421 -0.1149  0.3124
 7210W        W22341  18.644   5.477  10.434  0.1191 -0.2947 -0.3479
 7211W        W22342   3.119  11.504  11.123 -0.1990  0.0376  0.0481
 7212W        W22343  14.364   7.932  11.821 -0.0946 -0.0970 -0.4049
 7213W        W22344   7.318   9.562  13.348 -0.1315 -0.0498 -0.0197
 7214W        W22345   4.203  17.878  10.203  0.1320  0.0909 -0.1139
 7215W        W22346  15.891  14.707  13.278 -0.1578  0.0271 -0.2152
 7216W        W22347   2.968   4.382   1.031 -0.1266  0.1178  0.3514
 7217W        W22348   8.637   4.394  11.343 -0.0514  0.0892  0.0096
 7218W        W22349   5.112  18.097  12.370 -0.1550 -0.1736 -0.1011
 7219W        W22350  10.262   8.524  14.860 -0.1764 -0.1531  0.1351
 7220W        W22351  13.104  15.064   2.707 -0.0293  0.0145 -0.0547
 7221W        W22352   8.623  12.397  14.707 -0.1920 -0.0919 -0.1288
 7222W        W22353   1.031   1.852  14.681 -0.2447 -0.2787 -0.2607
 7223W        W22354  15.030  12.316  14.761  0.0354  0.0383 -0.1028
 7224W        W22355   8.246   6.307  14.840  0.0515 -0.0899  0.0885
 7225W        W22356  11.665  18.377   2.914  0.5497 -0.0843  0.0814
 7226W        W22357   8.300   3.741   2.367  0.0593 -0.0096  0.2671
 7227W        W22358  13.816   2.619  14.194  0.0415  0.1098  0.2382
 7228W        W22359  10.213  14.373   1.453 -0.2407 -0.2623 -0.1637
 7229W        W22360   8.086   5.458   0.046 -0.0508  0.2311  0.1744
 7230W        W22361   1.804   0.974   3.500 -0.1702 -0.3717 -0.3183
 7231W        W22362   4.136   2.734  11.740  0.1425  0.0101  0.0974
 7232W        W22363  17.373  13.369   2.491  0.3185  0.1035 -0.0085
 7233W        W22364  14.381  10.310   5.000 -0.0450  0.1126  0.0487
 7234W        W22365   7.429   3.312   2.406  0.0806  0.1156  0.0529
 7235W        W22366  11.686   9.450   4.189  0.4867 -0.0284  0.0772
 7236W        W22367  10.523  16.104   4.450  0.0265  0.0297  0.2938
 7237W        W22368   9.939   2.912  15.688 -0.0591  0.3529  0.1476
 7238W        W22369   2.237   8.283  13.161  0.0059 -0.2565  0.0683
 7239W        W22370  13.043   6.355  14.929 -0.1191 -0.0762 -0.0580
 7240W        W22371   5.291  14.462   2.322 -0.2598  0.2282 -0.3146
 7241W        W22372  18.299  17.164  10.639 -0.3498  0.2871  0.0179
 7242W        W22373   9.864  16.364  15.709  0.3728  0.0257 -0.1074
 7243W        W22374   6.819  12.051  13.316  0.0578  0.1245  0.1035
 7244W        W22375   6.170   0.900   1.466 -0.0782 -0.0157  0.1763
 7245W        W22376  14.491   5.187   4.472 -0.0267 -0.1266 -0.2385
 7246W        W22377   3.533   7.279  12.483  0.0937  0.0563 -0.0811
 7247W        W22378   7.886  15.285  15.581 -0.1170 -0.0481 -0.0345
 7248W        W22379   4.754   4.448  13.948  0.0328 -0.2522  0.1296
 7249W        W22380   3.744   1.872   1.969  0.0601 -0.0753  0.0176
 7250W        W22381   2.379   7.975  13.468  0.2086  0.1864  0.1247
 7251W        W22382  17.464  18.317  14.421  0.2230 -0.0062 -0.1243
 7252W        W22383   6.128   3.933   2.373  0.2620  0.0695 -0.0162
 7253W        W22384  16.739   8.634   4.745  0.1805 -0.1886  0.1115
 7254W        W22385   9.968  13.522   2.359 -0.2228  0.0894  0.0810
 7255W        W22386   6.570   6.296   3.292  0.5663  0.0508  0.0322
 7256W        W22387  13.728   6.375  13.491  0.2309 -0.0058 -0.1024
 7257W        W22388   8.874   7.637  13.425 -0.1053 -0.0845  0.1667
 7258W        W22389  15.398   7.115   2.799  0.1173  0.0317  0.4268
 7259W        W22390  18.736   6.978  11.186  0.0793 -0.1431  0.2374
 7260W        W22391  13.500   7.341   3.097  0.1028  0.2702  0.0099
 7261W        W22392  13.866   9.914   4.541 -0.1859  0.1209  0.1708
 7262W        W22393  12.614  13.869   4.684 -0.0820  0.0020  0.1831
 7263W        W22394  11.164   5.151   2.147 -0.3544  0.2286  0.1723
 7264W        W22395  17.275  14.345   4.156  0.2842  0.2838 -0.1431
 7265W        W22396   5.380   5.131  13.275 -0.0829 -0.1440 -0.0170
 7266W        W22397   2.723  11.696  13.793  0.0478  0.0517  0.1367
 7267W        W22398   9.304   0.627  11.388  0.2765 -0.0764  0.1413
 7268W        W22399   3.681  13.043  14.148  0.0472  0.0685  0.1601
 7269W        W22400   5.626   3.906  10.600 -0.2581 -0.1668 -0.0695
 7270W        W22401   5.876   1.488   9.924 -0.2797 -0.1447  0.1238
 7271W        W22402   2.869  10.213  13.469  0.2515 -0.0578 -0.0596
 7272W        W22403   4.401   3.005   5.369  0.2746  0.1555  0.1754
 7273W        W22404   8.023   9.982  12.999 -0.1196  0.0027 -0.2794
 7274W        W22405   3.873   0.481  11.948  0.1931  0.3403  0.2396
 7275W        W22406   9.864  18.619  15.470  0.1357 -0.0527 -0.1127
 7276W        W22407  14.069  10.845  10.303 -0.0768 -0.0570 -0.1047
 7277W        W22408  17.882   0.850   4.199 -0.0354 -0.2792  0.0721
 7278W        W22409   1.716   5.166  14.626  0.3521 -0.0119 -0.4858
 7279W        W22410   8.394  16.085  15.278  0.1373 -0.1854  0.1729
 7280W        W22411   8.750   2.969  13.128 -0.2387  0.1052 -0.0797
 7281W        W22412  17.329   4.251  13.926  0.1855 -0.1438  0.2340
 7282W        W22413   1.400   9.809   1.728  0.1036  0.1053  0.1526
 7283W        W22414   8.333  10.352  15.527 -0.1853  0.1034 -0.1425
 7284W        W22415   8.469   4.406  15.424 -0.1624 -0.4396  0.4508
 7285W        W22416   2.944   0.895  15.495  0.2374  0.1860  0.2038
 7286W        W22417  17.110  14.409   4.756  0.0178 -0.0938 -0.0101
 7287W        W22418   2.079   6.223  15.648  0.0021  0.0062  0.0559
 7288W        W22419   1.784  17.956   2.084 -0.6473 -0.2054  0.1693
 7289W        W22420   4.170   7.606   4.706  0.2370 -0.2454  0.0312
 7290W        W22421  10.931   8.432  15.714  0.1108 -0.3794  0.3646
 7291W        W22422  12.970  15.930   5.012 -0.1087 -0.0443  0.0055
 7292W        W22423   7.729  13.486  10.615 -0.0476 -0.0094 -0.0549
 7293W        W22424  15.817   6.445  15.198  0.2423 -0.5933  0.0163
 7294W        W22425  10.650  14.015  13.133  0.0788 -0.0013  0.0759
 7295W        W22426   3.795  14.054   5.003 -0.0351  0.1265 -0.2036
 7296W        W22427  15.364  12.292   4.238  0.3748  0.2243 -0.1773
 7297W        W22428  10.906  16.436   0.853  0.2021 -0.3428 -0.1938
 7298W        W22429   5.089  13.760   4.647  0.0337  0.2892  0.0129
 7299W        W22430  12.836  18.418   0.384 -0.1878 -0.1287 -0.2464
 7300W        W22431  10.159  12.658  12.473 -0.1064 -0.1876  0.2838
 7301W        W22432   8.032  10.036  13.767  0.0662  0.0777 -0.1697
 7302W        W22433  10.643   2.077  15.228 -0.0098 -0.1975 -0.1637
 7303W        W22434  18.450  11.278  12.870  0.0217  0.3286  0.0904
 7304W        W22435   3.760  10.603  11.809 -0.3282  0.3660  0.1374
 7305W        W22436   9.981   9.874   5.409  0.1432 -0.2969 -0.0213
 7306W        W22437  17.050   3.858  10.685  0.0207  0.3963  0.1321
 7307W        W22438   2.489   7.306   0.599 -0.1566 -0.2236  0.1052
 7308W        W22439  16.522   3.972  10.692 -0.1232 -0.1381 -0.1449
 7309W        W22440   6.347   2.289  13.034  0.2779  0.0487 -0.1050
 7310W        W22441   5.802  10.034   5.841 -0.2372  0.1869  0.2292
 7311W        W22442   0.454   6.166  10.418  0.0037  0.0071 -0.3933
 7312W        W22443  17.416   2.982   1.720 -0.1527  0.3482 -0.2168
 7313W        W22444  15.143  16.318   1.648 -0.2107 -0.0924 -0.4192
 7314W        W22445   2.445   9.125  15.201 -0.0071  0.1169  0.0395
 7315W        W22446   5.942   0.769   1.901 -0.1653  0.0340  0.1475
 7316W        W22447   7.095  14.079  14.395 -0.1840 -0.0927 -0.0933
 7317W        W22448  16.656  10.943  12.241  0.2864  0.3341  0.1056
 7318W        W22449  11.102  16.186  13.302 -0.1477 -0.2247 -0.0585
 7319W        W22450   2.351   4.628  15.112  0.0561  0.0975  0.2731
 7320W        W22451   7.671   2.516  13.922 -0.0758  0.0110  0.1696
 7321W        W22452  11.807  13.475  11.739  0.2067  0.1082 -0.2482
 7322W        W22453   4.742   8.386  13.272  0.1644 -0.0601 -0.0501
 7323W        W22454  13.562   8.776   4.861  0.0403  0.1593  0.0170
 7324W        W22455   9.161  13.394  11.481 -0.0866 -0.2896 -0.0520
 7325W        W22456  14.198  16.863   1.725 -0.2361  0.1203 -0.1377
 7326W        W22457   3.414   7.996   3.057 -0.1159 -0.3147  0.0609
 7327W        W22458  11.609  17.201   3.442  0.0487 -0.0406  0.1277
 7328W        W22459  11.368   6.488  15.645  0.2572  0.0807  0.2207
 7329W        W22460   6.487   7.579   0.069  0.1021 -0.3873 -0.0867
 7330W        W22461   9.721   9.322   2.826 -0.3787  0.3219  0.1080
 7331W        W22462   0.615  12.244   1.076 -0.0560 -0.1668  0.2487
 7332W        W22463   7.050   6.889   1.051  0.1399  0.0705  0.2842
 7333W        W22464  15.218   2.672   0.635  0.2268 -0.1348  0.2459
 7334W        W22465  16.861   9.913  14.348 -0.0650 -0.1378 -0.1303
 7335W        W22466  17.828  18.373   3.398  0.1124  0.1486  0.1158
 7336W        W22467  10.113   5.707  14.522  0.0666 -0.1002  0.1413
 7337W        W22468  18.303  17.757  12.796  0.2198 -0.1574 -0.0002
 7338W        W22469  13.328   3.521  11.754 -0.2028  0.0189  0.0193
 7339W        W22470  16.785   7.888  15.468  0.1867  0.2220  0.0998
 7340W        W22471   1.719   0.513  11.820 -0.1460 -0.0391 -0.0317
 7341W        W22472  16.866  17.845   4.940 -0.3032 -0.3255  0.0346
 7342W        W22473  14.334  11.402   5.393 -0.0169 -0.0211 -0.0881
 7343W        W22474   0.802   1.261  13.701  0.0502 -0.0318 -0.0931
 7344W        W22475   9.720   1.533   0.881  0.0485 -0.0169 -0.1567
 7345W        W22476  17.694  11.236  11.817  0.0448  0.1129 -0.0445
 7346W        W22477   9.610   3.146  11.354 -0.1280 -0.1946 -0.1920
 7347W        W22478   1.277  13.167  11.897 -0.0253  0.2402 -0.0259
 7348W        W22479  14.553  14.856   3.708 -0.4038 -0.2573  0.2044
 7349W        W22480  13.729  16.741  14.543 -0.0177  0.4969  0.3747
 7350W        W22481  12.820  14.563   4.334  0.0452 -0.2361 -0.5051
 7351W        W22482   6.731   6.342   2.671 -0.2573 -0.1744 -0.2329
 7352W        W22483  17.583  12.803  12.903  0.3854 -0.1793 -0.2500
 7353W        W22484   3.839   3.253   3.267 -0.1492 -0.0698 -0.1589
 7354W        W22485   2.395   2.311  10.946 -0.0266  0.1570  0.1060
 7355W        W22486  18.161  17.959   5.235 -0.1272 -0.1541  0.3880
 7356W        W22487   3.425  11.945  10.889  0.3305  0.1854  0.2113
 7357W        W22488  17.488   5.523   0.205  0.4017 -0.1442  0.3678
 7358W        W22489   2.579   6.041   0.540 -0.1129  0.0845  0.0498
 7359W        W22490   2.389  16.085  13.528 -0.1608 -0.1968 -0.1005
 7360W        W22491  12.029   9.850  15.591 -0.0502  0.1637 -0.0922
 7361W        W22492  12.818   6.993   0.998  0.0301  0.2400 -0.0968
 7362W        W22493  14.073  16.039   2.259 -0.0091 -0.1837  0.1727
 7363W        W22494   3.934   4.508   4.407 -0.2409  0.0752 -0.1662
 7364W        W22495   5.731  15.425  12.601 -0.1208  0.0316  0.2148
 7365W        W22496   8.655  12.044   4.360 -0.0849  0.2990  0.0697
 7366W        W22497   9.476   3.395  12.273 -0.2157 -0.0150  0.0142
 7367W        W22498   7.498   0.719  10.554 -0.0274  0.2567 -0.0403
 7368W        W22499  18.150  12.816  11.343  0.1750 -0.1881  0.1937
 7369W        W22500   3.727  16.755   2.318  0.0455  0.1464 -0.0741
 7370W        W22501   9.302   1.267   3.769  0.2349  0.2142 -0.3875
 7371W        W22502   0.354  12.979   1.682  0.3081  0.1766 -0.2653
 7372W        W22503   3.247   1.820   1.635 -0.0905  0.1097  0.0097
 7373W        W22504   4.652  13.413   3.097  0.0289  0.0042  0.0786
 7374W        W22505   5.837  11.440  13.060 -0.1337 -0.2016  0.0045
 7375W        W22506   2.842  17.451  10.638 -0.0612  0.0821 -0.1477
 7376W        W22507   3.598   4.554   2.464 -0.2803 -0.0346 -0.0705
 7377W        W22508  17.114   7.891  10.077  0.3052 -0.4175  0.0481
 7378W        W22509   7.849  13.738  15.727 -0.0570  0.0040  0.0507
 7379W        W22510  12.402  17.022  15.172 -0.1754  0.0531  0.0263
 7380W        W22511   7.023  15.454  11.996 -0.2377 -0.2511 -0.3446
 7381W        W22512   6.427  11.448  14.704 -0.3082 -0.4179 -0.2201
 7382W        W22513  17.260   9.559  11.947  0.2594 -0.3024  0.0592
 7383W        W22514   2.588   9.921   2.035  0.2769 -0.1023 -0.1924
 7384W        W22515  17.293  11.653  11.184 -0.3847  0.2259  0.0544
 7385W        W22516   0.641  14.866  10.594  0.1364 -0.1777  0.1560
 7386W        W22517   8.455   3.163  13.825  0.0274  0.3447  0.1063
 7387W        W22518   8.422   0.384  15.174 -0.0583  0.0108  0.0952
 7388W        W22519   2.137   0.515   0.519 -0.1543  0.4089  0.0171
 7389W        W22520  10.151   4.807   4.320 -0.0207 -0.0523 -0.0445
 7390W        W22521   9.593   8.585   1.877 -0.2541 -0.2080 -0.0043
 7391W        W22522   6.081   4.517   1.511  0.1568  0.1365 -0.4257
 7392W        W22523  16.818  18.362   4.548  0.0566  0.1043  0.0590
 7393W        W22524   0.827  15.502  12.833  0.2640  0.0674 -0.0215
 7394W        W22525  12.567  18.440  13.102 -0.1857 -0.2928  0.0005
 7395W        W22526   1.751   2.509   2.840  0.2468 -0.3019 -0.0988
 7396W        W22527  14.562  18.248  13.351  0.3435 -0.3270  0.0552
 7397W        W22528  13.748  14.964   5.271 -0.0157 -0.1191  0.0355
 7398W        W22529   8.055   8.406  13.103  0.0065  0.1111 -0.0209
 7399W        W22530  12.628   7.481   2.433  0.2679  0.2865 -0.1122
 7400W        W22531  13.924   2.002  13.424  0.2201 -0.1734  0.0824
 7401W        W22532  14.205   3.980   0.615  0.1643  0.3629 -0.3454
 7402W        W22533   5.174  11.377  12.092  0.1744  0.4487  0.0873
 7403W        W22534  14.380  17.640  15.523  0.1249 -0.0416  0.1233
 7404W        W22535   5.075  15.264  11.402 -0.3225 -0.2689  0.0875
 7405W        W22536   3.846  14.973  12.672 -0.0185 -0.2976 -0.1135
 7406W        W22537   5.944   8.293  13.657 -0.1473 -0.0410 -0.0113
 7407W        W22538   0.955   1.675  14.242  0.0265  0.2542  0.2066
 7408W        W22539   4.521   0.885  10.193 -0.0949 -0.4059 -0.2103
 7409W        W22540   4.031  14.066  12.104  0.0505  0.2143  0.4810
 7410W        W22541   4.006   2.694   3.636 -0.1338  0.2128 -0.1813
 7411W        W22542   1.436  11.193  11.824 -0.1320  0.0810 -0.2352
 7412W        W22543  16.782  10.642   3.878  0.0268 -0.0204 -0.0985
 7413W        W22544   5.181   0.398  14.770 -0.0363  0.1714  0.0728
 7414W        W22545  16.821  15.683   4.060  0.1468 -0.4542 -0.2496
 7415W        W22546   5.014   1.708  13.547 -0.1381 -0.5176 -0.0727
 7416W        W22547  14.116   3.139   4.662 -0.0552 -0.4428 -0.2678
 7417W        W22548   5.507  11.013  12.234  0.0714  0.0623  0.1074
 7418W        W22549  14.350   2.988  14.473 -0.0530  0.1462 -0.1434
 7419W        W22550   4.152  11.442   1.670 -0.2846 -0.7678 -0.0467
 7420W        W22551   1.877  17.072   4.798  0.0438 -0.1407 -0.4075
 7421W        W22552  10.159  15.453   3.176 -0.4597 -0.2381 -0.1241
 7422W        W22553   3.813   8.422   2.482 -0.4098 -0.0261 -0.2380
 7423W        W22554  16.232   6.736  13.008 -0.0820  0.1493  0.3990
 7424W        W22555  16.209  13.426   0.298  0.1106  0.1657  0.0830
 7425W        W22556  16.962  18.513  15.141  0.2542  0.2861 -0.0397
 7426W        W22557   7.511   1.027   3.988 -0.0561 -0.0333  0.2698
 7427W        W22558  17.475  14.882   4.756  0.1572  0.1055 -0.0606
 7428W        W22559  12.709   6.746  12.022  0.1371  0.2675 -0.1295
 7429W        W22560  18.451  14.611   3.066  0.0023  0.1049 -0.1211
 7430W        W22561   6.155   3.227  11.133  0.0383 -0.1872  0.0950
 7431W        W22562  13.232  11.705   1.802  0.1006 -0.2045 -0.3959
 7432W        W22563  11.301  15.385  13.794  0.2186  0.2053 -0.1106
 7433W        W22564   8.251  11.983  11.891 -0.1868  0.0267 -0.0917
 7434W        W22565   3.382  18.347   2.140  0.2072  0.0163 -0.3045
 7435W        W22566   3.631  15.996  13.411  0.2001  0.3525 -0.1376
 7436W        W22567  17.716   4.744   3.250 -0.0743 -0.0481 -0.0010
 7437W        W22568   6.546  13.050  12.776  0.1726 -0.3119 -0.1109
 7438W        W22569   5.883  10.656   2.137 -0.1102  0.0303  0.0709
 7439W        W22570  13.079   1.608  11.862 -0.0801 -0.0328 -0.0110
 7440W        W22571   1.718  14.935   9.796  0.0202 -0.1011 -0.4693
 7441W        W22572   2.857  10.704  11.741 -0.0091 -0.2646  0.3007
 7442W        W22573   3.283   5.058   4.846 -0.2065  0.2350 -0.0976
 7443W        W22574  15.037   6.154   1.984  0.0158 -0.1883  0.1844
 7444W        W22575   2.936   7.645   4.653 -0.0753  0.2155  0.1598
 7445W        W22576   7.187   0.378   4.805  0.1888 -0.1279  0.1769
 7446W        W22577  11.659  10.046   1.863 -0.3222 -0.0682 -0.2782
 7447W        W22578   7.657   6.855  15.213 -0.0046  0.1293  0.5654
 7448W        W22579  18.415   1.384  13.527 -0.2576  0.0651  0.6121
 7449W        W22580  15.937  11.691  13.863  0.3162 -0.1723  0.1195
 7450W        W22581   3.990   4.282   2.366  0.0571 -0.0679 -0.0704
 7451W        W22582  14.196  10.258   2.577 -0.0488  0.0179 -0.1824
 7452W        W22583   0.072   1.888   5.601  0.0632  0.1369  0.1641
 7453W        W22584   0.029   3.008   1.599  0.2528  0.2114 -0.1289
 7454W        W22585  13.360   9.623   3.625 -0.0081 -0.4568 -0.3199
 7455W        W22586  17.986   7.717  14.373  0.2040 -0.0322 -0.1267
 7456W        W22587   2.637  17.514  12.657 -0.0479 -0.0247  0.0040
 7457W        W22588   4.663  16.040   0.837 -0.3239  0.2897 -0.0193
 7458W        W22589  12.052   6.363  13.259 -0.1748  0.0995  0.2373
 7459W        W22590   0.449  14.230   3.568  0.1024 -0.0426 -0.4861
 7460W        W22591   0.366   4.289  13.016  0.1031 -0.2887  0.1172
 7461W        W22592   5.835  14.558   4.727  0.2174 -0.1407 -0.2169
 7462W        W22593  14.651  18.668   4.835  0.2411 -0.0201 -0.1016
 7463W        W22594   8.360   4.451   0.150 -0.2920 -0.0743  0.0798
 7464W        W22595   6.355   2.776   4.507 -0.0663 -0.0119 -0.0102
 7465W        W22596   6.758  11.511   2.818  0.1121 -0.1581 -0.2391
 7466W        W22597   4.394  14.425  14.938  0.2192  0.3403  0.1216
 7467W        W22598  14.541   0.997   1.795 -0.1323  0.1656 -0.1163
 7468W        W22599  11.694   8.294   0.543 -0.0054  0.4199  0.0099
 7469W        W22600  15.648  15.553   1.288 -0.4013  0.0584 -0.0933
 7470W        W22601   6.121  11.289   5.963  0.0834  0.0600  0.1013
 7471W        W22602   5.328   7.697   4.360  0.0163  0.0191 -0.2585
 7472W        W22603  13.431  15.223   0.531  0.1292 -0.2384  0.1884
 7473W        W22604  10.543   8.607   4.725  0.2215  0.2260  0.3617
 7474W        W22605  16.277   5.033   4.014 -0.0481 -0.0773  0.0251
 7475W        W22606   0.445  10.554  14.890 -0.3287 -0.1026 -0.0819
 7476W        W22607   8.652   1.679   5.967  0.1358 -0.1440  0.2188
 7477W        W22608  11.500   7.814   0.409  0.0668 -0.2516  0.1085
 7478W        W22609   4.164  11.347  13.616 -0.0388  0.1954  0.2125
 7479W        W22610   6.433  11.657  15.738  0.2127 -0.0615 -0.0691
 7480W        W22611  15.575  15.973   3.803 -0.0170 -0.0619  0.1569
 7481W        W22612   1.185   6.962  13.064  0.2336  0.0967  0.1307
 7482W        W22613   1.989   8.060   0.310 -0.2813  0.1106 -0.2163
 7483W        W22614  10.765  15.719  12.551  0.1490 -0.0045  0.2448
 7484W        W22615   5.258  15.618  13.700  0.2886  0.2058  0.2645
 7485W        W22616  12.344  16.272  12.343 -0.1079 -0.1560 -0.1373
 7486W        W22617  12.596   2.727   9.915  0.0278  0.2457 -0.2178
 7487W        W22618  18.655  16.877  14.257 -0.0436  0.0638 -0.1423
 7488W        W22619   1.537  17.802   4.857  0.0326 -0.0483 -0.0003
 7489W        W22620   9.909  14.227   4.311  0.1994  0.0621 -0.1602
 7490W        W22621   0.445   1.991   4.041 -0.0025 -0.1316  0.3248
 7491W        W22622   1.127   5.205  13.507 -0.0979  0.2361  0.1885
 7492W        W22623   7.986  11.763  14.297  0.3111 -0.1936  0.1612
 7493W        W22624   6.734  10.599   4.295  0.0766 -0.2508 -0.2514
 7494W        W22625  13.577  15.862  15.157  0.1626 -0.2395  0.3636
 7495W        W22626   9.103   1.742   4.034  0.0584  0.0172 -0.2403
 7496W        W22627   2.257   5.096   2.217 -0.0870 -0.1110 -0.1240
 7497W        W22628  13.848  14.416   2.095 -0.1839 -0.1645 -0.2556
 7498W        W22629   7.880   5.342   2.122  0.2100  0.0596  0.0452
 7499W        W22630   3.375   8.832  12.441 -0.1703 -0.0082 -0.2733
 7500W        W22631  15.663  16.243   4.800 -0.1900  0.1254 -0.3636
 7501W        W22632   9.561  11.421  14.973  0.0036  0.4209  0.3045
 7502W        W22633   7.361   8.751   0.421 -0.1145  0.4091  0.0241
 7503W        W22634   9.570   7.827   3.113  0.1568  0.2313  0.0135
 7504W        W22635  11.207  18.426  13.065  0.1388 -0.1226 -0.1314
 7505W        W22636  12.106  14.627   5.553  0.1172 -0.0077  0.2349
 7506W        W22637  10.088  13.263  14.795 -0.2925  0.2131 -0.1199
 7507W        W22638  13.903   5.488  13.635  0.0223  0.3552 -0.1115
 7508W        W22639   8.612   7.710  12.873 -0.0941 -0.0167  0.2347
 7509W        W22640   6.664  12.529  15.463 -0.5395 -0.1660  0.2257
 7510W        W22641  17.499  11.853   2.548 -0.0036 -0.1805 -0.1877
 7511W        W22642   1.747   5.318   3.991 -0.0185 -0.1831  0.0100
 7512W        W22643  17.760   1.277  14.693  0.1789 -0.0223  0.0735
 7513W        W22644   6.051   0.710  11.137 -0.4689  0.2793 -0.2899
 7514W        W22645   9.210   2.388  14.492 -0.1416  0.0339 -0.3052
 7515W        W22646  18.711  15.385   4.335 -0.1057 -0.0685  0.0279
 7516W        W22647  14.228  11.066   1.128  0.1806  0.1208 -0.1639
 7517W        W22648  13.981  11.077   2.731 -0.0527  0.0592  0.2416
 7518W        W22649  15.512  12.386  11.787  0.1216  0.0204  0.0106
 7519W        W22650  10.984   2.990  15.363  0.3408 -0.2094 -0.1447
 7520W        W22651  11.331  10.916   3.876 -0.2516 -0.0401 -0.0757
 7521W        W22652  18.314  17.090  15.369  0.3573 -0.1820 -0.2645
 7522W        W22653   2.737  11.067   1.437 -0.1216 -0.2603  0.0546
 7523W        W22654   4.799   5.028   1.622 -0.2199 -0.2295  0.2181
 7524W        W22655   6.598   7.983   4.431  0.0838 -0.0961  0.3041
 7525W        W22656   7.848   4.573   3.663 -0.2008 -0.1722 -0.1658
 7526W        W22657   7.700  17.961   2.384  0.0577 -0.0440  0.0919
 7527W        W22658  10.270  13.211  12.658  0.3040 -0.1668 -0.0952
 7528W        W22659  11.031  14.900  15.552 -0.1801  0.2845 -0.3724
 7529W        W22660   3.921   7.603   1.243  0.2015 -0.1354 -0.2913
 7530W        W22661   3.946   0.647  14.684  0.3076 -0.0088 -0.2636
 7531W        W22662  14.741  17.723  11.052  0.0224 -0.2311  0.0112
 7532W        W22663  16.030   1.234  15.747 -0.3256 -0.2861  0.1327
 7533W        W22664  15.035  16.664   9.608  0.0958 -0.0638  0.4301
 7534W        W22665  14.443   8.646   3.416 -0.3503 -0.4637  0.3732
 7535W        W22666   6.317  10.073  11.431 -0.1934  0.0969 -0.3762
 7536W        W22667   6.101   7.561   2.811  0.2942  0.0382  0.0230
 7537W        W22668   0.714  14.886  13.658  0.4681 -0.1315 -0.0682
 7538W        W22669  13.736  15.589  11.375  0.2047  0.0663  0.0024
 7539W        W22670   9.556  12.266   3.178 -0.0042 -0.1386 -0.1916
 7540W        W22671  10.741   9.471   4.069  0.1413  0.0941 -0.0294
 7541W        W22672   9.880  16.880  11.763 -0.0314 -0.0613 -0.2221
 7542W        W22673  18.153   9.544  12.888  0.2862  0.4604 -0.1903
 7543W        W22674   8.316  15.146   0.080  0.2243 -0.2423  0.1341
 7544W        W22675   9.908   0.462   3.880  0.2795  0.0919 -0.0643
 7545W        W22676  13.640   5.403   1.512 -0.0707 -0.0802 -0.0634
 7546W        W22677   0.892   9.815   4.468 -0.1274 -0.2886 -0.2866
 7547W        W22678   5.966  10.982  15.317  0.0122  0.1116 -0.1585
 7548W        W22679   2.565  12.546  10.444 -0.3342  0.1626  0.0272
 7549W        W22680   5.525  13.851   3.035  0.2228 -0.0013  0.3711
 7550W        W22681   5.565   6.375  13.918  0.2534 -0.0124 -0.1011
 7551W        W22682   0.383   7.782  15.254  0.0654 -0.0529  0.1174
 7552W        W22683  12.199  18.420  11.947  0.0292 -0.0042  0.0082
 7553W        W22684   6.551  10.504  11.174 -0.1819  0.0189 -0.1779
 7554W        W22685  15.829   8.602  11.796  0.0139  0.2420  0.1070
 7555W        W22686  10.318   3.446   3.453  0.2888  0.2442 -0.3549
 7556W        W22687  12.230  12.930  15.555  0.3849  0.0221 -0.0166
 7557W        W22688  12.614   4.362  14.732  0.0682  0.2685  0.0806
 7558W        W22689  10.694  16.760   0.116 -0.0251  0.2470  0.2433
 7559W        W22690   4.478   5.710  11.249  0.0579 -0.1785  0.3068
 7560W        W22691   1.760  11.455   2.388  0.1816  0.2044  0.0269
 7561W        W22692   4.871   2.316  15.364 -0.2155  0.0303  0.2817
 7562W        W22693   3.009   5.230  11.627  0.2244 -0.1948  0.0264
 7563W        W22694  16.381  10.486   0.955  0.0663 -0.0423 -0.0288
 7564W        W22695  14.993  11.451  15.171 -0.1698  0.0550  0.2380
 7565W        W22696  11.759   6.092  12.857  0.0994 -0.1466  0.1478
 7566W        W22697   0.557  14.617  13.240  0.0572  0.3020 -0.0871
 7567W        W22698   0.936   2.411  14.641 -0.1873  0.0239  0.4338
 7568W        W22699   5.600  14.683  13.126 -0.4136 -0.2102  0.0612
 7569W        W22700   4.153  10.061  13.674 -0.3635  0.2622  0.1972
 7570W        W22701  15.178  10.788  13.779  0.0048 -0.1629 -0.2437
 7571W        W22702  12.244   8.649   3.615  0.1322 -0.1904  0.0261
 7572W        W22703   4.054  12.728  12.236 -0.0913  0.2366  0.0569
 7573W        W22704   4.432  16.193   2.064 -0.1710 -0.2859  0.1390
 7574W        W22705  12.147  18.611  14.982  0.3469  0.0009  0.1879
 7575W        W22706   0.823   0.321   4.985  0.1196  0.3112  0.2456
 7576W        W22707   6.852   4.180  11.319  0.0703 -0.1243  0.4010
 7577W        W22708   6.663   3.498   4.379 -0.3066 -0.1403 -0.1929
 7578W        W22709  13.968   9.476  11.658 -0.2611 -0.1901 -0.2599
 7579W        W22710  13.838  12.418   1.777  0.5033  0.2137 -0.0402
 7580W        W22711  16.858  17.897   2.674 -0.0074 -0.1151 -0.0776
 7581W        W22712   2.363   4.812   4.929 -0.0735  0.1378  0.3572
 7582W        W22713   3.159  10.316   3.195 -0.1951 -0.3365 -0.2175
 7583W        W22714   7.219   1.914  10.699 -0.2111 -0.2203 -0.3008
 7584W        W22715  15.011  18.242  14.369  0.2023 -0.3384 -0.1482
 7585W        W22716   3.367  14.786   2.209  0.1456  0.2827  0.3223
 7586W        W22717  11.435   3.453  14.758  0.0532 -0.1582 -0.1198
 7587W        W22718   4.499  17.629   0.186 -0.1195  0.1828 -0.3721
 7588W        W22719  11.112  15.691   3.169 -0.0579 -0.0378  0.0148
 7589W        W22720  11.050   2.744   1.520  0.1049  0.0225  0.1878
 7590W        W22721   9.398   8.095  11.814 -0.2373 -0.1755  0.1498
 7591W        W22722   0.818  14.241  15.301 -0.0793  0.0258  0.4333
 7592W        W22723   8.806   0.732   2.870 -0.2912 -0.1877 -0.0404
 7593W        W22724   6.861  11.044   4.486 -0.1446  0.0331  0.4510
 7594W        W22725  16.366   2.300  14.992  0.1690  0.1099  0.1669
 7595W        W22726  11.937  11.849  12.139 -0.1630 -0.0267  0.1508
 7596W        W22727  12.125  12.084  11.539 -0.0228 -0.1513 -0.0833
 7597W        W22728   0.547   7.399  13.274  0.3405 -0.0013 -0.3225
 7598W        W22729   7.014   3.240  15.208  0.1057  0.0441 -0.3005
 7599W        W22730   7.039   9.230  14.577 -0.1189 -0.0929  0.1858
 7600W        W22731   0.874   6.732  12.179 -0.0160  0.0795 -0.0907
 7601W        W22732  18.419   4.781   0.884  0.1105 -0.1364  0.1544
 7602W        W22733   1.494   2.255  11.198 -0.3489 -0.0753 -0.1922
 7603W        W22734  14.114  14.632  13.929  0.0557  0.0057 -0.1547
 7604W        W22735  16.730   9.387  12.713 -0.1902 -0.2009  0.3278
 7605W        W22736   0.980   6.329  15.656  0.0424  0.0872  0.1348
 7606W        W22737   1.398   1.243  11.601  0.2450  0.0707  0.2950
 7607W        W22738  18.546   2.387  15.189  0.0557 -0.1968  0.1513
 7608W        W22739   6.532  18.015  11.479 -0.1031 -0.0680 -0.3704
 7609W        W22740   0.067   5.697   3.199 -0.0737  0.1344 -0.0235
 7610W        W22741  11.620  14.173   0.268 -0.2090  0.2019 -0.3019
 7611W        W22742  14.114   9.160   0.244 -0.1573 -0.2448 -0.2768
 7612W        W22743   5.796  15.293   1.220  0.1060 -0.0055 -0.0453
 7613W        W22744  11.726   7.076   1.260  0.1103  0.1623 -0.1553
 7614W        W22745   5.332   0.695   4.034  0.0225  0.1614 -0.3597
 7615W        W22746  10.727   4.231   4.858 -0.3643  0.0010  0.2249
 7616W        W22747   6.615   7.722   5.442  0.1479 -0.2235 -0.2347
 7617W        W22748   8.375   7.837   2.305 -0.0576 -0.0784 -0.0527
 7618W        W22749   7.321   9.787   4.189  0.0480 -0.1155 -0.0864
 7619W        W22750  14.753  14.192  13.413 -0.0746 -0.2207 -0.1108
 7620W        W22751   0.480  15.350  13.686  0.1247  0.1458  0.1328
 7621W        W22752   5.799  13.072   4.248  0.0747 -0.2187  0.2220
 7622W        W22753  15.883  12.416   5.686  0.2321 -0.0340  0.0941
 7623W        W22754   1.719   1.892   0.142 -0.1320 -0.1800 -0.0736
 7624W        W22755   2.196  16.099   0.189 -0.0870  0.5499 -0.1496
 7625W        W22756  13.857   4.096  10.784 -0.0888 -0.0156  0.0558
 7626W        W22757   6.500  15.018   3.056  0.1589  0.2545  0.0817
 7627W        W22758  18.074   6.241  12.518  0.0085  0.0789  0.0418
 7628W        W22759  18.079  17.252  12.060  0.0492  0.0221  0.0696
 7629W        W22760   8.662  14.412   5.191 -0.1850  0.1442 -0.2386
 7630W        W22761  12.572   3.378  12.587  0.4384  0.1948 -0.2648
 7631W        W22762   5.374  18.301   3.080  0.1428 -0.1458 -0.0331
 7632W        W22763  15.777  17.897  15.545 -0.1265  0.4501 -0.2296
 7633W        W22764   4.793  16.155  13.750 -0.0958  0.0374 -0.3774
 7634W        W22765  11.293   5.218   5.875 -0.0621 -0.1146  0.1798
 7635W        W22766   7.965   6.868   1.804 -0.0487 -0.1050  0.0849
 7636W        W22767  12.448   9.455  13.784 -0.1746  0.0002 -0.0754
 7637W        W22768   2.558  16.022   2.652  0.0555 -0.0275  0.2461
 7638W        W22769  12.722  12.965  15.346 -0.1492 -0.0201  0.0768
 7639W        W22770  14.231   1.122  12.176 -0.2350  0.0351 -0.1040
 7640W        W22771   7.259  13.486  10.850  0.1653 -0.3334 -0.0595
 7641W        W22772   4.984   0.085  13.100 -0.0506 -0.1141  0.0433
 7642W        W22773  18.145   5.261  14.654  0.0437  0.0753  0.2059
 7643W        W22774   6.906   3.715   2.718 -0.2472  0.1695  0.0850
 7644W        W22775   9.956  13.541  15.296  0.2234 -0.0530  0.0250
 7645W        W22776   3.259  11.188  10.207  0.0783  0.2850  0.0530
 7646W        W22777   8.215  15.281   1.482  0.0045 -0.0543 -0.2829
 7647W        W22778   0.343   2.953   5.872 -0.5353  0.0967  0.0591
 7648W        W22779  14.371  11.137  14.300 -0.5885 -0.2058  0.1010
 7649W        W22780   5.213   4.087  10.888 -0.2437  0.1968 -0.0916
 7650W        W22781   7.658   5.267   3.171  0.2206 -0.1598  0.3975
 7651W        W22782  18.666   2.164   4.718 -0.1942  0.1082 -0.1245
 7652W        W22783   1.659   4.176  13.390 -0.0880  0.1258 -0.0565
 7653W        W22784  12.362   6.514  12.340 -0.0445 -0.0920  0.1310
 7654W        W22785   9.544  13.791   5.360 -0.2436 -0.0828  0.1369
 7655W        W22786   2.195   7.746  12.531 -0.0057 -0.1209 -0.0603
 7656W        W22787  10.914   5.445   0.459 -0.0552 -0.0678 -0.0036
 7657W        W22788   0.962  12.745  12.807  0.3300 -0.2895  0.0020
 7658W        W22789   9.559  11.570   3.863  0.0209 -0.2540 -0.2706
 7659W        W22790  11.520   6.989   2.101  0.0425 -0.0617 -0.1952
 7660W        W22791   8.443  16.192  10.785 -0.2916 -0.0286  0.1221
 7661W        W22792   6.669   0.648  13.333  0.4302 -0.0845  0.0380
 7662W        W22793  14.749   5.280  12.798  0.0808  0.1549  0.1474
 7663W        W22794  13.336   1.343   4.342 -0.0285 -0.1743 -0.2550
 7664W        W22795   8.884   8.347  11.430 -0.2942  0.2425 -0.1539
 7665W        W22796   2.231  17.685   3.368  0.1558  0.1992  0.0135
 7666W        W22797   1.912   5.468   3.550 -0.0436  0.1815 -0.3690
 7667W        W22798   6.559  11.072  13.524  0.0109 -0.0719  0.1655
 7668W        W22799   8.765   5.114   4.127  0.2862  0.2136 -0.1974
 7669W        W22800   1.612   2.322   9.947 -0.0590  0.0879 -0.2252
 7670W        W22801   8.601   3.304   3.027 -0.2657 -0.0260 -0.0710
 7671W        W22802  11.798   1.033  14.356 -0.1780 -0.0699 -0.0650
 7672W        W22803   4.401   3.547  10.776  0.1478  0.4034 -0.0363
 7673W        W22804   7.054   7.102  12.726  0.0425  0.0948  0.2274
 7674W        W22805  18.183  10.171   1.699  0.0281 -0.0974  0.0814
 7675W        W22806   9.488   3.959  12.040  0.0605 -0.0991  0.0395
 7676W        W22807  16.168   9.269   1.858  0.0281  0.0188  0.0157
 7677W        W22808  18.604  16.119   3.167  0.0035  0.0334 -0.1161
 7678W        W22809  14.904  12.701  15.667 -0.1796  0.2519 -0.1515
 7679W        W22810  17.927   3.313  15.007  0.0655  0.0457  0.0233
 7680W        W22811  16.591   3.800  13.804 -0.0351 -0.0657  0.2452
 7681W        W22812   1.054  11.628   2.076  0.0518  0.1155 -0.1262
 7682W        W22813   0.436   3.552  13.593  0.2844 -0.2287  0.3987
 7683W        W22814   1.981  16.036   1.745 -0.1485 -0.0443  0.1566
 7684W        W22815  16.688   3.326  13.962  0.0707 -0.0668  0.2597
 7685W        W22816  18.399  18.089   0.488  0.2152 -0.1646 -0.2352
 7686W        W22817  11.665   2.083  11.139 -0.1639 -0.4072 -0.0647
 7687W        W22818   2.519  17.359  14.687 -0.0646 -0.1106 -0.0716
 7688W        W22819   9.744  10.605   2.859  0.0808 -0.0591  0.0643
 7689W        W22820   7.342  18.194  14.905 -0.5659  0.4032 -0.0495
 7690W        W22821   8.847  17.787  14.841 -0.1600  0.4302 -0.0114
 7691W        W22822  15.891   6.527  13.945 -0.0491 -0.1781  0.3291
 7692W        W22823   8.185   5.639  11.344  0.2215 -0.0303  0.1915
 7693W        W22824   3.374   5.480  10.757  0.2497 -0.1461 -0.0474
 7694W        W22825   5.175   9.867  12.953  0.2114  0.1563 -0.2557
 7695W        W22826  16.219  13.830  11.463  0.1446 -0.2369 -0.0267
 7696W        W22827   6.142  15.412   1.583  0.0274 -0.0397 -0.1533
 7697W        W22828   7.351   0.670   9.727  0.1950 -0.1612  0.2306
 7698W        W22829  17.582  15.487  11.195  0.0474  0.3070 -0.0790
 7699W        W22830  14.436   4.307  14.305 -0.2033 -0.2183  0.1058
 7700W        W22831   6.589  14.181  10.619  0.0069  0.1405 -0.3061
 7701W        W22832   3.923  11.855   3.827  0.0157  0.0505  0.0233
 7702W        W22833  11.988   5.842   3.741  0.0068  0.0868 -0.1459
 7703W        W22834   6.504   0.233   9.492  0.2275 -0.2884 -0.0505
 7704W        W22835  17.671   4.931   0.080  0.3185  0.0324  0.4638
 7705W        W22836   1.060  11.658   4.614 -0.2237 -0.0791 -0.3235
 7706W        W22837  15.556  11.215   1.539 -0.2270  0.2118 -0.1874
 7707W        W22838  14.252   1.630  13.362 -0.1587 -0.1448 -0.2304
 7708W        W22839  17.765   0.688   5.599  0.3188 -0.1218 -0.1645
 7709W        W22840   3.885  18.677   3.608  0.0433  0.2915  0.4071
 7710W        W22841   0.971   2.149   4.363 -0.1476  0.1057  0.0270
 7711W        W22842   8.897  11.293  13.820 -0.2930 -0.0711  0.2313
 7712W        W22843   9.387   5.374   2.639  0.2865 -0.1326 -0.1063
 7713W        W22844   7.447  13.178   1.373 -0.2626 -0.3616  0.1030
 7714W        W22845  16.884  10.264  11.741 -0.0607 -0.2770 -0.0192
 7715W        W22846   5.786   6.231  11.523  0.0757 -0.0329  0.1291
 7716W        W22847   1.440  17.465   0.655  0.0101  0.0503 -0.1641
 7717W        W22848   0.149  14.848  13.587 -0.0842 -0.1340 -0.0415
 7718W        W22849  13.514   3.676   2.806 -0.1816 -0.0544  0.1596
 7719W        W22850  14.768  11.584   6.508 -0.0729  0.0960  0.1198
 7720W        W22851  18.270   7.229  12.396 -0.1348 -0.2262  0.4518
 7721W        W22852  18.104   6.771  12.502  0.1031 -0.2089 -0.0481
 7722W        W22853  11.362  15.098   2.523  0.0217 -0.1800  0.1549
 7723W        W22854  10.022  12.463  11.111 -0.2854 -0.0194  0.2725
 7724W        W22855   4.212   2.641   4.289  0.5575 -0.1681 -0.0887
 7725W        W22856  14.903   0.838  14.597 -0.0016 -0.0390  0.3789
 7726W        W22857   0.364  17.034  12.434 -0.1420 -0.0335  0.4681
 7727W        W22858  10.914  15.013   1.589  0.1096 -0.0234  0.3426
 7728W        W22859   2.307   0.736  10.747  0.0583  0.1105  0.3757
 7729W        W22860   7.453  12.057  12.302 -0.0297  0.5295 -0.0611
 7730W        W22861   8.958  10.171   0.655  0.2795 -0.0488  0.1164
 7731W        W22862   1.559  17.361   5.056 -0.0003 -0.0091 -0.0255
 7732W        W22863   2.488  17.817   4.638  0.2855  0.0272 -0.0162
 7733W        W22864  16.479   3.174   1.175  0.4108 -0.1319 -0.1122
 7734W        W22865   6.204  14.291  14.805 -0.0284  0.2335  0.3395
 7735W        W22866   9.688   0.639  10.956 -0.1258  0.0957  0.1246
 7736W        W22867   5.090  15.470   3.813  0.1006 -0.1611 -0.0615
 7737W        W22868  13.441   2.606   3.042  0.0070 -0.3054  0.0235
 7738W        W22869  17.475  11.742   3.065  0.1255 -0.0322  0.2355
 7739W        W22870   2.038   4.415  15.543 -0.0449 -0.1827  0.4433
 7740W        W22871  17.023  18.531  12.379 -0.2111 -0.2094  0.0777
 7741W        W22872   1.943   3.360  12.405  0.0095  0.0282  0.0460
 7742W        W22873  12.022   4.525   4.831  0.1638 -0.1970 -0.1487
 7743W        W22874  13.405   6.300  11.225  0.2547 -0.0611  0.0926
 7744W        W22875   6.167   9.842  12.045 -0.3270  0.4700  0.0122
 7745W        W22876  14.750   0.298   2.132 -0.0733  0.3059  0.0544
 7746W        W22877   6.773  17.748   1.257 -0.1166  0.2020  0.1074
 7747W        W22878   5.529   0.174   4.031  0.1014 -0.0967  0.2146
 7748W        W22879  10.802  16.835  10.725  0.4195 -0.1040 -0.2205
 7749W        W22880   8.003   4.705  15.674 -0.1773 -0.0503  0.2630
 7750W        W22881   2.381   4.923  10.859  0.0394  0.2393  0.0825
 7751W        W22882   3.760   0.874   2.055 -0.0123  0.1678 -0.3957
 7752W        W22883  13.932  15.428   0.321  0.4107 -0.2212  0.1055
 7753W        W22884   4.297   7.083  14.560  0.3082 -0.0777 -0.2280
 7754W        W22885   4.516   3.716  13.561  0.1466  0.2541 -0.1976
 7755W        W22886  15.935   3.382   3.610 -0.0318  0.0303  0.3978
 7756W        W22887   5.564  11.379  11.693  0.0098  0.0269 -0.0713
 7757W        W22888  12.482   2.468   1.984 -0.0770 -0.2415 -0.1249
 7758W        W22889   4.470  15.097   0.612  0.1452  0.1532  0.0054
 7759W        W22890   3.423   8.817   2.092 -0.1000 -0.1819  0.2346
 7760W        W22891   7.298   0.685  14.853  0.1206  0.1279 -0.1300
 7761W        W22892  16.272   4.173  12.814 -0.0453  0.0405  0.0390
 7762W        W22893   8.553   5.745  14.852 -0.1004 -0.2129  0.1863
 7763W        W22894   1.733   3.510  10.197 -0.3414  0.2818 -0.3525
 7764W        W22895  12.135  12.716   4.691  0.1834 -0.2536  0.1033
 7765W        W22896   6.592   4.250  12.626  0.0163  0.0842 -0.0207
 7766W        W22897   0.347  13.483  14.633 -0.1097 -0.0127 -0.0724
 7767W        W22898   6.261  15.277  11.432 -0.1384 -0.1124 -0.2256
 7768W        W22899  14.712   4.988  11.370  0.1175 -0.0500 -0.2795
 7769W        W22900   1.159  18.261   4.496  0.2565 -0.1676  0.0412
 7770W        W22901  13.334  11.511   2.299  0.2278 -0.0855 -0.1999
 7771W        W22902  17.692  18.747  14.528 -0.3342 -0.0445 -0.2811
 7772W        W22903  14.473  11.998  12.669  0.0175  0.1480 -0.0971
 7773W        W22904   9.332  13.188  11.007 -0.2853  0.2827  0.0586
 7774W        W22905   8.413   3.939  14.091  0.1876  0.2991 -0.0097
 7775W        W22906  10.908  10.971   1.325  0.4274  0.3887 -0.1395
 7776W        W22907   5.403  10.138   2.324 -0.1455 -0.1286  0.0037
 7777W        W22908   9.839   7.330   2.375  0.0976 -0.1969 -0.4683
 7778W        W22909  10.633   5.968  14.243 -0.2448 -0.2146  0.3417
 7779W        W22910   3.538  10.173  10.488  0.0727 -0.2845  0.2003
 7780W        W22911   6.437  16.391  14.829 -0.1975  0.1815 -0.1817
 7781W        W22912  13.331   4.658  11.242 -0.2180 -0.3414 -0.0959
 7782W        W22913   5.010   3.124   9.938  0.1477 -0.1129 -0.1380
 7783W        W22914   0.741  13.672  10.961 -0.0902 -0.0248  0.0790
 7784W        W22915   5.957   3.745   5.154 -0.0073 -0.0420  0.2935
 7785W        W22916  12.309   2.780   4.533  0.2001 -0.5259  0.2143
 7786W        W22917  12.155  10.023  15.146  0.1133 -0.2481 -0.0443
 7787W        W22918   6.611   2.742  11.622 -0.0251  0.2422  0.0332
 7788W        W22919  13.026   9.370   0.250 -0.1192 -0.1023 -0.2068
 7789W        W22920   5.912   5.818   4.322  0.1326 -0.0651  0.2016
 7790W        W22921  15.448   3.271  14.213  0.0640 -0.3427  0.0951
 7791W        W22922  18.379  13.723  13.412  0.1564  0.0161  0.0326
 7792W        W22923   8.947   8.618  12.647  0.0505 -0.3385 -0.0762
 7793W        W22924  10.082   6.088   3.558 -0.2362  0.1482 -0.5675
 7794W        W22925   5.912   4.036   3.238 -0.0497  0.0221 -0.0062
 7795W        W22926   8.025   9.631  13.395  0.1304  0.0583 -0.0187
 7796W        W22927  17.270  14.678  10.460 -0.0690  0.1399 -0.2082
 7797W        W22928  10.665   7.228   1.822  0.0372  0.2907  0.0198
 7798W        W22929   4.011  14.184  11.010  0.0135 -0.2191 -0.0524
 7799W        W22930  11.117  16.070  11.089 -0.0898 -0.2177 -0.1575
 7800W        W22931   4.294   9.668  11.558  0.0192 -0.1305  0.1437
 7801W        W22932   8.177  14.755   3.307  0.0136 -0.2267  0.1116
 7802W        W22933   4.446   9.337   4.889 -0.0157 -0.1569  0.2902
 7803W        W22934   1.205   6.137  11.758 -0.0433 -0.1036  0.0621
 7804W        W22935   5.049  12.538   2.655 -0.1758  0.2003  0.1063
 7805W        W22936  10.346   4.642   0.136 -0.3142 -0.0083  0.1088
 7806W        W22937  14.601  15.087   6.085  0.2705 -0.0217  0.1016
 7807W        W22938   6.070   0.043  11.715 -0.1551 -0.1005 -0.0376
 7808W        W22939   8.479   8.655  10.172 -0.1085 -0.1866 -0.0471
 7809W        W22940   7.392   5.307   3.681 -0.2025  0.1383  0.0475
 7810W        W22941   4.436  12.621  14.442  0.1063 -0.0128 -0.2425
 7811W        W22942  12.823  10.186   9.976 -0.4332 -0.1063 -0.1389
 7812W        W22943  12.040   1.576  13.558 -0.1169  0.0517 -0.1199
 7813W        W22944   8.902   0.401   1.194 -0.4776 -0.2599  0.2811
 7814W        W22945   1.144   1.487   1.104  0.2645  0.2029 -0.0256
 7815W        W22946  18.430  16.221   4.223 -0.0808 -0.2667  0.0802
 7816W        W22947   1.867   8.647  10.966  0.2109  0.0548  0.3009
 7817W        W22948  14.553  18.526   5.520  0.2446 -0.0782  0.1855
 7818W        W22949  17.362   3.373   2.974  0.2818  0.2682 -0.1073
 7819W        W22950   3.067  11.932  13.228 -0.2741 -0.0290  0.0182
 7820W        W22951   7.042   8.866   3.930  0.0013 -0.2248 -0.0501
 7821W        W22952  11.954   6.348  11.025 -0.2632 -0.0828  0.2563
 7822W        W22953   4.231  10.437   4.933  0.1479  0.0737 -0.1022
 7823W        W22954  13.752   4.514   0.206  0.0110  0.2026  0.1278
 7824W        W22955  17.573   7.565  10.250  0.4782  0.0869  0.2592
 7825W        W22956   2.296   9.583  13.003 -0.3746 -0.0048  0.2477
 7826W        W22957   5.766  16.084   2.669  0.1131 -0.1567 -0.0360
 7827W        W22958   8.531  16.244  13.621 -0.0075  0.1938  0.2156
 7828W        W22959   6.416   6.591  11.400  0.2033  0.0649  0.1846
 7829W        W22960   3.538  12.042  10.001  0.0922  0.1641  0.0112
 7830W        W22961  16.328  12.446   0.271 -0.0833  0.0680  0.0508
 7831W        W22962  11.702  14.459   1.440 -0.1241  0.0716 -0.0773
 7832W        W22963   8.498   5.500  12.895 -0.0816 -0.0178  0.0410
 7833W        W22964  16.255   7.382   4.011  0.3801  0.0140  0.3055
 7834W        W22965   2.406  12.816   4.106  0.0024  0.4041 -0.3864
 7835W        W22966  13.413   4.705  13.066  0.0378 -0.2237  0.3733
 7836W        W22967   6.755   5.223  14.217  0.1779  0.1325  0.0610
 7837W        W22968  12.056   4.294   2.957 -0.3126  0.1374  0.3179
 7838W        W22969   8.334   0.892  15.480 -0.2978 -0.0729 -0.1631
 7839W        W22970   3.697  10.559   4.949  0.1213  0.1606 -0.1102
 7840W        W22971  16.657  13.175   4.583  0.1804 -0.2423  0.0791
 7841W        W22972   7.454   4.015   2.649 -0.0367  0.1667 -0.2117
 7842W        W22973   9.752   8.490   5.080 -0.2528 -0.4340 -0.1977
 7843W        W22974  10.526  17.913   2.310 -0.0488 -0.1273  0.0416
 7844W        W22975   5.953   1.272  10.377 -0.2952 -0.4124 -0.0729
 7845W        W22976   0.767   9.950   2.695  0.1798  0.3069 -0.0290
 7846W        W22977   6.376  10.348  14.171  0.3199 -0.0419  0.1139
 7847W        W22978   6.690   5.155  12.374  0.1361  0.4109 -0.3016
 7848W        W22979   6.367   7.303   3.990  0.2702  0.0347 -0.1827
 7849W        W22980   4.749  13.378  13.301  0.0403 -0.2075 -0.0189
 7850W        W22981  18.361  11.587   3.361 -0.2168 -0.0171 -0.0390
 7851W        W22982  16.228  10.062  10.075  0.0585  0.0246  0.0057
 7852W        W22983  16.032  16.148  14.414 -0.1037  0.2598  0.2271
 7853W        W22984  11.746   1.320   1.993  0.2773 -0.1337 -0.1016
 7854W        W22985  11.127  14.582   4.615  0.1899 -0.0036 -0.3062
 7855W        W22986  11.746   2.322  10.652 -0.1782  0.1125  0.0802
 7856W        W22987  16.484  16.544   5.141 -0.0158 -0.1517 -0.1570
 7857W        W22988  15.067   1.297   5.611  0.1622  0.1182  0.1159
 7858W        W22989  12.145   2.987  11.640  0.1209 -0.1225  0.2675
 7859W        W22990  13.599  12.140  12.274 -0.3251  0.1164 -0.2589
 7860W        W22991   5.198  11.354   1.862  0.0961  0.0557  0.1769
 7861W        W22992  15.127  11.802  11.552 -0.0321 -0.3084  0.3240
 7862W        W22993  12.650   0.415   4.547  0.1130  0.0989  0.4188
 7863W        W22994  11.240  10.702  12.225 -0.2547  0.0276 -0.0697
 7864W        W22995   3.716  17.295  15.137 -0.1878 -0.0528 -0.1018
 7865W        W22996   4.444   4.982   2.591  0.2078  0.3580  0.1764
 7866W        W22997  13.624  16.662   3.811  0.0118 -0.1457  0.0967
 7867W        W22998  13.436  12.183  11.608 -0.1097  0.0768 -0.1352
 7868W        W22999   7.850  13.890   2.977  0.2606  0.4111  0.2363
 7869W        W23000   1.270   3.556  14.271  0.2563  0.3795 -0.2143
 7870W        W23001   8.117  11.046  13.522  0.3224 -0.4084 -0.0508
 7871W        W23002   2.375  12.697   0.138 -0.4514 -0.0870  0.1227
 7872W        W23003   8.003  17.722   5.102  0.0763 -0.0659 -0.0135
 7873W        W23004  12.960   1.157   0.857  0.0364  0.0198 -0.2873
 7874W        W23005   8.286   7.327   2.230  0.2067 -0.0780 -0.0330
 7875W        W23006   5.118  13.702  14.044 -0.2735 -0.3427 -0.1388
 7876W        W23007   4.681  14.649  10.091  0.2580 -0.0710  0.3304
 7877W        W23008   9.484  13.598   3.784 -0.0308  0.1620 -0.2363
 7878W        W23009  13.775   2.912  14.623 -0.1883  0.1538  0.2710
 7879W        W23010  12.608   9.306   2.204 -0.3217 -0.2764 -0.0671
 7880W        W23011  11.688   7.912   0.971 -0.2507  0.1874  0.2779
 7881W        W23012   4.444  12.048   1.368 -0.3838 -0.1376  0.1092
 7882W        W23013  13.711   8.583   0.516  0.2716 -0.0189 -0.1666
 7883W        W23014   2.980  18.150   5.948  0.2731  0.1887  0.0875
 7884W        W23015  12.731   0.431  11.780 -0.3631  0.0755  0.1477
 7885W        W23016  14.436  11.578  14.455 -0.2903 -0.3314 -0.0090
 7886W        W23017  11.364   7.569  15.394  0.1307 -0.2456  0.2146
 7887W        W23018  17.153   2.661   3.382  0.0514 -0.0156  0.1375
 7888W        W23019  12.920   7.061  11.700  0.0049 -0.2274  0.1653
 7889W        W23020   1.904  13.045  13.406 -0.1084 -0.0723 -0.0686
 7890W        W23021  16.064  15.467   0.059  0.2185 -0.0866 -0.1365
 7891W        W23022  11.033  14.724  13.162  0.0414 -0.1486 -0.0879
 7892W        W23023  16.463  13.501  11.074 -0.2650  0.1109  0.0893
 7893W        W23024  15.913   4.525  14.620 -0.2159  0.0997 -0.0404
 7894W        W23025   0.806  15.486   4.289 -0.0964 -0.1400 -0.1583
 7895W        W23026  17.490   0.488   2.430  0.2897  0.0345 -0.0501
 7896W        W23027   7.505   3.713   4.067  0.2166 -0.1174  0.3629
 7897W        W23028  13.507   9.946   4.131  0.0457  0.1790 -0.1496
 7898W        W23029  14.351   5.888   2.734  0.3378 -0.1735 -0.2874
 7899W        W23030   0.344  18.004   4.751 -0.1648 -0.1722  0.3396
 7900W        W23031   1.991   5.072   2.662  0.0254 -0.3412  0.0164
 7901W        W23032   0.672   9.999   0.807  0.0208  0.0801  0.0590
 7902W        W23033   0.383   4.577   1.956 -0.1509  0.1412 -0.1069
 7903W        W23034   1.816   1.876  13.158  0.1054 -0.0655 -0.1602
 7904W        W23035   3.219  11.074  10.794  0.0354 -0.2274  0.2855
 7905W        W23036  15.817   8.171   2.008 -0.0758 -0.2829  0.0851
 7906W        W23037  16.299  10.304   5.802 -0.1404 -0.2101  0.3266
 7907W        W23038   0.762   2.893   2.419 -0.0854 -0.0739  0.2015
 7908W        W23039  18.086  13.761  14.963  0.3243  0.0056  0.3187
 7909W        W23040   1.683   0.813   0.126 -0.2670 -0.1637 -0.6331
 7910W        W23041   4.842  15.755   2.523  0.3611 -0.1484 -0.0610
 7911W        W23042  16.425  18.186   3.087  0.1087  0.0674 -0.1433
 7912W        W23043   6.368   9.684   3.829 -0.0080 -0.6007 -0.0489
 7913W        W23044  16.677  14.153   3.459 -0.0896  0.1346  0.3269
 7914W        W23045   5.745   8.761   3.480  0.1271 -0.1301 -0.1983
 7915W        W23046   9.649   4.279   5.255  0.2112  0.1126  0.2065
 7916W        W23047  11.974   7.975   0.101 -0.1216 -0.1570  0.1523
 7917W        W23048   4.063  17.490  10.580  0.2065  0.1572  0.0868
 7918W        W23049  13.047   6.381   4.903 -0.1237  0.4942  0.0366
 7919W        W23050   6.090  15.225   2.451  0.2517  0.0892  0.2438
 7920W        W23051  12.451   3.820   0.319 -0.0921 -0.3520  0.1206
 7921W        W23052   3.955  15.690   1.356  0.0903 -0.1246  0.0645
 7922W        W23053   3.398   3.665  12.377  0.0090  0.1123 -0.3138
 7923W        W23054  12.840  11.686   4.225 -0.2327  0.0223  0.1387
 7924W        W23055   3.891  15.808  13.012  0.2935  0.3073  0.0290
 7925W        W23056  14.222  16.343   2.737 -0.0370 -0.0107 -0.1465
 7926W        W23057  15.843  10.735  11.628  0.1630  0.0156  0.0516
 7927W        W23058   4.975  18.298  10.078  0.1382 -0.0735 -0.1169
 7928W        W23059  15.629  16.809   6.104 -0.0405  0.0717 -0.0889
 7929W        W23060  11.483  17.589   0.687  0.0757  0.1521 -0.0258
 7930W        W23061  13.835   5.768  12.431  0.1480 -0.1423 -0.0070
 7931W        W23062   4.149   9.484  14.518  0.1219 -0.0330 -0.4195
 7932W        W23063   2.894   2.583  14.587  0.2261  0.1675  0.3871
 7933W        W23064   6.106  14.208  13.152 -0.0927 -0.2284 -0.2624
 7934W        W23065  10.519   0.463  14.374  0.1497  0.2326 -0.1323
 7935W        W23066   8.410  12.451  15.460  0.0800  0.0641 -0.0620
 7936W        W23067   5.753   9.926   2.679 -0.0484  0.0126  0.3447
 7937W        W23068  11.380  17.196  13.670  0.2845  0.1931 -0.1798
 7938W        W23069   0.379   1.720   3.246  0.2526 -0.0305 -0.4926
 7939W        W23070  15.510   8.514   0.511  0.1325 -0.3080 -0.0452
 7940W        W23071   2.224  17.883  15.341 -0.3044  0.2497 -0.1133
 7941W        W23072  11.434  14.994   5.797 -0.2098 -0.3336 -0.2369
 7942W        W23073   5.413  11.506   1.124  0.1330 -0.4744  0.1469
 7943W        W23074  13.575  15.640   3.558 -0.0487 -0.0614  0.0115
 7944W        W23075   6.070   7.877  13.499  0.3629  0.0632 -0.2542
 7945W        W23076   3.391   2.620   5.219  0.2941 -0.1597  0.1925
 7946W        W23077  15.662   8.826  13.790  0.2563  0.0419 -0.3144
 7947W        W23078  10.363  14.435  14.837 -0.1532 -0.2281 -0.0657
 7948W        W23079  12.630   8.759   2.265  0.0846 -0.5280  0.1204
 7949W        W23080   5.702   5.548   3.148 -0.1204 -0.0527  0.0912
 7950W        W23081  17.937   5.748   1.771 -0.1218 -0.0669  0.2215
 7951W        W23082   5.920  11.183   0.708  0.1151  0.1263  0.3182
 7952W        W23083   7.530   9.882   2.029  0.2225  0.2251 -0.0565
 7953W        W23084   1.116   2.385  13.384 -0.2767 -0.0479  0.5724
 7954W        W23085  10.912   0.781  14.804 -0.0341 -0.1648 -0.4645
 7955W        W23086  18.709  18.339  10.226 -0.1793  0.1994  0.1595
 7956W        W23087   1.195  11.736   0.580  0.0620  0.0426  0.3009
 7957W        W23088  14.679  11.814   5.213 -0.2195  0.0358  0.1671
 7958W        W23089  11.986   6.084   9.786 -0.4521  0.1078 -0.0619
 7959W        W23090   5.352   0.659  12.013  0.3881 -0.2209 -0.2220
 7960W        W23091  10.617  17.235   0.020  0.0045 -0.3874  0.1859
 7961W        W23092   5.376   1.338  13.322  0.2406 -0.2265  0.0898
 7962W        W23093  16.345   3.681   5.861 -0.1530 -0.3092  0.0472
 7963W        W23094   0.000  10.477  14.192 -0.0163 -0.5648 -0.0920
 7964W        W23095  18.571   6.694   0.127  0.1940 -0.2206  0.0316
 7965W        W23096  17.875  14.247  13.131 -0.1843 -0.1795  0.0110
 7966W        W23097  17.609  16.465  12.363  0.1488 -0.1394  0.1111
 7967W        W23098  18.149  14.748  12.611 -0.0172 -0.0047 -0.1629
 7968W        W23099  16.456  16.487   1.211 -0.1533 -0.0296 -0.1068
 7969W        W23100  18.269   5.653  10.852 -0.5915  0.1382  0.1810
 7970W        W23101   3.781   5.758   1.708 -0.1600  0.0749 -0.1667
 7971W        W23102   5.793  18.151  13.760  0.2890 -0.1405 -0.2273
 7972W        W23103   3.752  10.282  10.062 -0.1092  0.0353  0.2422
 7973W        W23104   0.482   7.567  12.270  0.0339  0.0982  0.0020
 7974W        W23105  10.672   2.787   2.399 -0.0996  0.2450 -0.1429
 7975W        W23106   6.939   0.668  15.269 -0.3633 -0.0711 -0.2458
 7976W        W23107   7.632  13.932  14.814  0.4703 -0.3296 -0.0763
 7977W        W23108  13.386   2.478  10.534 -0.3319  0.1228  0.0785
 7978W        W23109   9.761   7.257  11.865  0.0627  0.2420 -0.2032
 7979W        W23110   6.632   6.984   1.997  0.1395 -0.0153  0.2998
 7980W        W23111   9.614  11.949   4.690 -0.0247  0.0162 -0.1275
 7981W        W23112  16.012  16.500  13.204 -0.1867  0.0791 -0.3044
 7982W        W23113   1.853   0.979  13.528  0.3177 -0.0820 -0.4023
 7983W        W23114  17.146  12.707  12.136 -0.1025  0.0478  0.2506
 7984W        W23115  18.210  16.173   0.430 -0.0511 -0.0534 -0.2260
 7985W        W23116   5.160   3.375  12.383  0.0401 -0.0325 -0.1951
 7986W        W23117   2.851   5.517  14.466 -0.0456  0.2299  0.0433
 7987W        W23118   0.778  18.083   5.048 -0.0440  0.2917 -0.0692
 7988W        W23119  17.355   0.997   3.699  0.0273  0.2873  0.0997
 7989W        W23120   1.632  11.947   2.904 -0.3404  0.0502 -0.2443
 7990W        W23121  14.365  16.428  12.135 -0.2670 -0.2597 -0.2000
 7991W        W23122  13.296   8.885   4.194 -0.1437 -0.0216  0.0688
 7992W        W23123  12.497   5.684  15.372  0.2148  0.2496 -0.0366
 7993W        W23124  18.346   5.918   3.095  0.0667 -0.0856  0.1541
 7994W        W23125   9.796  13.509  12.952  0.1087 -0.1959 -0.0757
 7995W        W23126  12.928  15.225   0.928 -0.1484 -0.2306  0.1056
 7996W        W23127   0.314   3.474   4.491 -0.3010 -0.3590  0.0596
 7997W        W23128  12.490  12.605   1.588  0.0915 -0.1854  0.1407
 7998W        W23129   2.459  16.598  12.697  0.2027 -0.0578 -0.0151
 7999W        W23130   1.531   4.767  14.791  0.1454 -0.0407 -0.1089
 8000W        W23131   0.542  11.459   0.805 -0.3257 -0.2060 -0.0816
 8001W        W23132   6.738   5.844   3.555  0.0850  0.0563 -0.4278
 8002W        W23133   9.877  16.642  15.095 -0.2617 -0.0614 -0.0940
 8003W        W23134   5.208   9.782  10.340 -0.0042  0.0861 -0.0338
 8004W        W23135   1.692   0.517  14.626  0.2749  0.3137 -0.1496
 8005W        W23136   4.763   9.837  11.853 -0.1954  0.4929  0.2390
 8006W        W23137   5.769   0.916  11.842 -0.1932  0.0407  0.0657
 8007W        W23138  17.913   1.404  15.505  0.0122  0.0382  0.4883
 8008W        W23139   1.265  10.657   0.664  0.0880  0.2781  0.2201
 8009W        W23140   5.128  11.077  15.643  0.1252  0.0203 -0.2695
 8010W        W23141  15.102  10.595   2.140  0.0230  0.3438  0.1094
 8011W        W23142  18.683   0.572   1.582  0.2233 -0.4401  0.2396
 8012W        W23143  10.088   1.127   2.934 -0.0556  0.0282  0.4751
 8013W        W23144  14.452   8.286   5.509 -0.2972 -0.0090 -0.0803
 8014W        W23145  16.155  14.332  13.231  0.1953  0.1533 -0.0099
 8015W        W23146  11.024   1.747  15.400  0.0460 -0.1313  0.0094
 8016W        W23147  14.671   7.267  13.597  0.2486  0.0752  0.2641
 8017W        W23148  11.185   3.106  11.225  0.0568 -0.4264  0.2708
 8018W        W23149   0.840  11.056  11.657  0.2065 -0.4246 -0.1760
 8019W        W23150   6.062  12.220   0.890 -0.2804  0.0206 -0.1279
 8020W        W23151  17.249  13.977  13.949  0.1116 -0.2769  0.0447
 8021W        W23152  15.265   5.743   0.580 -0.2861  0.0209 -0.0134
 8022W        W23153  12.828  18.299   6.142  0.1507 -0.3879  0.1248
 8023W        W23154   1.170  11.618   1.584  0.0276  0.0548  0.0044
 8024W        W23155  11.185   4.677  11.798  0.0795  0.0370 -0.2295
 8025W        W23156  10.196   6.385  14.963 -0.3040  0.3775 -0.1302
 8026W        W23157  14.689  11.115  10.541  0.0110  0.0607 -0.4019
 8027W        W23158   1.143   2.935   4.889 -0.2679  0.1264  0.1299
 8028W        W23159  14.121  13.110   5.593 -0.0180 -0.3407  0.2743
 8029W        W23160  14.275   0.633   3.323  0.2381  0.0801 -0.2444
 8030W        W23161  13.653   7.487  12.798  0.0016  0.0580  0.1836
 8031W        W23162   8.287   4.705   4.441 -0.1319 -0.2449 -0.3693
 8032W        W23163  16.427  18.452   3.500  0.2177  0.0203  0.2649
 8033W        W23164   3.486   9.136  13.197  0.0777  0.0172  0.0998
 8034W        W23165  17.710   1.813   2.823  0.2848  0.0787 -0.0835
 8035W        W23166   9.477   5.588  13.678  0.3053  0.1986 -0.0375
 8036W        W23167   0.901  13.749   4.290 -0.0794  0.0336 -0.1138
 8037W        W23168   3.759  16.602  10.100 -0.0464  0.2110  0.1568
 8038W        W23169  17.828  15.008   3.574 -0.3336 -0.3120 -0.0758
 8039W        W23170  14.032  17.207  14.148  0.1226 -0.1159  0.0890
 8040W        W23171  14.569  14.686   3.198  0.0991  0.2746  0.1746
 8041W        W23172   1.791   2.004   5.506  0.1366 -0.2664 -0.5710
 8042W        W23173   0.759   3.888   2.059 -0.0328  0.1409 -0.1281
 8043W        W23174  17.894  16.101   0.072  0.3155 -0.0579 -0.0469
 8044W        W23175  16.269   1.964   4.609 -0.1657  0.5076  0.1680
 8045W        W23176   9.843  11.455   2.756  0.0779  0.1539  0.2390
 8046W        W23177  18.036   5.080  12.466 -0.4173  0.2637  0.0455
 8047W        W23178  13.318  16.213  10.768 -0.3358  0.0238  0.4025
 8048W        W23179  16.934  10.791  13.961 -0.2112 -0.0479  0.2013
 8049W        W23180   9.073  15.445   0.610 -0.0641 -0.1773 -0.1071
 8050W        W23181  15.780   9.490   2.131 -0.1177  0.1498  0.3443
 8051W        W23182   3.963   3.017   2.149 -0.1630  0.0567 -0.2973
 8052W        W23183  11.878   7.174   3.389  0.1526  0.1415 -0.1129
 8053W        W23184   2.905   7.252  14.760  0.3487  0.0642 -0.0311
 8054W        W23185   8.185   2.873   0.097 -0.1825 -0.0804  0.1236
 8055W        W23186   7.940  16.201   1.768 -0.1011  0.3096  0.3171
 8056W        W23187   8.518   0.828   3.239  0.2733  0.0022 -0.0261
 8057W        W23188  16.018   3.616   4.993 -0.3625 -0.2188  0.1982
 8058W        W23189  14.686   5.370   3.672  0.0312 -0.4306  0.1342
 8059W        W23190   4.068   6.997  13.182  0.2530  0.0859  0.1164
 8060W        W23191  11.411   5.821  12.594  0.0343 -0.0663 -0.0178
 8061W        W23192   1.460  11.257  14.897  0.1308  0.1293 -0.1342
 8062W        W23193   2.103   5.652   2.511  0.0443 -0.0496  0.0477
 8063W        W23194  15.982  13.762  12.987  0.2879 -0.0934  0.0599
 8064W        W23195  13.193  11.890  12.054 -0.0528 -0.0534  0.1009
 8065W        W23196   3.891   7.290  14.834  0.0004  0.3561  0.0608
 8066W        W23197   8.104   8.897   4.675 -0.1791 -0.1585  0.1369
 8067W        W23198  15.775  15.197   2.986 -0.0871  0.0304  0.1666
 8068W        W23199  18.101   7.087   1.468  0.0930 -0.1545 -0.0096
 8069W        W23200   7.382   5.881   3.737  0.2794 -0.4704 -0.2645
 8070W        W23201  17.615   8.728  14.145  0.0405  0.1412 -0.2966
 8071W        W23202   0.516   1.938  12.624  0.1004  0.0183  0.2099
 8072W        W23203   8.601   9.806   5.643  0.5219  0.3206  0.1216
 8073W        W23204  17.078   8.534   4.361  0.5114 -0.2411  0.1514
 8074W        W23205   3.661   0.834  13.838 -0.0128  0.1729  0.0009
 8075W        W23206  16.671  12.868  13.579 -0.3417  0.2538 -0.3651
 8076W        W23207   1.803  10.123   2.005 -0.2249 -0.2599  0.0505
 8077W        W23208   9.192  14.468  14.820  0.0792  0.2428  0.1469
 8078W        W23209   1.017   9.005   2.218 -0.1470  0.0585 -0.1426
 8079W        W23210  15.618  17.614   4.458  0.3063 -0.0556  0.0301
 8080W        W23211  10.330  17.995  13.017  0.3205 -0.0344  0.0631
 8081W        W23212   4.448   8.529  14.773 -0.2540 -0.2206  0.0433
 8082W        W23213  15.926   8.639   3.643  0.0064 -0.1999  0.0042
 8083W        W23214   2.004   9.215  14.278 -0.2933 -0.0729  0.1081
 8084W        W23215   6.801   7.343   1.252 -0.0825  0.2476 -0.2379
 8085W        W23216   2.487   1.812   3.280  0.0503  0.0355  0.0800
 8086W        W23217   5.339   5.761   4.601 -0.0451 -0.1421 -0.1100
 8087W        W23218   8.829  11.939   2.369 -0.0028 -0.1213  0.1788
 8088W        W23219  13.087   9.469   1.966 -0.3118 -0.4314 -0.1106
 8089W        W23220  17.180  14.758  14.645  0.1515 -0.2038  0.0428
 8090W        W23221   7.897  12.509  10.366 -0.1816  0.0466  0.0016
 8091W        W23222   7.022   7.791   4.584  0.1079 -0.0764 -0.1508
 8092W        W23223  11.882  18.626   5.753  0.0032  0.0883 -0.2382
 8093W        W23224  12.523  14.335   4.855 -0.1135  0.0818  0.0386
 8094W        W23225  10.661  18.713   4.532 -0.2846  0.0508  0.0043
 8095W        W23226  15.734   8.574  10.607 -0.1209  0.1261  0.1389
 8096W        W23227   9.292   8.165   5.230  0.0515  0.1764 -0.1802
 8097W        W23228  10.244   3.485  11.814  0.1050 -0.0510  0.3866
 8098W        W23229   5.241   4.614  15.160  0.0491 -0.3188  0.0915
 8099W        W23230  16.515  18.202  13.225  0.0893 -0.2226 -0.2877
 8100W        W23231   3.426  15.937  14.939  0.2472 -0.0176  0.1260
 8101W        W23232   5.232   3.267  14.202  0.0308 -0.0114  0.1111
 8102W        W23233   7.621   9.714   0.465 -0.3824  0.2253  0.2701
 8103W        W23234   7.373   4.179  14.938  0.3132  0.1026  0.3400
 8104W        W23235   8.783  11.117  11.987 -0.0958 -0.0923  0.2106
 8105W        W23236   1.978   1.896  14.978 -0.1327 -0.0234  0.4807
 8106W        W23237   7.910  12.348  10.893 -0.1088 -0.0461 -0.2288
 8107W        W23238  14.595   7.039  11.437  0.2366 -0.3306  0.2710
 8108W        W23239   4.148   9.060   3.658  0.2378  0.2969 -0.2917
 8109W        W23240  16.010  18.445  13.074 -0.1034  0.0229 -0.1082
 8110W        W23241   7.692   7.891  11.604 -0.2205  0.3896 -0.2211
 8111W        W23242   9.306  15.543  13.434  0.2631  0.1473 -0.1865
 8112W        W23243  16.105  11.745  12.465 -0.0221  0.1453 -0.2067
 8113W        W23244  17.043   7.686  11.657 -0.1708 -0.0156 -0.0338
 8114W        W23245   0.033  10.949  12.907  0.1718  0.2340  0.0284
 8115W        W23246   8.227   8.247  15.225  0.2013  0.0844 -0.2582
 8116W        W23247   6.215  12.574  11.574  0.1347  0.3194 -0.2611
 8117W        W23248   6.696   1.990  11.039  0.1738 -0.2596 -0.1695
 8118W        W23249  10.294  12.266  13.881  0.1860  0.0453 -0.0138
 8119W        W23250  18.205   4.207  13.421 -0.0916  0.1152  0.5150
 8120W        W23251   0.404  16.120   5.024  0.0874  0.1820  0.0880
 8121W        W23252   1.345  17.866   0.371 -0.3283 -0.2016 -0.0293
 8122W        W23253  10.805   3.571   3.790 -0.0173  0.1817  0.0372
 8123W        W23254   8.619   7.531   2.826  0.1387 -0.1728 -0.2359
 8124W        W23255  17.355  13.199   0.883 -0.0038 -0.3270 -0.2636
 8125W        W23256   1.475   1.638  15.563 -0.0764 -0.0369  0.2169
 8126W        W23257  12.338   3.726   4.887  0.0408 -0.0208  0.3547
 8127W        W23258   2.240   1.407  14.424  0.0095  0.2199 -0.2104
 8128W        W23259  11.932  11.962  13.846 -0.3032 -0.0225  0.2561
 8129W        W23260   4.705   6.041   2.728 -0.4807  0.1026 -0.0264
 8130W        W23261   0.829  17.980  14.797 -0.0253 -0.4927  0.0367
 8131W        W23262   9.225  12.104   3.664 -0.1819  0.0558  0.1680
 8132W        W23263  15.834   1.515   3.600  0.0744  0.0806 -0.1747
 8133W        W23264  14.191   3.149   5.149  0.3536 -0.1059 -0.1310
 8134W        W23265  16.049  11.147   3.197 -0.0289  0.3966 -0.1180
 8135W        W23266   2.487   1.824  10.701  0.0793 -0.1141  0.1591
 8136W        W23267   7.121   8.430  12.656 -0.0551  0.1045  0.0406
 8137W        W23268  13.553   1.843  14.553  0.3279 -0.1621  0.1219
 8138W        W23269  17.703  13.195   2.826  0.2111 -0.1948 -0.1499
 8139W        W23270   3.285   3.801  13.284 -0.0860  0.0691 -0.2869
 8140W        W23271   3.657   7.660  12.838  0.0999  0.0665 -0.0455
 8141W        W23272   0.137   9.246   5.234  0.2928 -0.0747  0.2640
 8142W        W23273  16.368  15.310   0.463  0.5236  0.5208  0.0579
 8143W        W23274  15.292  10.038   4.595 -0.3374 -0.4543  0.4181
 8144W        W23275   0.791   9.065   3.733 -0.0120  0.1420  0.0255
 8145W        W23276   8.451   3.661  10.964 -0.1538  0.0495  0.2211
 8146W        W23277  17.755   4.958   2.520  0.1039  0.1873  0.1558
 8147W        W23278   1.703   5.843  15.425 -0.2147  0.0097  0.0278
 8148W        W23279   8.447   9.330  13.374 -0.3166 -0.0967  0.0239
 8149W        W23280  13.829   7.559   4.603  0.1467  0.3413  0.0107
 8150W        W23281   5.352   3.292  13.220 -0.2280 -0.1069  0.3451
 8151W        W23282  12.065  13.405  15.465  0.0144  0.0526  0.3014
 8152W        W23283   3.477   0.208  14.918 -0.0173  0.4500  0.1217
 8153W        W23284   4.801   0.027   0.080  0.2937  0.1281  0.0594
 8154W        W23285  16.756   9.508  14.063  0.0378 -0.2580 -0.0232
 8155W        W23286  12.813  17.954  11.435  0.1644  0.4312  0.0182
 8156W        W23287   7.220  11.007   2.069 -0.0668  0.0295 -0.1135
 8157W        W23288  14.419  11.756   3.729  0.4755  0.1808  0.1610
 8158W        W23289   8.561  11.014   2.330  0.2243  0.1152 -0.0022
 8159W        W23290  12.103   5.048  15.345  0.1281  0.2712 -0.1252
 8160W        W23291   1.338   6.978   2.393  0.1737 -0.0323 -0.2311
 8161W        W23292   2.071   8.051  11.899 -0.0281  0.1535  0.2084
 8162W        W23293   2.401   5.541  14.005  0.0681  0.2051  0.1631
 8163W        W23294   2.918   3.696   4.511  0.0144 -0.1891 -0.0195
 8164W        W23295   0.796  13.160  14.753  0.2548 -0.0018  0.0512
 8165W        W23296   3.318  14.785   4.285 -0.1327 -0.0003  0.1593
 8166W        W23297  16.894   0.865  12.412 -0.1682  0.2845  0.1788
 8167W        W23298   1.308  11.623  13.064 -0.2552 -0.0946 -0.1779
 8168W        W23299   2.331   9.799   3.534  0.2535  0.0742  0.0661
 8169W        W23300  14.172  14.238  11.291 -0.0648  0.1671 -0.1770
 8170W        W23301  10.448   9.127   4.508  0.0226 -0.0785 -0.2136
 8171W        W23302  17.516   3.394   3.466 -0.2986 -0.0374 -0.0702
 8172W        W23303  16.101  13.609   1.404 -0.0927 -0.2529  0.2156
 8173W        W23304   7.642   3.702   4.561 -0.2226  0.1127 -0.0020
 8174W        W23305   9.462   1.087   5.532  0.1292 -0.1923  0.1979
 8175W        W23306  17.997  13.476  13.118  0.2080 -0.3113 -0.2382
 8176W        W23307   6.999   7.450   9.540 -0.1792  0.1537 -0.2167
 8177W        W23308   7.709  17.924   6.093  0.0098  0.0004 -0.2060
 8178W        W23309   3.002   8.045   5.188 -0.2110 -0.0794 -0.0475
 8179W        W23310  16.901   2.073  11.870  0.1718  0.0789 -0.5043
 8180W        W23311   0.543   2.896   1.462  0.0479  0.2212 -0.1201
 8181W        W23312   9.881   5.545   0.177  0.1756 -0.0499 -0.1102
 8182W        W23313  14.380   0.336   4.729  0.2540 -0.1704 -0.0382
 8183W        W23314  13.458  13.699   3.888  0.0054 -0.2091  0.0848
 8184W        W23315   2.616   9.403  15.604 -0.0421 -0.2170 -0.0617
 8185W        W23316   4.889  15.274   1.900  0.0305 -0.0814 -0.1974
 8186W        W23317   5.405  11.295   5.341  0.1246  0.0595  0.1622
 8187W        W23318  15.760  13.167   0.773  0.0087  0.0868  0.3301
 8188W        W23319  11.458   6.701   5.666 -0.4279 -0.1124 -0.3039
 8189W        W23320   0.565   4.362  15.523 -0.0252 -0.3098 -0.1383
 8190W        W23321   8.834   9.053   6.122  0.0293 -0.1624 -0.0685
 8191W        W23322   7.118   4.245   4.111  0.1229 -0.4734 -0.0394
 8192W        W23323   2.022  13.879  14.506 -0.2025  0.1234  0.0409
 8193W        W23324   3.746  15.194  14.981 -0.0301 -0.0475  0.2088
 8194W        W23325   7.724   1.334   0.289 -0.1183 -0.1184 -0.0022
 8195W        W23326   2.073   9.985  12.851  0.2598  0.2509 -0.0548
 8196W        W23327  15.438   4.648   0.795  0.3456 -0.0970 -0.4378
 8197W        W23328   0.290   8.631   2.185 -0.1863  0.1460  0.1364
 8198W        W23329   7.972   2.322   2.487 -0.1037 -0.0709  0.0049
 8199W        W23330   7.860  10.163   4.841 -0.1325  0.1571 -0.2107
 8200W        W23331  10.151   2.264   1.014  0.1082 -0.2258  0.4594
 8201W        W23332  11.994  16.850   2.050 -0.0310 -0.1500  0.1649
 8202W        W23333  14.925   8.449   3.573 -0.3087  0.0724  0.2025
 8203W        W23334  10.908  17.406   2.302 -0.0849  0.0223 -0.1922
 8204W        W23335  15.355   9.329   3.046  0.2391  0.1639  0.2615
 8205W        W23336   4.495   7.335   3.678 -0.0865  0.1290  0.0359
 8206W        W23337   3.260   7.721  15.461  0.1988  0.1367 -0.0208
 8207W        W23338   5.186  17.120  13.477  0.0855 -0.0619 -0.3266
 8208W        W23339   4.108   2.222  14.921  0.0571  0.0928  0.2229
 8209W        W23340  17.953  15.825   4.360  0.2353  0.0149 -0.0470
 8210W        W23341  17.259   9.370   2.409  0.2017 -0.1910  0.1055
 8211W        W23342  12.808   8.668  14.381 -0.0250  0.0538 -0.2151
 8212W        W23343  16.000  14.172  15.394  0.3770 -0.2507  0.1271
 8213W        W23344  13.119  12.664   1.343 -0.5356  0.3358 -0.1069
 8214W        W23345   2.762   1.504  11.371 -0.0900  0.3871 -0.1098
 8215W        W23346  17.615  12.498  14.449 -0.0505  0.0840  0.0697
 8216W        W23347  13.339   4.727  14.030  0.0398  0.1048 -0.1242
 8217W        W23348  15.364   7.756  10.833 -0.3462 -0.1034  0.1422
 8218W        W23349   0.976   7.023  12.516  0.2997  0.1590 -0.1411
 8219W        W23350  15.834   1.467   4.068  0.3002 -0.1007 -0.1221
 8220W        W23351  16.984  18.371   3.755  0.0748 -0.1437 -0.0566
 8221W        W23352   8.379   5.531   1.940  0.1492 -0.0984  0.0617
 8222W        W23353  10.685  15.704   1.736 -0.0934 -0.0074 -0.1695
 8223W        W23354   7.340  13.154  13.571  0.0558  0.0463 -0.1183
 8224W        W23355   3.674   5.182  13.483  0.5176  0.0349 -0.0694
 8225W        W23356   7.566   5.024   2.490  0.0720  0.1847 -0.3155
 8226W        W23357   9.041   7.314   2.051  0.1722  0.1501 -0.1129
 8227W        W23358   9.735   0.484   0.969  0.3247  0.4917  0.0962
 8228W        W23359   5.793   2.814   1.115 -0.1770 -0.0604  0.1020
 8229W        W23360   0.964  14.208  13.108  0.1701  0.1611 -0.0059
 8230W        W23361  16.194   7.491   0.825  0.1555  0.1059  0.2008
 8231W        W23362   2.160   6.300   2.804 -0.0744  0.2313 -0.0569
 8232W        W23363  18.215  14.209   5.021  0.2865  0.0729 -0.1851
 8233W        W23364  13.046   8.450  11.850 -0.2253  0.1514  0.1190
 8234W        W23365   5.842   0.296  11.337  0.4464  0.1726 -0.2335
 8235W        W23366   5.426   0.322  13.557 -0.2042  0.1970 -0.1483
 8236W        W23367  13.844  11.466   1.329 -0.1062 -0.0262 -0.0165
 8237W        W23368  13.386  12.121   3.677  0.2564 -0.1796 -0.2884
 8238W        W23369  11.656   3.267  11.424  0.1481 -0.2326  0.1674
 8239W        W23370   0.806  16.744  12.652 -0.2444 -0.1626 -0.4835
 8240W        W23371  10.044  14.633  11.708  0.1673  0.4237 -0.3825
 8241W        W23372  15.208  13.987   5.449  0.1605  0.3170  0.1178
 8242W        W23373   5.978  17.811   0.147  0.2409  0.1819 -0.2447
 8243W        W23374  11.503   2.433  14.432 -0.1454  0.0581  0.0143
 8244W        W23375   6.023  15.255  15.084 -0.1686  0.1063 -0.0528
 8245W        W23376  10.819  11.922   0.001 -0.0965 -0.1822  0.2996
 8246W        W23377   1.986  17.833   3.787 -0.0557  0.0858  0.1492
 8247W        W23378   5.754   2.450   5.707  0.0039  0.0253 -0.0477
 8248W        W23379  10.603   7.355   2.300 -0.0498  0.4018  0.2382
 8249W        W23380  14.605  11.274   3.550  0.1287  0.0724  0.0680
 8250W        W23381  14.025   0.841  14.379  0.4395 -0.1626 -0.1545
 8251W        W23382   2.671  12.009  12.916  0.0365 -0.0540  0.0117
 8252W        W23383  16.576   2.087   6.001 -0.1164 -0.1833 -0.0663
 8253W        W23384  18.722   2.224  15.686 -0.0060 -0.0666 -0.0410
 8254W        W23385  10.931  15.086  11.102 -0.0215 -0.0692  0.2255
 8255W        W23386  17.423   2.709  14.298 -0.0478 -0.1295  0.1856
 8256W        W23387   0.707  10.337   1.322 -0.0221  0.2488 -0.0624
 8257W        W23388   4.535  17.030  14.835 -0.1817 -0.0471 -0.2379
 8258W        W23389   9.224   2.297  12.247  0.1610  0.4216 -0.0626
 8259W        W23390   0.006   8.543   1.325  0.1100  0.5791  0.1205
 8260W        W23391   6.535  14.476   3.914  0.1454 -0.0472 -0.0129
 8261W        W23392  18.224  11.292   0.866  0.0042 -0.1829  0.0622
 8262W        W23393   8.520   0.044   2.821 -0.2284  0.3321  0.1098
 8263W        W23394  11.229  12.468  12.247 -0.3167 -0.0169  0.1037
 8264W        W23395   7.982   4.139  13.459 -0.7785  0.0501  0.2061
 8265W        W23396  11.681   9.966   1.305  0.1721 -0.1607 -0.2175
 8266W        W23397   1.749  12.531   3.557  0.2834  0.1495 -0.2121
 8267W        W23398   9.832  10.751   1.028  0.3242 -0.1360  0.0560
 8268W        W23399  12.677   7.516   1.026  0.0651 -0.0646  0.1106
 8269W        W23400  14.020  16.846   2.492 -0.0254  0.1669  0.2947
 8270W        W23401  18.290   3.879   3.266  0.0723  0.2146  0.1334
 8271W        W23402   0.819  17.374   1.888  0.0894 -0.0135 -0.0960
 8272W        W23403   2.153  13.346   1.132 -0.0123  0.0213 -0.3200
 8273W        W23404  17.421  16.210  14.746 -0.0175 -0.4291 -0.0952
 8274W        W23405   5.077   0.313   4.321  0.0014 -0.1304 -0.0682
 8275W        W23406  18.168  12.715   0.707  0.3561 -0.1808 -0.0051
 8276W        W23407   5.246  11.526  13.054  0.0462 -0.1820  0.1371
 8277W        W23408  14.963  18.587  13.237  0.1370 -0.0252 -0.3069
 8278W        W23409   0.209  13.572  15.654 -0.1505 -0.1500  0.0307
 8279W        W23410  15.824  17.411   3.356 -0.1299  0.0150  0.0683
 8280W        W23411   5.273   5.631  15.284 -0.1057  0.1879  0.0137
 8281W        W23412  18.418   7.319   3.938  0.3873 -0.0960  0.2266
 8282W        W23413   2.352  15.643  15.071  0.0568  0.0738  0.2348
 8283W        W23414  11.435  15.110   1.937 -0.0585  0.0966  0.4896
 8284W        W23415  11.597  13.414   0.120 -0.0720 -0.0586  0.0006
 8285W        W23416  11.619  17.537  10.328 -0.2156  0.1938  0.0841
 8286W        W23417  10.657  12.515  14.275 -0.0193  0.1767 -0.3265
 8287W        W23418  10.954  14.341   3.561 -0.0293 -0.4536 -0.2130
 8288W        W23419   7.740  16.579  13.166 -0.1856 -0.2254  0.2541
 8289W        W23420   3.228  10.655   4.233  0.0865  0.0420  0.0970
 8290W        W23421   2.083   2.199   0.516 -0.0869 -0.0914 -0.0772
 8291W        W23422  10.423  18.464  13.694 -0.2323  0.0472 -0.0080
 8292W        W23423   4.908  14.887   0.363 -0.0737 -0.0852 -0.3062
 8293W        W23424  12.474   5.230  11.717 -0.1940 -0.0532 -0.0664
 8294W        W23425  11.088   2.716  14.550  0.1665 -0.2630 -0.0923
 8295W        W23426  16.226   9.462  10.543  0.3279  0.3608  0.2139
 8296W        W23427   3.131  14.573  13.713  0.3865 -0.0861 -0.0742
 8297W        W23428  15.052   6.817   4.588 -0.4842  0.3108 -0.2420
 8298W        W23429   9.198  16.056   2.566  0.0876 -0.0796  0.0059
 8299W        W23430  17.601   4.862  12.654  0.4057 -0.1134 -0.3377
 8300W        W23431   5.886   2.525  15.056 -0.1036 -0.0836  0.1579
 8301W        W23432   0.509  12.261   1.964 -0.1906  0.3281  0.0571
 8302W        W23433  14.114   4.100  12.185  0.0969 -0.2594  0.0232
 8303W        W23434  13.933  12.520  14.655 -0.1746  0.0111 -0.2829
 8304W        W23435   3.668   0.382   4.725 -0.1107 -0.3231  0.0322
 8305W        W23436  15.247   1.844  12.226 -0.2114  0.3105  0.1373
 8306W        W23437   3.918   5.166  11.746 -0.2781 -0.1706 -0.0130
 8307W        W23438  13.160  12.950   0.471  0.2050  0.0166 -0.0459
 8308W        W23439  12.432  11.464  13.597 -0.0520 -0.0364  0.1673
 8309W        W23440  13.429  10.205  15.608  0.0655  0.2293 -0.0755
 8310W        W23441  14.079  17.804   0.459  0.2056 -0.0106  0.2146
 8311W        W23442   7.910   9.183   2.841  0.0982 -0.3091 -0.2925
 8312W        W23443   4.685  16.362   3.970 -0.1893 -0.5041 -0.0535
 8313W        W23444  11.320   1.859   0.091 -0.2690 -0.0825  0.2385
 8314W        W23445  14.439   3.127  10.168  0.4197  0.1396  0.2812
 8315W        W23446   9.853  14.473   0.624  0.3268 -0.0474  0.2221
 8316W        W23447   3.507  14.682  15.045 -0.0295 -0.1500  0.2246
 8317W        W23448  17.290   4.518  12.521 -0.1957 -0.2092  0.0815
 8318W        W23449  17.667   0.589  12.070 -0.2670  0.1521  0.0898
 8319W        W23450   7.208  13.448  11.460  0.1387 -0.1834 -0.0158
 8320W        W23451  16.258   2.040  14.306  0.2818 -0.1030  0.0898
 8321W        W23452   0.857   4.300  11.488  0.1399 -0.5591 -0.1471
 8322W        W23453   0.423   1.437   4.145  0.0886  0.1043 -0.1690
 8323W        W23454  12.733  17.580   2.561  0.0727  0.1824  0.2226
 8324W        W23455  16.817   6.605   0.654 -0.3113  0.1286  0.0294
 8325W        W23456   1.990  12.204  13.783  0.0732 -0.0555  0.2597
 8326W        W23457  14.943   6.932   2.579 -0.1308 -0.0370 -0.0983
 8327W        W23458  16.879  15.969   4.853 -0.0921  0.2287 -0.2297
 8328W        W23459  10.287   9.212   4.054  0.1890 -0.0741 -0.2595
 8329W        W23460   1.587   6.345   4.062 -0.0196 -0.0314  0.0842
 8330W        W23461  17.574  10.093  11.769  0.1177  0.1320  0.1901
 8331W        W23462   3.214   0.977   1.624  0.1330  0.1176 -0.2648
 8332W        W23463   4.134  13.261  15.035 -0.0797 -0.0552 -0.0557
 8333W        W23464  15.502   0.763  14.550 -0.2193  0.5516  0.2207
 8334W        W23465   3.088   5.605   2.023 -0.1342  0.2953 -0.0430
 8335W        W23466   2.041  18.101   6.106  0.1456 -0.0065  0.5141
 8336W        W23467  16.051   9.895  13.795 -0.0116 -0.2350 -0.2325
 8337W        W23468  17.281  13.957   5.326 -0.0757  0.1282 -0.1115
 8338W        W23469   2.759   5.620   0.649 -0.0016  0.3367  0.1212
 8339W        W23470   7.084  14.163   0.847 -0.5753  0.1291 -0.0061
 8340W        W23471  13.451   0.450   1.164 -0.2670 -0.1311 -0.1139
 8341W        W23472  12.171   2.200  15.556  0.1994 -0.1346 -0.2461
 8342W        W23473   5.492   6.977   1.277  0.1261 -0.1602  0.3496
 8343W        W23474  13.104  12.170  14.813 -0.0450  0.1602 -0.0504
 8344W        W23475  12.591  15.649   4.781  0.2873  0.0189 -0.1474
 8345W        W23476  16.885   1.612  14.443 -0.4713  0.1274 -0.0491
 8346W        W23477  14.802   5.476   4.845 -0.1201  0.1292  0.1132
 8347W        W23478   8.459  14.715   2.788  0.1348  0.1598 -0.0441
 8348W        W23479   1.414   4.438  11.441  0.1099 -0.0947  0.2521
 8349W        W23480  13.617  15.804   5.486 -0.1779  0.0516  0.1723
 8350W        W23481  10.927  12.796   5.379  0.2029 -0.0751  0.3378
 8351W        W23482  12.758  12.085  12.246  0.1297  0.0396 -0.0406
 8352W        W23483  15.337  17.549  14.031 -0.0327  0.1148 -0.0444
 8353W        W23484  12.931   2.337   1.078  0.2183  0.4410  0.1744
 8354W        W23485  17.889   2.477   0.217 -0.1039 -0.4051 -0.1088
 8355W        W23486   6.956   0.870  14.347  0.0141  0.0108 -0.0925
 8356W        W23487  13.491   6.660   5.030 -0.2031 -0.2350  0.1022
 8357W        W23488  12.541  13.887  13.739 -0.0601 -0.0187  0.1943
 8358W        W23489  16.928   9.443  12.274 -0.0623  0.0784 -0.3377
 8359W        W23490   6.644   3.559  12.001 -0.3100 -0.0932  0.0239
 8360W        W23491  17.693  13.516  12.149  0.0159 -0.1903  0.0302
 8361W        W23492   0.345   9.212   2.522 -0.0238 -0.0999 -0.0910
 8362W        W23493  14.689   1.570   0.888 -0.2471 -0.1876  0.1773
 8363W        W23494  13.843  18.218   3.306 -0.1163 -0.0118  0.0417
 8364W        W23495   6.548  10.162   0.176 -0.2911  0.1601  0.4642
 8365W        W23496  12.633   5.748  11.891  0.3432 -0.0861 -0.1161
 8366W        W23497  17.716  17.649   5.318  0.1043 -0.0072  0.1427
 8367W        W23498  13.499   1.551   0.040 -0.2993  0.0660 -0.0892
 8368W        W23499   8.427   3.417  14.278  0.2288 -0.2529  0.0395
 8369W        W23500  12.859   0.047   5.819 -0.2964 -0.0437  0.1483
 8370W        W23501   9.099   9.525  15.585  0.0841  0.1552  0.1994
 8371W        W23502  14.610   3.567   5.542 -0.1384 -0.1952 -0.1073
 8372W        W23503  17.648   7.854  12.336 -0.2816 -0.0106 -0.0768
 8373W        W23504  10.563   9.366  11.461  0.0052  0.1786 -0.0661
 8374W        W23505   8.322   1.260  10.630 -0.2227  0.0673  0.2333
 8375W        W23506   3.161  15.275  15.622  0.1826  0.1326 -0.1273
 8376W        W23507   1.147  13.539   2.500  0.0876  0.1815 -0.2199
 8377W        W23508  10.692  11.857   1.603 -0.3088  0.4035  0.2200
 8378W        W23509   5.563  15.130   3.775  0.0822 -0.1850 -0.0486
 8379W        W23510   1.678   0.234  13.288 -0.2789  0.3915  0.5087
 8380W        W23511  14.218  16.006   3.121 -0.0426 -0.3496  0.1585
 8381W        W23512  18.060   2.597   3.414 -0.3003  0.0307  0.0847
 8382W        W23513  14.783   2.465   1.869 -0.0007  0.0408 -0.1043
 8383W        W23514   2.997  12.531   0.822  0.3849  0.1185 -0.2033
 8384W        W23515  12.215  10.904   4.929  0.1043 -0.0739 -0.1165
 8385W        W23516   2.573   8.141   0.314 -0.1277  0.2891  0.3906
 8386W        W23517  18.552   7.803   3.492  0.0766 -0.0955  0.3011
 8387W        W23518   2.443   9.572   1.705 -0.1582 -0.1968 -0.0890
 8388W        W23519   0.979  17.695   1.546  0.1621 -0.2117  0.3200
 8389W        W23520   1.677  17.707   3.456  0.0557  0.0089  0.0391
 8390W        W23521   2.665  17.134   1.176 -0.5247 -0.2100 -0.0721
 8391W        W23522   9.009  13.231  12.911 -0.0036 -0.0508  0.2311
 8392W        W23523  14.875  15.995   6.260 -0.0359  0.0592  0.0207
 8393W        W23524  13.429   3.201   3.179 -0.0993 -0.4570  0.0675
 8394W        W23525   5.840  10.134  14.219  0.1029 -0.1363  0.0266
 8395W        W23526   4.305   4.768  14.753  0.0923  0.3087  0.3057
 8396W        W23527   7.775   9.091  15.216 -0.1209  0.0448  0.0631
 8397W        W23528  11.544  18.646   3.951  0.0357  0.0722 -0.2617
 8398W        W23529   3.701   3.558   4.961 -0.1997  0.0738 -0.1233
 8399W        W23530  11.308   0.973   0.061 -0.2066 -0.0589  0.2227
 8400W        W23531  13.718  11.737   5.240  0.0295 -0.0220  0.2397
 8401W        W23532  16.227   8.350  13.166 -0.0989 -0.1459  0.0481
 8402W        W23533  16.216   8.451   1.690  0.1075  0.5720 -0.2716
 8403W        W23534   3.162  17.732  10.382 -0.0035  0.1166  0.1906
 8404W        W23535  10.599   0.664  11.979  0.0362 -0.3093  0.4163
 8405W        W23536   9.081  15.255   4.417 -0.2694 -0.0668 -0.0065
 8406W        W23537   5.388   4.550   4.620 -0.2149  0.1293  0.0956
 8407W        W23538   3.789   9.114   3.944  0.1028 -0.0536  0.0395
 8408W        W23539  13.787  11.728   4.752  0.3411 -0.3498 -0.0663
 8409W        W23540  14.381   3.026  12.582 -0.0038  0.2507 -0.0436
 8410W        W23541  17.187   9.162  15.629 -0.1010 -0.0773 -0.1729
 8411W        W23542   1.075   5.904   3.510  0.3544  0.2093  0.1824
 8412W        W23543   6.599   2.274  10.642  0.1919  0.1207 -0.5696
 8413W        W23544  13.928  12.248  11.862 -0.0220 -0.1932  0.2072
 8414W        W23545   6.289   7.298  12.121  0.0415 -0.0457 -0.1561
 8415W        W23546  11.690   1.648  10.306 -0.0214  0.2584  0.1879
 8416W        W23547   1.197  10.021   3.559  0.3539  0.2067  0.1421
 8417W        W23548  16.715  11.454   1.640  0.1495 -0.0928 -0.1645
 8418W        W23549  13.387   4.117  10.568  0.2598  0.3234  0.1990
 8419W        W23550  10.226   3.312   0.136  0.1391  0.1560  0.0312
 8420W        W23551   4.292   2.324  14.243  0.4123  0.3460 -0.0546
 8421W        W23552  15.995  14.498   1.748  0.1408  0.1142 -0.0694
 8422W        W23553  15.796   8.893   3.273  0.2000  0.0348 -0.1133
 8423W        W23554   7.554   6.243  12.878 -0.2461 -0.0806  0.1902
 8424W        W23555  17.588  14.647   2.574 -0.3146  0.1234  0.0342
 8425W        W23556  14.391  12.438   1.597 -0.1731 -0.1987 -0.3847
 8426W        W23557  15.578  16.077   1.254  0.1671  0.1640 -0.1863
 8427W        W23558  15.294   3.046   2.566 -0.1816  0.3919  0.0834
 8428W        W23559  14.280   2.300   1.979  0.0940  0.2237  0.2031
 8429W        W23560  11.880  17.983   4.013 -0.2603 -0.3082 -0.0891
 8430W        W23561  17.814  17.468  13.531  0.1817 -0.0749 -0.2699
 8431W        W23562   9.391  11.073  11.159  0.3252  0.3206  0.1558
 8432W        W23563  13.895   9.577   6.224 -0.0458 -0.1358 -0.0445
 8433W        W23564   0.696   3.380  11.676  0.1460 -0.0214 -0.1206
 8434W        W23565   2.361  17.449   2.941  0.3012  0.3608  0.0804
 8435W        W23566   4.047  18.243   4.419 -0.0876 -0.1203  0.1539
 8436W        W23567   7.692   4.170  11.159  0.0391 -0.1524  0.1741
 8437W        W23568  13.376  17.732  12.042  0.1597 -0.0127 -0.0334
 8438W        W23569  16.647   1.665   0.648  0.0200  0.0961 -0.1466
 8439W        W23570   1.455   7.605   0.959  0.1307  0.0953 -0.0414
 8440W        W23571   4.119   8.216  13.542  0.2317  0.1418 -0.0315
 8441W        W23572   2.715  15.755  13.309 -0.0127 -0.3142  0.2863
 8442W        W23573   1.317   4.403   9.737 -0.1484  0.0651  0.3243
 8443W        W23574   7.858  15.676   1.638 -0.1042 -0.2830  0.0800
 8444W        W23575   4.544   1.459   6.028 -0.1953  0.0754  0.1132
 8445W        W23576   6.470   6.450  12.648 -0.1068 -0.2659 -0.0712
 8446W        W23577  15.453   2.173   0.910  0.0362  0.1898 -0.0143
 8447W        W23578   7.658   8.326   3.924  0.2445 -0.0687 -0.1000
 8448W        W23579  10.287   9.485   3.625 -0.1284  0.1040 -0.1290
 8449W        W23580  17.496  15.228   4.336  0.1262  0.0920 -0.2250
 8450W        W23581  14.494   7.868  12.903 -0.0001 -0.0363 -0.0154
 8451W        W23582   9.011  10.774   4.162  0.1824  0.0726 -0.1327
 8452W        W23583   7.467  16.690  13.657  0.4011  0.0104  0.0373
 8453W        W23584   5.967   7.470   0.381 -0.3404 -0.0090 -0.1329
 8454W        W23585   5.265  16.230   0.106 -0.2738  0.2962 -0.3280
 8455W        W23586  16.989   1.145  15.596  0.0076  0.0498 -0.2523
 8456W        W23587  15.510   2.667  14.325 -0.2027  0.2775 -0.0245
 8457W        W23588   1.019   3.144  12.793 -0.2355 -0.0589 -0.0740
 8458W        W23589   8.770   2.943   1.719  0.0398  0.0143  0.0765
 8459W        W23590   3.557   7.151   2.000 -0.0597  0.1050 -0.1307
 8460W        W23591  17.083  10.174   4.052 -0.0788  0.0299 -0.1886
 8461W        W23592  14.535  11.620  15.125 -0.1547 -0.0848  0.2617
 8462W        W23593   7.235  12.935   2.178  0.3621  0.1149  0.1995
 8463W        W23594  14.812  17.448   1.377  0.1193 -0.1702  0.0299
 8464W        W23595   1.667   8.547  14.191  0.1878  0.1396 -0.1460
 8465W        W23596   4.797   0.961  11.351  0.0735 -0.1871 -0.1305
 8466W        W23597  18.109   9.112   2.391  0.2914  0.0830 -0.0450
 8467W        W23598   5.918  15.246  14.375  0.1009  0.2416 -0.1776
 8468W        W23599   1.714   8.820   1.442 -0.0701  0.2168  0.1039
 8469W        W23600  17.005  13.372   3.246 -0.2951  0.1304  0.1990
 8470W        W23601  10.881   5.524   2.813 -0.0030 -0.1542 -0.0065
 8471W        W23602   9.451  11.054   2.806  0.1542  0.1115 -0.0059
 8472W        W23603  18.490  14.305   0.294 -0.2353  0.0089 -0.0525
 8473W        W23604  13.844   0.697   1.099  0.3405  0.1864 -0.1505
 8474W        W23605   9.703   3.495  13.681 -0.1318  0.0158  0.2476
 8475W        W23606  13.329   6.498  13.151  0.1945 -0.0045  0.1868
 8476W        W23607   3.814  16.761   1.694  0.2151  0.2859  0.1589
 8477W        W23608   3.958   4.448   5.112 -0.1687  0.1717  0.1098
 8478W        W23609   9.230   0.756  13.839  0.0354  0.1065  0.4251
 8479W        W23610  15.685  14.734   4.550 -0.0103 -0.0121 -0.3088
 8480W        W23611  10.745  10.711  11.948 -0.0847  0.1926  0.1183
 8481W        W23612  14.270   2.415  14.463 -0.0555 -0.1842  0.3686
 8482W        W23613   3.930  10.823   2.874  0.0137  0.4032 -0.2883
 8483W        W23614   3.437   8.876   5.374 -0.0745 -0.2385 -0.0518
 8484W        W23615   4.815  11.086  11.806  0.0800  0.0257 -0.1264
 8485W        W23616  17.538   8.577  13.657  0.3829 -0.3382 -0.2197
 8486W        W23617   6.332   2.228   3.880  0.2654  0.0572  0.0884
 8487W        W23618  12.107   8.445   0.166 -0.1576  0.2260 -0.1891
 8488W        W23619  15.384  12.991   0.470  0.0452 -0.2428  0.2338
 8489W        W23620  15.737   1.530   1.948 -0.0771  0.1305  0.1169
 8490W        W23621  11.583   4.308   2.673 -0.1116  0.0299  0.0454
 8491W        W23622   8.325  13.575   2.275 -0.3014  0.0032 -0.0425
 8492W        W23623   2.758   6.745  14.621  0.2977 -0.1111  0.1076
 8493W        W23624   4.995   4.244  14.330 -0.0767  0.0039 -0.2514
 8494W        W23625   8.935   3.205   4.223  0.2068  0.1375 -0.2345
 8495W        W23626  11.399  10.827   1.276 -0.2624 -0.2535 -0.0115
 8496W        W23627   4.857  15.740  12.847 -0.1046 -0.4007  0.1026
 8497W        W23628  12.739  16.423  12.067 -0.0782  0.0133 -0.1476
 8498W        W23629  10.038   7.400  13.823 -0.0577 -0.6142 -0.0263
 8499W        W23630   0.449  12.759  14.817 -0.3614  0.0510 -0.0345
 8500W        W23631  16.236   9.733   4.284 -0.0087 -0.1202 -0.1841
 8501W        W23632  10.987   0.052  10.207 -0.0569 -0.1171  0.1722
 8502W        W23633   5.672  18.229  11.142  0.0661 -0.0588  0.0643
 8503W        W23634   0.978   3.291  10.695 -0.0569 -0.1413 -0.0609
 8504W        W23635  16.377  16.544  11.725  0.2006 -0.0235 -0.3347
 8505W        W23636  14.906   5.346   2.182  0.1770 -0.4436 -0.0869
 8506W        W23637   6.517   7.452  14.343 -0.1989  0.1369  0.2018
 8507W        W23638  12.372   9.116  14.572 -0.1403 -0.0906 -0.2314
 8508W        W23639   4.533   0.247  12.657 -0.3639  0.0247 -0.1442
 8509W        W23640   2.054   5.801  11.092 -0.1453  0.4229 -0.2068
 8510W        W23641   6.363   8.879  10.084  0.4803  0.3616  0.0475
 8511W        W23642  11.924  16.141   9.888 -0.0903 -0.0646  0.1487
 8512W        W23643   6.962   1.605   3.311 -0.3257 -0.0896  0.1396
 8513W        W23644   4.664  10.282  14.959  0.1561  0.1539 -0.1057
 8514W        W23645   1.504   4.385   4.718  0.0283  0.3335 -0.2885
 8515W        W23646   8.616   8.903   5.217 -0.1242 -0.0538 -0.2857
 8516W        W23647   5.897  10.430   2.589 -0.0053 -0.1213 -0.2194
 8517W        W23648   0.113  10.632   1.306 -0.0466 -0.1379  0.3120
 8518W        W23649   2.982   3.600  12.675 -0.1523 -0.3176  0.0580
 8519W        W23650   5.862  17.231  11.535 -0.0923 -0.1335  0.1167
 8520W        W23651  17.314  14.033  13.452  0.0053  0.0288  0.0122
 8521W        W23652  12.913  17.933  13.520 -0.1631  0.0541 -0.2730
 8522W        W23653  18.629  10.750   4.068  0.1242  0.1054  0.1987
 8523W        W23654   8.048   3.570  13.974 -0.0256 -0.1849  0.0694
 8524W        W23655  18.085   8.332   0.682  0.1253 -0.2578 -0.0254
 8525W        W23656   0.683   7.036  12.981 -0.0149 -0.0676  0.3276
 8526W        W23657   5.782  17.033  12.004  0.0570 -0.2388 -0.1408
 8527W        W23658  15.979   0.650   4.008 -0.1092  0.1010  0.0164
 8528W        W23659   1.465  16.323   5.291 -0.2046  0.0271  0.2024
 8529W        W23660   9.196  14.006  15.128  0.1547  0.2251 -0.0128
 8530W        W23661  10.103   8.559  15.344 -0.2565  0.0801 -0.1865
 8531W        W23662  16.916   6.583  12.489 -0.2065 -0.0838 -0.1217
 8532W        W23663  16.409   4.732  12.647  0.1809  0.2868 -0.3615
 8533W        W23664   7.294   1.892   4.361 -0.0083  0.2486  0.1244
 8534W        W23665  16.173  14.650  14.667 -0.0286  0.1266 -0.4821
 8535W        W23666   3.442  12.761  11.719  0.0909  0.0247  0.3599
 8536W        W23667  13.838  18.685   3.041  0.2181 -0.0812  0.0001
 8537W        W23668   2.963  17.493   0.905  0.3208  0.0329 -0.0615
 8538W        W23669   3.799   3.638  11.367  0.2269 -0.1186 -0.0705
 8539W        W23670   0.804  10.672  10.583 -0.1688 -0.1578 -0.0606
 8540W        W23671   2.507   3.716  13.194 -0.1314  0.2742  0.0486
 8541W        W23672  14.210  16.706  13.410  0.0698  0.2157  0.1968
 8542W        W23673  12.404  14.919  15.533 -0.2776  0.1129  0.0816
 8543W        W23674  11.491  15.298  12.731 -0.1147  0.1281 -0.0356
 8544W        W23675  18.380   0.247  11.496 -0.5568  0.5232  0.0537
 8545W        W23676   4.979  18.019   9.619  0.3868 -0.0000  0.0239
 8546W        W23677  13.629  16.566   0.137  0.0985  0.0230 -0.0699
 8547W        W23678  16.253  14.703  15.531  0.0391  0.1045 -0.0428
 8548W        W23679  16.872   8.988  11.312 -0.0164  0.0164  0.1675
 8549W        W23680   1.005   9.305  12.923  0.0962  0.0962  0.2504
 8550W        W23681  17.185   7.091  10.259  0.0945 -0.2107 -0.2476
 8551W        W23682  16.004  17.970   3.668  0.0788 -0.1618  0.1410
 8552W        W23683  15.315   4.918   1.546 -0.0325  0.2413  0.0069
 8553W        W23684   6.325  14.546  13.946 -0.2418  0.0128  0.2510
 8554W        W23685   0.732  12.347  14.735 -0.0055 -0.1622 -0.2940
 8555W        W23686   4.618  13.327   2.271 -0.2864 -0.0414  0.0086
 8556W        W23687   2.553   3.178  13.096 -0.2249  0.1051 -0.2406
 8557W        W23688   9.631   8.547  11.995 -0.0354 -0.1438  0.1188
 8558W        W23689  16.377  13.701  13.869  0.0778 -0.1219  0.3123
 8559W        W23690  14.984   3.956   0.397  0.0161 -0.2276 -0.4946
 8560W        W23691   9.594   8.277   0.035  0.2160 -0.2777  0.1078
 8561W        W23692   9.429  18.657   1.979  0.0074  0.0184 -0.0420
 8562W        W23693   1.004   3.879  10.038  0.0475  0.0275 -0.1206
 8563W        W23694   2.626   0.774   1.665 -0.0225  0.3067 -0.3752
 8564W        W23695  10.237  14.329  13.809  0.0171 -0.4165  0.1453
 8565W        W23696  10.715   7.689   1.538  0.1214 -0.0853 -0.2798
 8566W        W23697   7.540   7.403  11.463  0.2455 -0.0319 -0.1142
 8567W        W23698  18.042  10.625   0.233  0.0701  0.1177 -0.0971
 8568W        W23699  18.544   0.991   1.319  0.0475 -0.0457 -0.1158
 8569W        W23700  11.733  15.264   1.340  0.3145 -0.0712  0.0089
 8570W        W23701  15.161   2.142   0.447  0.0483  0.0356  0.1244
 8571W        W23702   6.145  17.974  12.553 -0.1648 -0.0371 -0.0563
 8572W        W23703   7.209  13.794  10.345  0.1064  0.0700 -0.1280
 8573W        W23704   1.086  13.029  15.174 -0.1745  0.0592 -0.0425
 8574W        W23705  16.084   4.234   2.617  0.5147 -0.2373  0.3278
 8575W        W23706  12.099   2.313   0.619 -0.4161  0.1905  0.0574
 8576W        W23707  13.792   9.766  13.085 -0.2508  0.0691 -0.2278
 8577W        W23708  16.490  11.730   5.917 -0.6756  0.2502 -0.1288
 8578W        W23709   4.398   0.391   3.014 -0.0822  0.1770 -0.3926
 8579W        W23710   4.918  12.263   4.516 -0.2907  0.1607  0.2624
 8580W        W23711   5.622  12.286  15.176  0.0334 -0.0209  0.3698
 8581W        W23712   5.301  18.674  14.851 -0.0220  0.0814 -0.0893
 8582W        W23713   2.209  10.014   5.177  0.0962  0.1172 -0.0146
 8583W        W23714  14.637   0.770  11.843  0.1394  0.2226 -0.2181
 8584W        W23715   0.911   1.870  12.950  0.0116  0.1425 -0.0838
 8585W        W23716   4.695   8.091   2.356  0.0301  0.1708 -0.0078
 8586W        W23717  12.526  15.489   0.689 -0.2521 -0.0061 -0.0930
 8587W        W23718   6.035   1.689  14.067  0.1250 -0.0033 -0.0792
 8588W        W23719   9.496   5.100   4.899 -0.1367 -0.0715  0.0838
 8589W        W23720   1.285  15.096  11.985  0.0862  0.1427 -0.3241
 8590W        W23721   2.001  11.257   1.143  0.1058  0.0013 -0.0293
 8591W        W23722   4.582   0.608  15.507  0.0955 -0.1533 -0.2783
 8592W        W23723  10.718  13.572   1.497 -0.1813  0.0574 -0.0682
 8593W        W23724  13.410  14.381  12.873  0.2089 -0.2497 -0.0738
 8594W        W23725   3.728  14.868   0.134 -0.1005  0.1746  0.3843
 8595W        W23726  18.084   7.119   2.256  0.1700  0.1855  0.1781
 8596W        W23727   6.438   8.833   2.908 -0.2370 -0.0540 -0.1161
 8597W        W23728   3.563   2.424   3.357 -0.1159  0.1810 -0.0175
 8598W        W23729   2.752   8.143   3.670 -0.2952 -0.0092  0.1065
 8599W        W23730   1.609  14.449  11.983 -0.1284  0.0302 -0.0652
 8600W        W23731   4.531   3.989   2.194 -0.0828 -0.1497 -0.0281
 8601W        W23732   1.602  17.347  14.530 -0.0175  0.1410 -0.3092
 8602W        W23733   5.707   8.348  12.555 -0.0898 -0.0152 -0.0403
 8603W        W23734   5.811  12.429  10.051  0.2163  0.0406  0.1868
 8604W        W23735   9.241  14.337   5.373  0.3365  0.2929  0.1135
 8605W        W23736   1.867   8.289  15.321  0.1127  0.0372 -0.3078
 8606W        W23737  12.275   3.519  11.517 -0.2940  0.0721 -0.0326
 8607W        W23738  12.050  10.151   1.513  0.2578 -0.0053 -0.1308
 8608W        W23739   5.573  11.088   4.106 -0.0404  0.0168  0.0103
 8609W        W23740  14.932  10.128   6.113 -0.0474 -0.2691  0.2287
 8610W        W23741  11.327   8.086   3.284 -0.1215  0.2118  0.1301
 8611W        W23742  14.047  10.153  11.477  0.1229  0.2093 -0.0883
 8612W        W23743   4.867  12.438  15.485 -0.0637  0.0092  0.1553
 8613W        W23744  14.061   1.863   1.805 -0.1192  0.3572 -0.2778
 8614W        W23745   7.557   0.204  10.518 -0.4560 -0.1620  0.1327
 8615W        W23746  13.287  15.703  12.285 -0.2103  0.1327 -0.0472
 8616W        W23747   1.752  11.420   5.520 -0.0023  0.0004 -0.0403
 8617W        W23748  16.094   0.867  15.460 -0.3333 -0.2249 -0.3137
 8618W        W23749  16.832  15.498  14.502  0.0898 -0.1271 -0.3167
 8619W        W23750   8.854  18.070   3.788  0.1489  0.3361  0.0316
 8620W        W23751   3.516   2.937   0.487  0.1051  0.3716 -0.0209
 8621W        W23752  17.255  11.312   9.539 -0.1148  0.0319 -0.0249
 8622W        W23753   3.646  17.994  13.025  0.4211  0.0755  0.1084
 8623W        W23754   1.884  10.884  12.808  0.0597  0.0538 -0.1303
 8624W        W23755  10.697  17.722  14.941  0.2887 -0.0354  0.1422
 8625W        W23756   4.410  18.242   0.301 -0.0867  0.1602 -0.0305
 8626W        W23757   9.863  17.215  13.823 -0.0496  0.1040  0.1197
 8627W        W23758   9.486  13.002   1.864  0.0740  0.1680 -0.1448
 8628W        W23759   5.777  16.970  14.692 -0.1771 -0.3232 -0.0506
 8629W        W23760  12.627  15.753   3.259  0.0024  0.1131  0.1441
 8630W        W23761  18.031   4.754   0.500 -0.1054  0.1381 -0.1081
 8631W        W23762  15.966  16.665   4.434  0.3043  0.1096 -0.0655
 8632W        W23763  12.149   4.422   2.432  0.1201  0.2777 -0.0949
 8633W        W23764  10.479  14.925   5.199  0.0937  0.2414 -0.1875
 8634W        W23765   0.816  17.394  13.258  0.0047  0.1243  0.3577
 8635W        W23766  10.374   2.350   2.333 -0.0244 -0.0769  0.0515
 8636W        W23767  13.500   6.880   4.282  0.2005  0.0727  0.1680
 8637W        W23768  13.654   7.811  14.821 -0.2102 -0.0666 -0.1412
 8638W        W23769  11.102   6.766  11.905  0.0095  0.0970  0.0224
 8639W        W23770   1.777   9.257   4.423 -0.0729  0.0899 -0.2732
 8640W        W23771   7.187  11.158   1.432 -0.1434 -0.2329  0.3235
 8641W        W23772   2.335  15.202   0.032  0.0271  0.0838 -0.0491
 8642W        W23773   9.227   4.171  10.754 -0.0639 -0.2314  0.2056
 8643W        W23774  17.622  15.753  15.630 -0.0881  0.1796 -0.0880
 8644W        W23775   0.055  17.397  15.096  0.3179 -0.4135 -0.1572
 8645W        W23776   1.059   1.208   4.479 -0.2648  0.0388 -0.2523
 8646W        W23777  17.138  18.627  13.771  0.0468 -0.0696 -0.0705
 8647W        W23778   4.156  17.363   1.191  0.0840 -0.0164 -0.1802
 8648W        W23779  18.497   6.533   4.482 -0.3397 -0.0985 -0.1342
 8649W        W23780   0.461   7.539  10.293  0.1410  0.2599  0.1249
 8650W        W23781   7.950   5.899   1.796  0.0448  0.0763 -0.0342
 8651W        W23782  16.372   3.356   4.375 -0.1179 -0.0297  0.1562
 8652W        W23783  18.594  17.666  13.507 -0.1826 -0.2459  0.1978
 8653W        W23784   5.030   5.076   3.221  0.1651  0.3747 -0.1238
 8654W        W23785  14.357   4.391   2.368 -0.0083 -0.2034 -0.0785
 8655W        W23786   4.059  13.694   5.188  0.0907 -0.0948 -0.0855
 8656W        W23787  12.811   0.364  14.519 -0.2223  0.1024  0.0872
 8657W        W23788   2.800   0.167   4.632 -0.2895  0.0973 -0.0202
 8658W        W23789   6.763   7.594  11.289 -0.1046  0.0257 -0.0526
 8659W        W23790   3.103   7.792  11.029 -0.1293  0.0858  0.0089
 8660W        W23791  17.757   0.272  11.330  0.0215  0.1920  0.1188
 8661W        W23792  16.944  10.475  15.064  0.0298  0.0446 -0.0046
 8662W        W23793   5.342  17.579   1.047 -0.1359  0.1226  0.0271
 8663W        W23794  18.486   7.817  13.722  0.1386  0.1144  0.1994
 8664W        W23795   9.856   5.181   0.507 -0.2208  0.0280 -0.0844
 8665W        W23796  14.856  13.605  14.121  0.2371  0.0009 -0.0695
 8666W        W23797  10.727  13.549   0.128 -0.2475  0.2169  0.2154
 8667W        W23798  18.210  13.811  12.279  0.1942 -0.0642  0.0089
 8668W        W23799   1.058   5.088   4.501  0.1846  0.0768 -0.0214
 8669W        W23800   8.140  18.223  11.991 -0.1004  0.1139  0.1339
 8670W        W23801  10.274   4.247   1.119 -0.2008  0.0259  0.0194
 8671W        W23802   9.465  15.719   2.398  0.1100 -0.1217  0.2119
 8672W        W23803   5.719  12.496   0.147 -0.0626  0.2294  0.2070
 8673W        W23804  17.145  12.442   0.794  0.0745 -0.2907  0.0801
 8674W        W23805   8.826   6.537   1.051 -0.0679 -0.1836  0.3579
 8675W        W23806  16.264  11.549   5.078 -0.1170 -0.0357  0.4100
 8676W        W23807   5.531   2.733  12.839  0.1605  0.1668 -0.1411
 8677W        W23808  15.067   5.769  11.344  0.2567 -0.1185 -0.1970
 8678W        W23809   4.761  14.408   0.403 -0.0592  0.1552  0.0118
 8679W        W23810  11.863   7.253  11.181  0.0501  0.1293  0.1595
 8680W        W23811   3.350   1.935  14.286 -0.0557  0.3643 -0.2189
 8681W        W23812   0.550  13.127  11.928 -0.2382  0.0102  0.2382
 8682W        W23813   1.743   7.786  11.372 -0.0692  0.1341 -0.2524
 8683W        W23814  16.987   1.174   4.449 -0.3903 -0.0869 -0.4525
 8684W        W23815  11.478  11.720  15.518  0.0152  0.3503 -0.0252
 8685W        W23816  18.378   5.119  15.073 -0.3757  0.1371  0.2528
 8686W        W23817  13.720  14.291   2.705  0.2035  0.2038 -0.2343
 8687W        W23818  12.784   6.632   0.569  0.1644 -0.1519  0.4450
 8688W        W23819   1.193   6.608  14.860  0.1628 -0.1076 -0.1671
 8689W        W23820   3.991   3.579   0.951 -0.3533  0.1721 -0.0684
 8690W        W23821  11.032  10.888   5.348  0.2659  0.1518 -0.1127
 8691W        W23822   0.399   1.165   3.448  0.1074 -0.1142 -0.1580
 8692W        W23823   2.366   1.500  15.289  0.0054  0.1111 -0.1931
 8693W        W23824   2.246  12.259   4.433  0.0424  0.1369 -0.0244
 8694W        W23825   8.701  18.475   4.044  0.0443  0.0657  0.1172
 8695W        W23826  15.013   1.794  14.176  0.0313  0.2315  0.0764
 8696W        W23827   8.987  16.871  14.718  0.1881 -0.1446 -0.0868
 8697W        W23828   2.486  18.405  12.838 -0.2392 -0.0498  0.2028
 8698W        W23829   5.687  18.551   0.274 -0.1536 -0.2039 -0.0037
 8699W        W23830   2.159   6.318  12.784 -0.1155  0.0787  0.1637
 8700W        W23831   1.997   6.847   9.774 -0.0560  0.0882 -0.1252
 8701W        W23832   1.972   3.156  15.299  0.0391 -0.0002  0.2699
 8702W        W23833  15.786  16.844  12.722 -0.0584 -0.0217  0.3722
 8703W        W23834   3.560  17.503  11.294  0.1097 -0.0431  0.0052
 8704W        W23835   4.417  15.050  15.650  0.0785 -0.2416  0.3109
 8705W        W23836  10.495  10.229   2.750 -0.0217 -0.0965  0.0534
 8706W        W23837  15.216   5.246   3.945 -0.0107 -0.1486 -0.0546
 8707W        W23838   3.026   6.077  13.786 -0.1375  0.2013 -0.1218
 8708W        W23839   7.379   0.933  11.118 -0.2494 -0.2585  0.3441
 8709W        W23840   5.815  14.835   4.152  0.1617 -0.0763 -0.0142
 8710W        W23841  17.225   4.922   2.523  0.0216  0.3127 -0.2150
 8711W        W23842   5.425  10.892  10.454 -0.4025 -0.0458  0.0285
 8712W        W23843   5.093   4.472  11.242  0.2298 -0.0146 -0.3418
 8713W        W23844   7.090  10.721   3.764  0.2950  0.0860  0.2119
 8714W        W23845  11.624  13.596   9.968  0.3224 -0.1810  0.2154
 8715W        W23846  12.714   6.588  15.314  0.3270  0.2651 -0.1799
 8716W        W23847  15.065   7.129  15.683  0.0370 -0.2380 -0.0526
 8717W        W23848  12.128   7.236  15.155  0.2520  0.0236 -0.0565
 8718W        W23849   4.394   1.118  15.574  0.1267 -0.0711  0.0192
 8719W        W23850  17.669  12.992  14.843 -0.0438  0.2754 -0.1132
 8720W        W23851   1.291   6.602  11.889 -0.2426 -0.0819 -0.1481
 8721W        W23852  12.399   3.148  14.872  0.1447  0.0054 -0.2645
 8722W        W23853   8.962   6.947   4.676 -0.2914 -0.1251  0.2372
 8723W        W23854  11.105   0.490  13.401  0.2393 -0.0604 -0.3567
 8724W        W23855  16.474  14.005   9.703 -0.2111  0.0738  0.2020
 8725W        W23856  10.398   4.909  15.468  0.0379  0.0060 -0.0538
 8726W        W23857   5.699  18.591  11.969 -0.2681 -0.3144  0.0609
 8727W        W23858   7.428   5.487   2.736  0.2105  0.1833 -0.1976
 8728W        W23859   5.957   3.622  12.636 -0.0043 -0.4534 -0.1723
 8729W        W23860  16.903  16.436   0.867  0.2517  0.1221 -0.3168
 8730W        W23861  16.793  15.014  10.362  0.0138  0.2346  0.1591
 8731W        W23862  14.573   6.605  11.721  0.1881 -0.1940 -0.0052
 8732W        W23863  14.785   0.781   4.665  0.0662  0.0228 -0.0856
 8733W        W23864   3.702  10.374   3.169 -0.0171  0.2374  0.3429
 8734W        W23865  16.396  12.233  14.507  0.2423 -0.2225  0.0462
 8735W        W23866  15.468   7.874  12.076  0.1398 -0.1481  0.1347
 8736W        W23867  10.440  14.143   0.131 -0.2077 -0.0402  0.2379
 8737W        W23868   6.828   6.173  14.916 -0.0226 -0.1533  0.0836
 8738W        W23869   8.643  13.651   2.658  0.1462 -0.1461 -0.0278
 8739W        W23870   4.137   2.846  13.668  0.0871 -0.1954 -0.1326
 8740W        W23871  14.521  15.619   3.224 -0.1711 -0.0716  0.1711
 8741W        W23872  11.718   6.539   2.257 -0.4267 -0.0919 -0.0920
 8742W        W23873   6.893  17.591   2.219  0.2744 -0.1546 -0.0969
 8743W        W23874   3.039  12.498   5.018  0.2211  0.3600 -0.1417
 8744W        W23875   6.861  15.077  15.520  0.0330  0.0210  0.0877
 8745W        W23876   3.804   0.362  15.247  0.1434 -0.0385  0.1334
 8746W        W23877  12.653   9.734   1.904  0.0089  0.1372 -0.2350
 8747W        W23878   1.466   4.038   1.360  0.0622  0.1030 -0.2043
 8748W        W23879   4.535   5.695   0.323 -0.0815  0.1495 -0.0429
 8749W        W23880  11.874   6.928   0.760  0.0905  0.0775 -0.0860
 8750W        W23881   6.077  10.810  13.973 -0.3360  0.2016  0.2527
 8751W        W23882   4.994   1.601  10.877  0.0434  0.1106  0.1799
 8752W        W23883   8.071   0.876   5.005 -0.0304  0.2299 -0.0282
 8753W        W23884   6.871  17.100  11.176 -0.2050  0.0304 -0.1945
 8754W        W23885  10.356   4.638   4.776 -0.0383  0.4204 -0.0114
 8755W        W23886   1.276   9.023   4.813 -0.1826 -0.3200 -0.0797
 8756W        W23887  14.654   1.366   5.058  0.0670  0.2527 -0.0107
 8757W        W23888  13.452  14.723   2.991  0.0540  0.0454 -0.0389
 8758W        W23889   0.690   0.322  14.763 -0.2055  0.1371 -0.2862
 8759W        W23890  12.223  11.647  13.066  0.2109 -0.2912  0.4649
 8760W        W23891   2.807  11.333  11.782  0.4476  0.0397  0.2134
 8761W        W23892   4.124   4.226   3.645 -0.2038  0.1892 -0.0321
 8762W        W23893  12.219   6.019  11.352  0.4112  0.0793  0.1924
 8763W        W23894   1.771   7.010   5.076  0.1935  0.0316  0.1056
 8764W        W23895  18.103   3.941  15.669  0.1158 -0.0437  0.2077
 8765W        W23896   6.437  15.477   1.122  0.2108  0.1588 -0.0320
 8766W        W23897   6.357   6.727  12.125  0.2105  0.0985 -0.2725
 8767W        W23898  18.654  14.396   4.552  0.0089  0.1048  0.2129
 8768W        W23899  12.778   9.901   0.994 -0.2642  0.0278  0.3303
 8769W        W23900  12.592  12.149   6.252 -0.2685  0.2502  0.0790
 8770W        W23901  10.194  12.615   1.597 -0.0762  0.0221  0.0209
 8771W        W23902   6.282   2.738   3.931 -0.1542  0.2481 -0.0316
 8772W        W23903   2.770   6.508  12.784  0.3446 -0.1021  0.2603
 8773W        W23904   6.862   4.579   0.715 -0.0266 -0.0056  0.1165
 8774W        W23905   5.937  18.664   0.967  0.0414  0.2465  0.0772
 8775W        W23906   3.516   0.489  14.515 -0.3175 -0.3277 -0.1359
 8776W        W23907  16.872  10.348   3.061 -0.2114  0.2408 -0.1553
 8777W        W23908   1.869  15.911   3.376 -0.0086  0.2748 -0.0760
 8778W        W23909   3.825   2.285  14.432 -0.0596  0.2026 -0.0600
 8779W        W23910  13.446  13.217   0.762 -0.2405 -0.3047 -0.2661
 8780W        W23911   9.922   3.578   2.617 -0.3909 -0.1853 -0.0506
 8781W        W23912  10.085   9.326   2.297 -0.0537 -0.0872 -0.2333
 8782W        W23913  10.493  12.387  13.339  0.1417  0.3095  0.0153
 8783W        W23914  17.747  11.111   2.754 -0.1794 -0.0365 -0.2006
 8784W        W23915  11.567  15.069  13.493  0.3733 -0.0479 -0.1129
 8785W        W23916  16.022   1.794  15.025 -0.2324  0.1135 -0.2957
 8786W        W23917   9.650   2.811   0.305  0.3151 -0.0992  0.0137
 8787W        W23918   0.227  14.534  10.463 -0.4830  0.0095 -0.2438
 8788W        W23919   8.302   7.476  13.238  0.1358  0.2667  0.1673
 8789W        W23920   0.210  14.945   3.993  0.1827 -0.1908  0.0003
 8790W        W23921  17.778   6.944   1.771  0.3210 -0.1050  0.0495
 8791W        W23922  13.774  18.701   1.496 -0.0973  0.0104  0.0743
 8792W        W23923   6.318  17.418  12.241  0.2219 -0.0412 -0.3569
 8793W        W23924  12.294   6.951   5.190  0.0332  0.0621  0.0048
 8794W        W23925  11.254  17.321   9.989 -0.0137  0.2228  0.0069
 8795W        W23926  14.704   9.943   3.496 -0.0549  0.0260 -0.1177
 8796W        W23927  17.663   5.296  11.317 -0.2453  0.1946 -0.1140
 8797W        W23928  12.500   2.593  11.673  0.3236  0.2515  0.0093
 8798W        W23929   3.293   9.011  13.922 -0.0373 -0.1687  0.2013
 8799W        W23930  11.164  16.664  11.058 -0.0909  0.0173 -0.0300
 8800W        W23931   6.356   1.568  10.041 -0.1749 -0.2113 -0.0102
 8801W        W23932   4.473  10.745   1.923  0.0161 -0.1590 -0.1915
 8802W        W23933  17.790  16.273   1.179  0.2327  0.0011 -0.2767
 8803W        W23934   9.613   1.265   2.989  0.0245  0.1985 -0.2293
 8804W        W23935   6.246  14.004   1.879 -0.2889  0.3201  0.0130
 8805W        W23936  18.167  13.645   4.443  0.2407 -0.1894 -0.3978
 8806W        W23937   3.309   8.822  11.008 -0.2304 -0.1873 -0.0342
 8807W        W23938   2.181  13.682   5.106  0.1678  0.0339  0.2356
 8808W        W23939  14.602   7.056  14.012 -0.0712 -0.1973 -0.1569
 8809W        W23940   7.409  15.536  13.772  0.1240 -0.4804  0.0553
 8810W        W23941   4.104   3.310  11.573  0.0218 -0.0527 -0.0712
 8811W        W23942  18.445  17.271   1.154  0.1136 -0.2157 -0.2688
 8812W        W23943   7.485  11.725  10.196  0.0258  0.2645  0.2698
 8813W        W23944   3.951  13.568   2.326 -0.0286 -0.1257 -0.2133
 8814W        W23945   3.563   4.856   4.251 -0.0882 -0.0340 -0.1169
 8815W        W23946   3.729  16.584   0.785  0.1103  0.3788 -0.3963
 8816W        W23947   0.003  18.477   0.482  0.4600  0.0060 -0.1200
 8817W        W23948  18.379  17.267  14.113 -0.0239 -0.2377  0.1655
 8818W        W23949  12.627  10.898   3.678  0.0771  0.1030  0.1271
 8819W        W23950  13.822   2.047  12.255  0.0085  0.2981 -0.2129
 8820W        W23951  10.770   3.827  13.852  0.0419 -0.1074  0.0110
 8821W        W23952  16.219   8.327  10.636 -0.1174  0.0209 -0.0160
 8822W        W23953  16.682  11.631  13.731  0.0089 -0.0397  0.1226
 8823W        W23954   3.761  11.394  13.352  0.1060  0.2123 -0.1169
 8824W        W23955  18.264   3.913  12.027 -0.1631  0.0860 -0.1439
 8825W        W23956   4.369   6.333  13.500  0.1519 -0.1772  0.1499
 8826W        W23957   0.621   5.487  14.327  0.3366  0.1099 -0.0732
 8827W        W23958   5.855   0.817   0.324 -0.2011  0.0438 -0.0530
 8828W        W23959   6.665   4.622   3.371  0.5517 -0.0608  0.3297
 8829W        W23960  12.218  14.781   1.446  0.5594  0.0640 -0.4329
 8830W        W23961   9.382   8.014   3.546  0.2952 -0.2988 -0.4142
 8831W        W23962  13.479  17.621  15.391 -0.3617 -0.1843 -0.0047
 8832W        W23963  13.399  15.181   3.173 -0.4261 -0.4497 -0.1399
 8833W        W23964   8.244  16.759   1.823  0.0292  0.0630 -0.0923
 8834W        W23965  17.225   8.512  12.300 -0.2328  0.0331 -0.3226
 8835W        W23966  10.668   2.539  14.880 -0.1997 -0.0260  0.2147
 8836W        W23967  10.447  12.949   2.007  0.1327 -0.1792 -0.1445
 8837W        W23968   3.810   0.497   9.128  0.0582 -0.2565  0.1035
 8838W        W23969   1.426  15.257  13.617 -0.1227 -0.2856  0.2937
 8839W        W23970   2.287   0.149   5.098  0.1419 -0.0497 -0.4361
 8840W        W23971  12.502  16.886  14.713  0.0079  0.1964  0.0040
 8841W        W23972   7.680  18.334   3.319  0.1959 -0.0272  0.1232
 8842W        W23973  10.471  11.044   0.096 -0.1774  0.2872  0.1325
 8843W        W23974  13.872   0.161  12.315  0.2845 -0.0648 -0.2227
 8844W        W23975   8.658   2.234   5.478  0.0802  0.1578 -0.0266
 8845W        W23976   5.617   5.563  13.092 -0.1199  0.2225 -0.3449
 8846W        W23977  13.574   7.165   0.669 -0.0173  0.1491 -0.0250
 8847W        W23978  11.630  18.687   0.743 -0.0354  0.2252 -0.1315
 8848W        W23979  11.854  18.314   0.307  0.2894  0.2024  0.2590
 8849W        W23980   3.987  10.333  14.572 -0.1888  0.0347  0.0164
 8850W        W23981   9.855  11.595   5.756 -0.1305  0.2705 -0.3709
 8851W        W23982  12.694   7.502  12.442 -0.3316 -0.0236  0.1222
 8852W        W23983  15.642  12.061   3.620 -0.2459  0.1892  0.2089
 8853W        W23984   7.085   0.143  15.500  0.2965  0.0274  0.1704
 8854W        W23985  15.784   0.671   5.455 -0.3825 -0.0048 -0.2180
 8855W        W23986  13.921   3.828  15.052 -0.0749  0.0772 -0.6040
 8856W        W23987   1.276  13.230  13.564 -0.1805  0.0929 -0.2620
 8857W        W23988  16.551  17.003  14.115  0.1384  0.1932  0.1836
 8858W        W23989  17.545  10.854   4.051  0.0334  0.1933 -0.2153
 8859W        W23990   6.179   8.470   2.493  0.1623 -0.0217 -0.0089
 8860W        W23991   4.991   6.868  11.869  0.0232 -0.2787  0.3298
 8861W        W23992   0.470   9.652   3.752  0.0377 -0.2494  0.2121
 8862W        W23993   8.128   4.886  10.493 -0.1248  0.3327  0.1960
 8863W        W23994  17.785  18.121  12.223  0.5120 -0.0040 -0.0443
 8864W        W23995   6.852   5.314   5.014 -0.1082 -0.0440  0.1694
 8865W        W23996   6.152  11.465  10.690 -0.1405 -0.0961  0.1010
 8866W        W23997  12.525   2.231  10.789  0.0290  0.3749 -0.1896
 8867W        W23998  17.326   0.085  13.370  0.0588 -0.2855 -0.0372
 8868W        W23999   2.397  11.744   2.741  0.3049  0.1462 -0.2723
 8869W        W24000   9.503  13.668  10.993  0.0151 -0.0546 -0.2351
 8870W        W24001   8.726  10.717  15.494  0.0900 -0.0534  0.0481
 8871W        W24002   8.513  15.439   3.033  0.4188  0.0864  0.0952
 8872W        W24003  10.761  14.299   4.863  0.0146  0.2957  0.3253
 8873W        W24004   6.603   4.025  15.606 -0.0901 -0.1693 -0.0918
 8874W        W24005  15.233   5.211   0.462  0.1359  0.0873 -0.0872
 8875W        W24006  10.383  17.376  14.790 -0.0973 -0.2380 -0.0828
 8876W        W24007   6.382   5.201   1.001 -0.0135 -0.1469  0.1344
 8877W        W24008  16.426   6.315  11.949  0.0657 -0.1968 -0.1692
 8878W        W24009   4.289   2.288   0.251  0.1795  0.0372 -0.2563
 8879W        W24010  13.890   7.755  11.499  0.0327 -0.3213 -0.0652
 8880W        W24011  16.445  17.010   1.119 -0.1606  0.0850 -0.1458
 8881W        W24012   6.489  18.686  10.734 -0.0395  0.1210 -0.0131
 8882W        W24013   7.116   6.444   1.768  0.0586 -0.4085 -0.0533
 8883W        W24014  18.448   2.400   5.312  0.2080 -0.0932  0.3740
 8884W        W24015   2.604  12.900   4.913  0.0945 -0.0254 -0.0800
 8885W        W24016   6.793   4.479   5.120  0.0091 -0.0393 -0.1809
 8886W        W24017   3.853   6.838  11.723  0.0404 -0.2622  0.0345
 8887W        W24018   4.757   2.428  13.310 -0.2633  0.1026 -0.0600
 8888W        W24019   4.483   1.487   2.472 -0.2392  0.1411  0.3484
 8889W        W24020   7.583   1.212   3.119  0.2138  0.0206  0.0107
 8890W        W24021   6.216  13.066  11.514  0.0406 -0.1642 -0.1168
 8891W        W24022   5.845  15.977   0.031  0.4081  0.3602 -0.0695
 8892W        W24023  18.713   6.572   3.144 -0.1842 -0.1260 -0.0183
 8893W        W24024   9.010   3.234   2.065  0.2065  0.3443 -0.1855
 8894W        W24025   2.910   8.352  15.684 -0.0120  0.2029 -0.0556
 8895W        W24026   0.469   6.989  10.900 -0.1869 -0.0427  0.0327
 8896W        W24027   1.126   2.796  11.206  0.0983 -0.2255  0.2209
 8897W        W24028   5.542   9.334   0.493 -0.0054 -0.1788  0.1077
 8898W        W24029   9.920   2.208   2.563  0.3076  0.2234  0.2352
 8899W        W24030   2.220   1.879  12.588 -0.1660 -0.1597  0.0527
 8900W        W24031  12.799  17.658   2.097  0.2630  0.3692  0.1365
 8901W        W24032  15.300   0.742  15.029  0.0162 -0.1266 -0.2940
 8902W        W24033  17.805  13.013  14.359 -0.0620  0.3057  0.1311
 8903W        W24034   7.873   6.048  10.998  0.0508  0.1716 -0.1054
 8904W        W24035  13.058  12.883   3.851 -0.0838  0.2230  0.0720
 8905W        W24036   1.703   4.594   5.880  0.0773 -0.0534  0.2753
 8906W        W24037  10.716  15.822  14.657 -0.0397  0.0712 -0.0375
 8907W        W24038   4.755   1.893   4.798 -0.2569 -0.1182  0.0705
 8908W        W24039   3.778  15.832   4.030 -0.1417  0.0085  0.1582
 8909W        W24040   5.077  16.666   0.101 -0.0338  0.2822 -0.0850
 8910W        W24041  16.495   8.763  13.248 -0.3235 -0.1434 -0.0213
 8911W        W24042   9.727   7.270  10.542  0.1518 -0.2359 -0.1778
 8912W        W24043  16.207   0.990   2.806  0.1922 -0.2884  0.3585
 8913W        W24044   0.341  14.091  12.773 -0.0679  0.0247  0.1485
 8914W        W24045   3.824   3.117  14.447  0.0080  0.1467  0.0320
 8915W        W24046   3.739  17.178  12.820 -0.0175 -0.0259 -0.3111
 8916W        W24047   4.862   1.443   0.109  0.1357  0.1814 -0.2208
 8917W        W24048   3.941  12.014  15.759  0.0075 -0.3500  0.3763
 8918W        W24049  10.748  11.283  12.666 -0.1311  0.3089 -0.0341
 8919W        W24050   6.106  15.755  12.233 -0.1282 -0.0873  0.0497
 8920W        W24051   7.080   1.567  12.876 -0.2252 -0.1199  0.2102
 8921W        W24052  10.292  15.947   2.635  0.0240  0.1967 -0.0728
 8922W        W24053  11.168   7.288   0.714 -0.3207 -0.0237  0.0539
 8923W        W24054   8.054   3.801  14.416  0.2543 -0.1547 -0.1850
 8924W        W24055   2.397  18.672  15.665 -0.2160  0.1036 -0.0060
 8925W        W24056   0.359   9.063   4.456 -0.0037 -0.0955 -0.1974
 8926W        W24057   4.897  12.907  15.201 -0.2292 -0.2635  0.2410
 8927W        W24058   0.794  15.729  13.775 -0.4317  0.2961 -0.2365
 8928W        W24059   2.744   0.466  10.740 -0.1227  0.3238 -0.2160
 8929W        W24060  15.721   7.635  11.144 -0.0754 -0.0677 -0.0050
 8930W        W24061  12.477  13.214   5.400 -0.0138  0.0834  0.1946
 8931W        W24062  10.692  15.437  14.361  0.2566 -0.1495  0.0807
 8932W        W24063   5.110  15.810  14.591 -0.1117  0.1032 -0.0590
 8933W        W24064   3.380   7.795  13.268  0.1871 -0.1054 -0.4449
 8934W        W24065   5.437  17.377   2.752 -0.0863  0.1021 -0.2502
 8935W        W24066   8.934   9.601  14.199  0.0185 -0.0638  0.1012
 8936W        W24067   7.534  17.808  13.066  0.0254 -0.0294  0.1277
 8937W        W24068   6.804  15.546   0.701  0.0677 -0.2777  0.2190
 8938W        W24069   7.981  18.289   1.768 -0.0238  0.1264 -0.2142
 8939W        W24070  18.744  10.045   4.462  0.3403  0.0292  0.0710
 8940W        W24071   0.002   4.754   0.450 -0.3816 -0.0467 -0.1809
 8941W        W24072   3.627  16.286  14.218  0.2376 -0.0420  0.0998
 8942W        W24073  14.865  14.499   1.746 -0.4078 -0.0467  0.3799
 8943W        W24074   3.342   9.857   9.976  0.1038  0.0145 -0.0925
 8944W        W24075   3.374  12.731  13.091  0.2615  0.0675  0.1993
 8945W        W24076   4.066   1.399   4.906 -0.0401 -0.0070 -0.0230
 8946W        W24077  17.166  16.768  12.297  0.0135 -0.1156  0.2844
 8947W        W24078  11.078  12.949   3.602  0.2890 -0.3021 -0.0113
 8948W        W24079   8.864  15.911  15.527  0.1618  0.0216  0.1715
 8949W        W24080   0.962  18.096  11.101 -0.3178 -0.1117 -0.0073
 8950W        W24081  10.277  15.382   1.367  0.0690 -0.4915  0.1881
 8951W        W24082  16.209  13.766   4.273  0.0042 -0.2172  0.2301
 8952W        W24083  10.466  13.376  11.675  0.2650  0.3048 -0.0776
 8953W        W24084  17.400   8.603   4.753 -0.1515  0.0537 -0.1422
 8954W        W24085  10.779  15.769   4.655  0.0778  0.2217 -0.1105
 8955W        W24086   0.974  12.675  13.481  0.0375 -0.1451  0.0520
 8956W        W24087   9.841   0.440  15.406  0.1850  0.4264  0.1603
 8957W        W24088  10.054   2.543   3.017 -0.1159 -0.1607 -0.2540
 8958W        W24089   5.864  11.957   4.658 -0.1743 -0.1624  0.1918
 8959W        W24090  18.221   4.961  14.226 -0.0428 -0.1002 -0.0637
 8960W        W24091  17.323   8.722   3.013  0.2864 -0.3394  0.0176
 8961W        W24092   1.057  18.012  10.583  0.0274 -0.3188 -0.1234
 8962W        W24093   2.171   1.058   0.270  0.0791  0.1518  0.0317
 8963W        W24094   9.396   9.959   5.139 -0.1007  0.3217 -0.0808
 8964W        W24095   1.390   1.613  11.226 -0.2626  0.0576 -0.5699
 8965W        W24096   1.865   5.737   0.129 -0.0584  0.0019  0.1797
 8966W        W24097  10.966  12.851  14.059  0.0475  0.0895  0.1651
 8967W        W24098   0.022  18.508  14.136 -0.1782  0.2734  0.0526
 8968W        W24099   7.931  10.995  14.316  0.3021 -0.1375  0.0441
 8969W        W24100  16.019   8.940  15.175  0.2741 -0.2134 -0.1681
 8970W        W24101   0.941   6.886   0.045  0.0122 -0.2715  0.1338
 8971W        W24102   4.925  15.002   3.862 -0.0985  0.0021  0.2097
 8972W        W24103   2.460  16.911  10.674 -0.1720 -0.2857 -0.0470
 8973W        W24104   7.200  13.243   4.701  0.2034  0.1420  0.2005
 8974W        W24105   9.351   0.526  14.769  0.1634  0.1873  0.0801
 8975W        W24106  17.347  17.943  15.585 -0.0219  0.1229 -0.2202
 8976W        W24107   9.901  17.540   0.138 -0.2234 -0.1730  0.0390
 8977W        W24108  16.261  14.891  14.155 -0.2100 -0.0447 -0.3073
 8978W        W24109  10.873   8.359   3.646  0.0968 -0.0470  0.1216
 8979W        W24110   2.248  12.947   1.523 -0.2963  0.2068 -0.1128
 8980W        W24111   5.745  18.387   4.722 -0.2090  0.3889  0.2836
 8981W        W24112  16.807   5.222  10.826  0.3769  0.0539  0.0105
 8982W        W24113  10.089   3.779   5.653 -0.2779  0.0051  0.0244
 8983W        W24114   2.526  11.116  12.215  0.1854  0.3334  0.0726
 8984W        W24115   8.870  18.165   4.853  0.0396  0.1174  0.3813
 8985W        W24116   9.962   4.765  13.274 -0.1860 -0.4840  0.2540
 8986W        W24117   2.170   7.151  11.961  0.2677  0.1753  0.0215
 8987W        W24118  11.393   6.015   1.897 -0.0904  0.0669 -0.1588
 8988W        W24119   8.423  14.589   4.170  0.1823 -0.3281 -0.2708
 8989W        W24120   1.559   0.805  12.709 -0.0403  0.0692 -0.2407
 8990W        W24121   4.689   9.682   0.372 -0.3962 -0.2037  0.2340
 8991W        W24122   3.815  12.567  14.409 -0.2566  0.1890  0.0092
 8992W        W24123   7.633   6.324   2.588 -0.2707 -0.1043 -0.0713
 8993W        W24124  16.918  10.030  14.845 -0.0768 -0.1878  0.1454
 8994W        W24125  18.073  10.867  12.003  0.0459 -0.1631  0.0095
 8995W        W24126   1.324   9.983  15.320  0.1060  0.2938  0.0001
 8996W        W24127  11.764  13.626  14.199 -0.0928 -0.1986  0.0501
 8997W        W24128   7.471  18.036   0.146 -0.1960 -0.1986  0.0798
 8998W        W24129   7.022   2.323  10.881  0.2035 -0.0641  0.3113
 8999W        W24130   8.939   6.175   4.678  0.2580 -0.1037 -0.1489
 9000W        W24131  12.875   8.614   4.292  0.0426  0.0931 -0.1205
 9001W        W24132   5.235   9.243   4.819 -0.1916  0.0083 -0.0682
 9002W        W24133   8.228  15.631  14.874  0.0369  0.0711 -0.2242
 9003W        W24134   1.009  16.357  12.394 -0.0565  0.1700  0.0063
 9004W        W24135  16.435   2.462  14.527  0.1897  0.0827  0.1470
 9005W        W24136   3.567   6.390  14.952 -0.1176 -0.0211 -0.0452
 9006W        W24137   0.224  17.961   1.251 -0.1971  0.2569  0.0545
 9007W        W24138   8.883  12.001  15.443  0.2315  0.0933 -0.1596
 9008W        W24139   3.778   0.949   5.068 -0.0482 -0.3053  0.1777
 9009W        W24140   6.924  16.081  13.109  0.0583  0.1039 -0.0701
 9010W        W24141   1.169   9.183  14.850  0.1504  0.0833 -0.0427
 9011W        W24142   4.360  12.024  11.728 -0.1278 -0.1016  0.2171
 9012W        W24143  16.037  17.705  12.479  0.1282 -0.2374  0.0318
 9013W        W24144   0.374  18.308  14.684  0.1415  0.1088 -0.2015
 9014W        W24145  11.459   8.893   1.254 -0.2108  0.2699 -0.1774
 9015W        W24146   8.737   1.968  11.060 -0.0626 -0.1161 -0.2587
 9016W        W24147  18.700   9.004   4.718  0.1061 -0.2415  0.1257
 9017W        W24148   0.022   5.585  11.634  0.4706  0.0369 -0.1327
 9018W        W24149  12.630   9.336   1.655 -0.3662 -0.1220 -0.3349
 9019W        W24150   0.722  13.445  15.666  0.1464  0.0157  0.2260
 9020W        W24151  10.555  18.300  10.734  0.1024 -0.2380 -0.0139
 9021W        W24152  17.192  13.332   0.082 -0.1328 -0.2115  0.2251
 9022W        W24153  17.135  12.380   1.363  0.2822 -0.1779 -0.1988
 9023W        W24154   6.468   8.065   0.242 -0.0076  0.1173  0.1336
 9024W        W24155  12.455  15.802   4.245  0.0010 -0.2524  0.2044
 9025W        W24156  11.028   6.953   2.514  0.0551  0.1243 -0.2488
 9026W        W24157   4.639  11.358  12.272  0.0537  0.0813  0.0591
 9027W        W24158  15.029   4.619   2.274  0.1458 -0.1642 -0.1302
 9028W        W24159  10.799   3.101  11.604  0.0542 -0.1997  0.1723
 9029W        W24160  14.018  13.605   4.320  0.1473 -0.4441  0.1475
 9030W        W24161  14.260   1.117  10.689  0.0773  0.0970  0.0830
 9031W        W24162  14.698   6.020  13.170  0.0066  0.0325  0.1815
 9032W        W24163   2.262   5.022  14.756 -0.1005 -0.0674 -0.3784
 9033W        W24164  14.540   5.750  11.940  0.2202 -0.1210 -0.0746
 9034W        W24165   4.895  11.527   2.736 -0.2040 -0.0083 -0.0449
 9035W        W24166  15.526  15.267   4.883 -0.0844  0.0678 -0.1200
 9036W        W24167  18.647   5.547   3.656 -0.0229 -0.1704 -0.2909
 9037W        W24168   2.360  12.579   9.565  0.0295  0.0859 -0.1739
 9038W        W24169  15.616  10.139  13.074 -0.4004  0.1108 -0.2016
 9039W        W24170  15.838  15.172  13.575 -0.0561 -0.1049  0.0700
 9040W        W24171   4.580   7.065  10.550 -0.0696 -0.3042 -0.1727
 9041W        W24172  12.155  11.187  11.281 -0.0343  0.1997  0.1284
 9042W        W24173   8.907   1.067  14.046 -0.1895  0.0406 -0.3351
 9043W        W24174  11.184  13.544   5.995 -0.2943 -0.1616 -0.0128
 9044W        W24175  14.444  14.405   4.345  0.0429  0.0083  0.0738
 9045W        W24176   4.058  11.789  13.438  0.0601  0.0235  0.1197
 9046W        W24177   1.038   0.899  12.936 -0.0453 -0.1145  0.1002
 9047W        W24178   9.089   3.740  14.943 -0.0714 -0.0273  0.0670
 9048W        W24179   0.695  11.584   4.184 -0.3221  0.2414  0.0476
 9049W        W24180  11.996   6.321  14.806 -0.1798 -0.4142 -0.1636
 9050W        W24181  12.299  16.647  13.350 -0.0192 -0.0252  0.1110
 9051W        W24182  14.434  12.894   1.632 -0.2904  0.1650 -0.1378
 9052W        W24183  18.585  13.525   1.167 -0.1260 -0.2324 -0.0334
 9053W        W24184  12.725  14.707  15.194 -0.0996 -0.2168 -0.0333
 9054W        W24185  14.144  15.480  11.118 -0.0448 -0.3659 -0.1209
 9055W        W24186   1.983  17.282  13.812  0.0696 -0.0823  0.1867
 9056W        W24187   7.899  13.170   4.185 -0.0416  0.1114 -0.0938
 9057W        W24188   9.390   3.639  10.554 -0.2251  0.2532  0.3888
 9058W        W24189  14.393   9.796   2.363  0.2142 -0.2439 -0.1785
 9059W        W24190   8.802   0.811   1.449  0.0706 -0.1228 -0.3872
 9060W        W24191  17.869   0.751  14.765  0.0975  0.2852 -0.2225
 9061W        W24192  18.311   1.968  15.305  0.1269  0.0575  0.1410
 9062W        W24193  16.711   1.517  11.685 -0.0700 -0.2498 -0.1836
 9063W        W24194   2.384   7.869  12.973 -0.1172 -0.0170 -0.1610
 9064W        W24195  11.930  18.658   5.247 -0.0743  0.1454 -0.1354
 9065W        W24196   7.940  13.066  11.367 -0.2587  0.1077 -0.2110
 9066W        W24197  13.900  11.452  10.834  0.2032 -0.1038  0.1881
 9067W        W24198  13.567  10.511   4.023  0.1271  0.0726  0.0839
 9068W        W24199   1.792   4.808   0.019 -0.0739 -0.1103 -0.1181
 9069W        W24200  13.728   9.445  15.139  0.0029 -0.3623  0.1307
 9070W        W24201   1.855   1.842  11.238  0.0454 -0.1306 -0.2521
 9071W        W24202   4.640   9.686   5.242 -0.0377  0.3606  0.0595
 9072W        W24203   6.876   8.298   0.010  0.1756 -0.2250  0.0828
 9073W        W24204  13.679   4.730   4.156  0.0643 -0.3013  0.2834
 9074W        W24205   7.070  14.163   5.014 -0.3585  0.2738 -0.0315
 9075W        W24206   7.582  10.169  12.122 -0.0465  0.0326 -0.0258
 9076W        W24207   8.638  12.133   5.728 -0.1645 -0.3635 -0.2874
 9077W        W24208   8.683   0.469   5.180 -0.0683 -0.0496 -0.0334
 9078W        W24209   2.709  15.562   2.752 -0.0155 -0.0549  0.2255
 9079W        W24210  15.393   6.493   3.306  0.2405 -0.0414  0.1165
 9080W        W24211  15.731   1.737  12.125  0.1351 -0.0513 -0.1042
 9081W        W24212  13.145  17.407   3.821  0.0451 -0.0676  0.1766
 9082W        W24213   9.405  10.125   2.905 -0.4673 -0.1590  0.0282
 9083W        W24214  10.352  18.424   5.498  0.3871  0.0765  0.1955
 9084W        W24215  17.188  17.306   1.081  0.0884  0.2420 -0.0040
 9085W        W24216   6.905   0.679   0.913  0.1530  0.1961  0.3268
 9086W        W24217  11.535   3.401   3.468  0.0638  0.0996 -0.0335
 9087W        W24218   6.266   3.789  13.572  0.1088  0.0614  0.3900
 9088W        W24219   0.447   6.831   4.399  0.2100  0.1923  0.0262
 9089W        W24220  18.723   0.697  12.646 -0.0836  0.2034 -0.1174
 9090W        W24221   4.913   1.406  12.196 -0.2536 -0.4037 -0.1234
 9091W        W24222   1.086  14.644   1.350 -0.0346  0.0420 -0.1771
 9092W        W24223  14.817   4.060   4.677  0.1311 -0.3719  0.5234
 9093W        W24224   9.376   4.736  11.257 -0.0463 -0.0392 -0.1487
 9094W        W24225  18.499  12.314  10.650 -0.1704 -0.2497 -0.0737
 9095W        W24226  14.487   8.715  11.316 -0.0078  0.0729  0.1451
 9096W        W24227   4.460  12.405   2.166 -0.0140 -0.1562 -0.2636
 9097W        W24228   5.337   8.641   1.017 -0.0268 -0.1197 -0.2454
 9098W        W24229   9.567   5.602  14.699 -0.1606 -0.2254  0.0584
 9099W        W24230   6.414   1.324   4.881 -0.1765  0.0778  0.2988
 9100W        W24231  11.343   5.869   3.618 -0.3860 -0.0097  0.0691
 9101W        W24232  10.790  13.531   3.368  0.2530 -0.3547 -0.0452
 9102W        W24233  15.899  14.259  12.813  0.0522  0.0507 -0.1687
 9103W        W24234   2.091   8.362   4.588  0.2777 -0.1543  0.2950
 9104W        W24235  11.034  13.854   1.967 -0.1347  0.0738 -0.1539
 9105W        W24236  15.398   0.616   1.745 -0.0377  0.0566 -0.0975
 9106W        W24237   6.282  11.569   3.794 -0.0725  0.3070 -0.1838
 9107W        W24238  15.165   6.994  12.315 -0.0531 -0.0146  0.0156
 9108W        W24239   1.700  16.414   2.645 -0.0260 -0.3176  0.2422
 9109W        W24240   7.806   0.798  11.385 -0.3972  0.1874  0.3973
 9110W        W24241  13.602   7.072   4.711 -0.0614 -0.1812 -0.1984
 9111W        W24242  18.725   3.935  11.542 -0.1150 -0.0094 -0.2175
 9112W        W24243   7.402   7.296  15.098 -0.4351  0.1080 -0.2743
 9113W        W24244  17.592  11.012   1.535  0.1754 -0.4305  0.1799
 9114W        W24245   8.467  15.445  13.172 -0.3525  0.1966  0.2999
 9115W        W24246  13.994   7.466   0.936 -0.3978  0.0752 -0.2684
 9116W        W24247   5.477   4.612  10.946 -0.0180  0.3061 -0.0840
 9117W        W24248   9.716   3.845   0.368 -0.1046 -0.2220 -0.2268
 9118W        W24249   1.755   1.802  13.624  0.2570  0.3151 -0.0093
 9119W        W24250   4.429   7.612   1.080  0.1871 -0.0158  0.0033
 9120W        W24251  13.794   5.231  14.802 -0.1793  0.0004 -0.0917
 9121W        W24252  14.766   8.725   4.396 -0.1467 -0.1982  0.0343
 9122W        W24253   3.048   3.335   0.388  0.2125  0.1817  0.0444
 9123W        W24254  16.911  10.789  11.789  0.1741 -0.1408  0.0070
 9124W        W24255   4.600  15.921  11.892 -0.1735  0.2704  0.1983
 9125W        W24256  18.299  17.481  15.111  0.0977  0.3375  0.0920
 9126W        W24257   1.409  18.006   3.152 -0.5437  0.0931 -0.0302
 9127W        W24258   8.413   2.918  14.264 -0.6476 -0.3511  0.5698
 9128W        W24259  17.153  16.276   4.398  0.0736 -0.1030  0.1252
 9129W        W24260   3.937   2.363  12.149 -0.0862 -0.0659  0.1421
 9130W        W24261  12.070   1.893   4.798  0.2583 -0.2710  0.1475
 9131W        W24262   5.008   0.942   3.774  0.1109 -0.1706  0.3722
 9132W        W24263  16.041  14.771  11.107 -0.0991  0.1787 -0.0454
 9133W        W24264   5.961   5.637  15.239  0.1341  0.0245 -0.0331
 9134W        W24265  16.953   9.053   4.646  0.1290  0.1412  0.0385
 9135W        W24266  10.189   8.677   2.193 -0.1106 -0.1236  0.1713
 9136W        W24267   1.546   1.295   1.922 -0.0889 -0.1685  0.0905
 9137W        W24268   2.457   2.065   3.876  0.2198 -0.2761 -0.0283
 9138W        W24269  11.671   1.589   4.062  0.1002 -0.0034 -0.3276
 9139W        W24270   3.118  13.963   2.708  0.0145 -0.5769 -0.2174
 9140W        W24271  18.018   9.081  15.624 -0.1990 -0.2469  0.0482
 9141W        W24272   2.893  12.107  14.268 -0.1015 -0.0303 -0.2446
 9142W        W24273  14.855  17.462   3.038  0.1130  0.0705 -0.0767
 9143W        W24274  11.122   2.214   1.675 -0.2421  0.0403  0.1674
 9144W        W24275   3.887   3.663  10.846 -0.0305  0.4236 -0.3696
 9145W        W24276   8.652   5.600   4.451 -0.0148  0.0009  0.0956
 9146W        W24277   9.141  12.799  13.231  0.2488  0.0079  0.0973
 9147W        W24278  15.641   9.543  15.061  0.1749  0.1871 -0.0186
 9148W        W24279  16.707   8.486  10.720 -0.0804 -0.3569  0.1911
 9149W        W24280   2.858   5.706   3.764  0.0398 -0.3100 -0.0021
 9150W        W24281  14.021   4.821   3.241  0.1383 -0.1944  0.4790
 9151W        W24282   2.949   2.780  11.114 -0.0059  0.0404  0.2681
 9152W        W24283  10.708   6.343  10.816  0.0839 -0.7621  0.2663
 9153W        W24284  16.515   2.513   2.197  0.2446 -0.0030  0.1775
 9154W        W24285  11.632  15.446   2.311  0.0148  0.2588 -0.1028
 9155W        W24286   4.326   6.364   9.176  0.3448 -0.0583  0.0448
 9156W        W24287   4.723  16.081  14.357 -0.2973  0.2292 -0.0568
 9157W        W24288  14.735   9.909   0.515  0.0222 -0.2674 -0.0754
 9158W        W24289  16.128   0.121  13.952  0.1415  0.3187 -0.3784
 9159W        W24290   7.602  14.929   3.264 -0.0143 -0.2799 -0.4133
 9160W        W24291  11.344   6.578  10.116  0.0752  0.2080 -0.1696
 9161W        W24292   2.276  10.195  12.455  0.1949  0.1024  0.1059
 9162W        W24293  13.776  13.424   6.298 -0.3801 -0.5536 -0.0337
 9163W        W24294  17.266   0.663   0.586 -0.3365  0.2750 -0.0267
 9164W        W24295  13.480  16.871  14.981  0.0086  0.2578  0.0289
 9165W        W24296  16.614  10.336  14.518 -0.0694  0.1296  0.1648
 9166W        W24297  18.308  12.553   3.860 -0.2869  0.1506 -0.3605
 9167W        W24298   4.329  11.274   4.635  0.3990 -0.2005  0.2749
 9168W        W24299   8.987   7.963   4.305 -0.2127 -0.0351 -0.1885
 9169W        W24300   9.795   8.070   3.911  0.2090  0.0303  0.1918
 9170W        W24301  12.367  18.336  13.558 -0.2041 -0.1262 -0.4265
 9171W        W24302   6.112  11.886   3.261 -0.0698  0.1149  0.0612
 9172W        W24303   0.443  15.892   2.786  0.2414  0.0366 -0.0530
 9173W        W24304  17.941   7.810  11.549  0.1460 -0.2636 -0.2837
 9174W        W24305   4.478  13.437   4.143 -0.1983  0.0758  0.1308
 9175W        W24306   8.827   8.552   2.097  0.0026 -0.1485 -0.1005
 9176W        W24307   4.141  14.792  10.204  0.1664  0.4195 -0.2523
 9177W        W24308   5.990   5.098  15.413  0.4247 -0.0285  0.0616
 9178W        W24309  16.830  14.598   3.379 -0.1141  0.3921  0.0785
 9179W        W24310  13.465   1.846   1.598  0.2597  0.0692  0.2468
 9180W        W24311   3.096  15.688   2.487  0.1247 -0.0848 -0.0509
 9181W        W24312  18.696   3.340  13.209 -0.2065  0.0370  0.0455
 9182W        W24313  13.810   6.922  13.441 -0.1366  0.0948 -0.2480
 9183W        W24314  14.995   2.590  15.286  0.0161  0.1028  0.2686
 9184W        W24315  14.092   7.996  15.235  0.1497  0.0718  0.2144
 9185W        W24316  14.096  13.311   2.651  0.0930  0.2178 -0.2885
 9186W        W24317   3.993   8.276   0.084  0.3806  0.0028 -0.0318
 9187W        W24318   5.664   9.139   5.528  0.1217  0.2572  0.1729
 9188W        W24319  11.478   2.207   2.132  0.2769  0.0863 -0.1694
 9189W        W24320   8.795  18.021   0.310 -0.1020  0.1814 -0.1528
 9190W        W24321  16.392   8.417   2.770  0.2582 -0.0604  0.0983
 9191W        W24322  17.855  10.737   3.676  0.0122  0.2175 -0.3156
 9192W        W24323   5.897   9.800   2.212  0.0590  0.0955  0.0419
 9193W        W24324  11.227  10.382   1.095  0.0824  0.1404 -0.1200
 9194W        W24325   8.226   0.360   4.223  0.0022 -0.1287 -0.1164
 9195W        W24326   6.820   2.600   0.248  0.0296  0.1939  0.1747
 9196W        W24327  10.094  15.922  14.534 -0.4762 -0.2336 -0.3078
 9197W        W24328   4.050   3.732  13.802  0.2186 -0.0185 -0.1245
 9198W        W24329   4.290  15.037  11.063 -0.0222 -0.2945 -0.2082
 9199W        W24330  11.174  14.076   4.570  0.1276 -0.0007 -0.0792
 9200W        W24331   6.470   2.219   2.103  0.0230  0.1063 -0.5442
 9201W        W24332  12.858  16.547   2.987 -0.1627 -0.1800 -0.2687
 9202W        W24333   9.461   0.005   5.137 -0.1012 -0.2248  0.2624
 9203W        W24334  18.289   1.950  10.918  0.0203 -0.1134 -0.1067
 9204W        W24335  18.166   0.089   4.692 -0.3215 -0.2324  0.1452
 9205W        W24336   7.687   2.034  14.058  0.0131  0.2316 -0.3558
 9206W        W24337  10.049   3.729  15.132  0.0115  0.3563  0.1067
 9207W        W24338   7.481   0.368  13.463 -0.2927  0.0772  0.1734
 9208W        W24339  16.212  11.599   4.590 -0.1800  0.2137  0.1053
 9209W        W24340  13.876  17.430   0.707  0.2734  0.0623 -0.2022
 9210W        W24341   9.568  13.472   3.284  0.1085  0.2145  0.1346
 9211W        W24342   7.986  12.429   0.891  0.2016 -0.2445  0.3140
 9212W        W24343  16.617  14.600  13.874 -0.1057  0.1609  0.0027
 9213W        W24344  13.405  15.784   0.526  0.3573 -0.1687  0.0879
 9214W        W24345  18.709  15.705   2.647  0.4117 -0.1648  0.2048
 9215W        W24346   9.322  11.893  13.493 -0.1841 -0.0364  0.4507
 9216W        W24347  18.530  12.796   2.668 -0.2943  0.4410  0.2553
 9217W        W24348   6.642   5.132   3.761 -0.2221 -0.2726  0.2566
 9218W        W24349  13.007  17.501  15.219 -0.1665  0.1896  0.2540
 9219W        W24350  14.199   3.146  12.038 -0.1343 -0.0317  0.2852
 9220W        W24351  12.582   2.872  15.236  0.1022  0.0427  0.1318
 9221W        W24352   0.050  16.211  14.869  0.1731  0.1144 -0.2300
 9222W        W24353  17.691   0.806   2.041 -0.0945  0.0196  0.2000
 9223W        W24354   2.655  11.155  15.420  0.2330 -0.4571 -0.0859
 9224W        W24355   5.838  17.324  12.407  0.2169  0.0272 -0.0809
 9225W        W24356   4.670   2.581   4.591 -0.2002 -0.1327  0.0046
 9226W        W24357  16.464  17.801   5.233  0.1734 -0.4012  0.2169
 9227W        W24358   7.636   0.712  13.947 -0.1715  0.0746 -0.0338
 9228W        W24359   9.522   4.729   3.688  0.1695  0.4182  0.1060
 9229W        W24360   5.263  12.409  12.854  0.1750 -0.2586  0.1919
 9230W        W24361   5.354   9.592  14.674  0.1080 -0.1850 -0.2491
 9231W        W24362  14.529  12.239  10.983 -0.0220  0.3527 -0.1763
 9232W        W24363   6.769   6.964  14.215 -0.2231 -0.0903  0.1208
 9233W        W24364  13.010   2.650  11.467  0.2767  0.0657 -0.1348
 9234W        W24365   7.326  18.070  10.843 -0.1221 -0.2507 -0.0545
 9235W        W24366  14.062   6.092  13.771 -0.0462 -0.3101  0.0564
 9236W        W24367  11.353   8.591   3.317  0.1990 -0.1864 -0.0963
 9237W        W24368  12.667   9.397  12.791  0.1702  0.1011 -0.1874
 9238W        W24369  12.404  12.063  14.964 -0.3944  0.4173 -0.0360
 9239W        W24370   9.831  18.664  14.977  0.2483 -0.0137  0.2387
 9240W        W24371   4.202   3.990  10.698  0.4588  0.1565  0.2682
 9241W        W24372   1.235   4.507  10.248  0.2504 -0.2515  0.0985
 9242W        W24373   5.863   8.797   4.701 -0.3950 -0.0207 -0.4355
 9243W        W24374   1.235  15.801  14.649 -0.2430  0.2766 -0.0960
 9244W        W24375  17.451  13.904  14.398 -0.0857  0.0179 -0.0679
 9245W        W24376   3.454   7.155   3.781  0.1323 -0.2840 -0.2840
 9246W        W24377  14.791   2.996  13.158 -0.1123  0.4052  0.0707
 9247W        W24378  16.038  13.312  15.093  0.2592 -0.1577  0.2891
 9248W        W24379  10.313   5.333  10.402  0.4110  0.0180 -0.3664
 9249W        W24380   6.588  15.982   0.922  0.0712 -0.1413  0.3779
 9250W        W24381  11.870  13.371  13.783 -0.1179 -0.1683  0.0529
 9251W        W24382  12.904   0.652  12.390  0.3100 -0.0843 -0.1539
 9252W        W24383  12.190   7.018   0.317 -0.0536  0.1298 -0.0522
 9253W        W24384   1.002   6.403   1.974 -0.3003 -0.1055  0.1323
 9254W        W24385   1.813   2.090  14.048 -0.0440  0.0927 -0.1652
 9255W        W24386  13.673   8.127   4.363 -0.2035 -0.0005 -0.0834
 9256W        W24387  12.684  13.939  12.673  0.0368  0.1869 -0.3616
 9257W        W24388   5.394   6.093   0.948  0.0755  0.0094  0.2105
 9258W        W24389  16.881   9.273   2.705  0.1404 -0.2168  0.0864
 9259W        W24390  10.685   2.205  10.997  0.4876  0.0331 -0.2786
 9260W        W24391  10.247   4.222  15.446 -0.0659 -0.1326 -0.5023
 9261W        W24392   4.639  12.898   0.290  0.2335  0.1708  0.4032
 9262W        W24393  10.003  18.594   2.186 -0.1771 -0.2706 -0.1339
 9263W        W24394  16.289   1.871  13.139  0.1104  0.2438 -0.0712
 9264W        W24395  12.720  18.100   0.835  0.1349 -0.1301 -0.1673
 9265W        W24396   2.672  14.642  14.052 -0.1051 -0.0296  0.1997
 9266W        W24397   8.833  12.078   5.105  0.1724 -0.1915 -0.1253
 9267W        W24398  12.016   4.882  14.377 -0.0235 -0.2711 -0.0698
 9268W        W24399   3.871   1.874   4.830  0.3631  0.0144 -0.1466
 9269W        W24400  18.198   6.117  11.192 -0.1811 -0.0744 -0.2999
 9270W        W24401   5.731  18.031  13.174  0.2708 -0.0048  0.2273
 9271W        W24402  14.201   4.064  10.314  0.5010 -0.2195 -0.1540
 9272W        W24403  12.580   7.234   2.889 -0.2209 -0.0371  0.0050
 9273W        W24404   0.185   5.746  12.205 -0.1193 -0.2407 -0.0423
 9274W        W24405  10.149   8.608   1.650 -0.0743 -0.0475 -0.2896
 9275W        W24406   5.962  11.044  11.941 -0.2527 -0.1651 -0.1541
 9276W        W24407   1.770  12.060   3.379 -0.3387  0.0049  0.2847
 9277W        W24408  10.411   9.594   5.279  0.1274 -0.0929 -0.2410
 9278W        W24409  16.914   9.894  13.728  0.2256 -0.1383  0.2319
 9279W        W24410   2.926   2.140   4.614  0.1135  0.1086  0.0905
 9280W        W24411  12.741  16.064  15.284 -0.0842  0.0727  0.2944
 9281W        W24412   7.560  10.974  12.868  0.0604  0.0513  0.3335
 9282W        W24413  16.088  15.804   2.090 -0.1548 -0.1836 -0.1718
 9283W        W24414  17.796   6.935  12.148 -0.0655 -0.2988  0.1897
 9284W        W24415   7.855   1.410  14.516  0.2049 -0.3528  0.2428
 9285W        W24416   9.748   4.878  12.276 -0.3123 -0.1000  0.1028
 9286W        W24417  18.375   2.375   0.472 -0.1180 -0.1769  0.1235
 9287W        W24418   4.103  16.092  11.574 -0.1647 -0.1348 -0.0957
 9288W        W24419   7.189   2.359  14.117  0.1637  0.1170  0.1369
 9289W        W24420   8.043  16.714   2.857 -0.1390 -0.0832  0.0422
 9290W        W24421   6.019   2.916   0.336 -0.3401 -0.1316 -0.3029
 9291W        W24422  11.781   2.803  11.300  0.1126 -0.0305  0.1101
 9292W        W24423   8.331   0.676   5.440  0.1042 -0.1006  0.1438
 9293W        W24424   7.872   4.568  10.165  0.1568  0.1025  0.0244
 9294W        W24425  17.990   4.745  11.930 -0.1063 -0.0017  0.3921
 9295W        W24426   9.483   2.907   2.026  0.1482  0.0067 -0.0406
 9296W        W24427   4.720  12.976   2.867  0.0744  0.0031 -0.0300
 9297W        W24428   4.674   7.473   1.503  0.2648 -0.0740  0.1636
 9298W        W24429  11.726  12.779   1.238  0.3477 -0.4042  0.3124
 9299W        W24430  16.794   8.179   2.989  0.0525 -0.1659  0.2114
 9300W        W24431   5.404   9.947   0.969 -0.4411  0.0171  0.1086
 9301W        W24432  14.441   0.444   3.840  0.1792  0.1260  0.5604
 9302W        W24433   7.104  13.429   2.173 -0.1062 -0.0096  0.1948
 9303W        W24434  12.909   8.074   0.330  0.2406  0.0265 -0.3233
 9304W        W24435   7.912  13.334  14.312  0.0462 -0.2381  0.0755
 9305W        W24436   9.982   1.795  11.382 -0.2486  0.0417 -0.1883
 9306W        W24437  12.094   7.189   1.670 -0.0074  0.2991 -0.1426
 9307W        W24438  14.231   5.783   1.328  0.0858 -0.2183 -0.0308
 9308W        W24439   3.433  15.117   3.454 -0.1502  0.3126 -0.0703
 9309W        W24440  14.939   2.268  11.353 -0.1954  0.1029  0.1665
 9310W        W24441   3.105   5.271  13.457 -0.1202 -0.1092 -0.2131
 9311W        W24442   1.124  18.552   9.705  0.3716 -0.2174 -0.1245
 9312W        W24443   3.281  18.340  15.016  0.1254 -0.0986  0.1857
 9313W        W24444   5.698  17.574  11.934 -0.0039 -0.2512 -0.2536
 9314W        W24445   9.718  13.896  13.398  0.0029  0.2302 -0.0620
 9315W        W24446  15.592  10.811  14.742  0.0153  0.0389 -0.0077
 9316W        W24447  14.385   0.254  14.730 -0.0065 -0.1401 -0.0786
 9317W        W24448   8.733  16.495  15.603  0.1386 -0.0954 -0.0046
 9318W        W24449   4.015  12.218   2.245 -0.1891 -0.3183 -0.0900
 9319W        W24450  18.547  15.938   2.135 -0.4450 -0.1400 -0.4393
 9320W        W24451   9.169  11.981  11.856  0.1906  0.0287  0.1207
 9321W        W24452   8.414  17.950  14.613 -0.0182  0.1239 -0.0992
 9322W        W24453   8.839  12.863   3.450  0.0904 -0.0421  0.0400
 9323W        W24454  11.511  15.701  15.282  0.0565 -0.1700 -0.0900
 9324W        W24455   3.471  16.587   0.174  0.0230 -0.2662  0.1373
 9325W        W24456  11.585   4.891  15.415  0.1212  0.3641 -0.0336
 9326W        W24457  13.183  14.870  12.906 -0.2616 -0.1160  0.3515
 9327W        W24458   8.440   7.017  14.675 -0.1372  0.0003 -0.1486
 9328W        W24459   4.050   2.503  11.304  0.0909 -0.2700 -0.1454
 9329W        W24460   3.850   3.270  13.870  0.1808  0.2103  0.2110
 9330W        W24461  10.888  17.569   5.137  0.1991  0.2348 -0.2062
 9331W        W24462  10.726   6.568   1.799 -0.0297 -0.1084 -0.5587
 9332W        W24463   4.883   5.057  13.196 -0.2366 -0.0342 -0.4215
 9333W        W24464   3.046   5.710  13.205 -0.1849 -0.2429 -0.0678
 9334W        W24465   6.173   3.816  11.983  0.0155  0.1655  0.0193
 9335W        W24466  11.922   7.559   4.963  0.2781 -0.1740 -0.0379
 9336W        W24467  17.795  15.482  14.363  0.0554 -0.1517  0.2470
 9337W        W24468  11.961   4.149  14.315 -0.3099  0.1369 -0.2510
 9338W        W24469   6.025  11.105  12.700 -0.0891 -0.1386  0.3020
 9339W        W24470  10.061   3.962   1.894 -0.3262  0.0348  0.1334
 9340W        W24471   0.255  10.108   1.170  0.1755  0.1251  0.0793
 9341W        W24472  13.640  16.911   0.584 -0.2373  0.0567  0.4814
 9342W        W24473   4.489   0.766  11.712 -0.0215  0.2157 -0.1806
 9343W        W24474   2.574  15.253  13.209 -0.3938  0.4518  0.0768
 9344W        W24475  18.518   9.563   4.608 -0.4382  0.0795 -0.0478
 9345W        W24476   1.969   7.821  13.881  0.1316 -0.2814 -0.3471
 9346W        W24477  13.831   8.326   4.796  0.1744 -0.1974 -0.1776
 9347W        W24478   5.478   2.219  14.876 -0.0369  0.1032 -0.0630
 9348W        W24479  16.613   8.119   5.134 -0.0696  0.1123 -0.0082
 9349W        W24480   0.848  11.999  13.361  0.0337  0.3673  0.6356
 9350W        W24481   6.318   6.299  15.087  0.0382 -0.0463  0.1777
 9351W        W24482  10.932  13.811   1.034 -0.0973 -0.3271 -0.2484
 9352W        W24483   5.366   2.037  11.453  0.1624 -0.2253 -0.0501
 9353W        W24484  13.975  12.023   2.369 -0.0532 -0.3068 -0.2694
 9354W        W24485  16.167   8.459  11.435 -0.0080  0.0087 -0.1224
 9355W        W24486  16.899   2.109   2.280  0.0645  0.1109 -0.0349
 9356W        W24487   0.402  16.503  11.664  0.1617  0.2894 -0.1516
 9357W        W24488   4.566  17.787   9.858  0.0132 -0.1140 -0.0545
 9358W        W24489  15.825  11.795   2.706 -0.1780  0.0929 -0.1907
 9359W        W24490  18.374  14.123   1.971 -0.1699 -0.2683 -0.0027
 9360W        W24491  15.598   0.140   4.328  0.0458 -0.0968 -0.0958
 9361W        W24492  12.882   8.946   1.814  0.1900  0.0101 -0.0800
 9362W        W24493  15.810  14.762   0.774  0.1188  0.0048 -0.1539
 9363W        W24494  10.689  17.243   4.695  0.0261  0.3174  0.1042
 9364W        W24495   3.678  15.726  12.477  0.0705  0.1210 -0.0121
 9365W        W24496  14.379  10.188  11.097 -0.0167  0.3604  0.2823
 9366W        W24497   5.791   8.711  13.846  0.4092  0.3292  0.1736
 9367W        W24498  18.717   6.495   2.090  0.0559 -0.0119 -0.1918
 9368W        W24499   2.596   2.747  10.725  0.1557 -0.1932  0.0323
 9369W        W24500  10.898  11.719   6.407 -0.0382 -0.0692 -0.2490
 9370W        W24501   2.514   6.981   4.148 -0.0818 -0.4061 -0.1792
 9371W        W24502   5.324   4.959   5.750  0.3896  0.1437  0.4925
 9372W        W24503   0.291  11.895  15.079 -0.2249 -0.1434 -0.2151
 9373W        W24504   7.823  16.764  10.938 -0.2147  0.0258  0.0717
 9374W        W24505  14.967   0.003  10.224 -0.4464  0.0021  0.0544
 9375W        W24506  17.481   7.442   4.273  0.1403  0.1147 -0.1732
 9376W        W24507   1.095  13.711  13.591 -0.0017 -0.4421 -0.1639
 9377W        W24508   7.424  17.142   5.390  0.1086 -0.0345 -0.2082
 9378W        W24509   5.085  17.488  10.552 -0.0280  0.0196 -0.4175
 9379W        W24510   9.493   3.358  13.160  0.0243 -0.1185 -0.0161
 9380W        W24511   6.192   1.251  10.864 -0.0491  0.3019  0.1419
 9381W        W24512  14.781  10.110   4.712 -0.0344  0.1187  0.0030
 9382W        W24513   4.050  18.661   0.484 -0.0727  0.2278 -0.4026
 9383W        W24514   6.155  15.241  12.449 -0.1981 -0.0268  0.4135
 9384W        W24515   7.262   4.743   2.063 -0.6002 -0.4338 -0.0332
 9385W        W24516   2.541  13.604  12.517 -0.0326 -0.2436  0.0376
 9386W        W24517  14.217   3.770   3.176  0.0158 -0.0127  0.2969
 9387W        W24518   3.316   8.389   5.244  0.0670 -0.0744  0.1987
 9388W        W24519   0.592  12.665   0.674  0.1524  0.0126  0.0883
 9389W        W24520   8.728  18.283  13.040  0.0538  0.1416  0.2309
 9390W        W24521  16.406  14.715  12.920 -0.2719 -0.0278 -0.1468
 9391W        W24522   1.675   4.008   4.146  0.3127 -0.1341  0.1237
 9392W        W24523   8.202  18.657   9.944 -0.0068 -0.0145 -0.0035
 9393W        W24524   3.863  14.549  12.917  0.0548 -0.3690 -0.2136
 9394W        W24525   2.673  18.064   2.398 -0.2147  0.3361 -0.3452
 9395W        W24526   5.346  13.168  10.849 -0.0264 -0.3541 -0.1577
 9396W        W24527   4.494  12.408   0.178 -0.2232 -0.1990  0.0286
 9397W        W24528   6.442  16.157  12.070 -0.0259  0.1902 -0.0540
 9398W        W24529   4.063  17.963  14.026  0.2269 -0.1797  0.1656
 9399W        W24530   4.398   8.878   2.674  0.1739 -0.1568 -0.1555
 9400W        W24531  16.474  12.772   3.607 -0.0839 -0.0471  0.1197
 9401W        W24532   4.739  15.624   3.177  0.2547  0.2682 -0.4279
 9402W        W24533   0.484  17.545  12.421  0.0946  0.3744 -0.0543
 9403W        W24534   0.142   5.787  13.972  0.3703  0.1649  0.0550
 9404W        W24535  15.563   6.796   2.476  0.0312  0.2873 -0.0825
 9405W        W24536  17.807   0.061   6.014  0.0026  0.0153  0.1705
 9406W        W24537   9.605   2.453   1.190 -0.0817 -0.1036  0.2584
 9407W        W24538   9.905  14.055  11.003  0.0370 -0.3156 -0.0022
 9408W        W24539   7.324   8.423  15.585 -0.2295  0.0518  0.1188
 9409W        W24540  14.224  14.934   5.665 -0.2086  0.0886  0.0592
 9410W        W24541  11.351   5.299  12.691 -0.0852 -0.1696  0.1129
 9411W        W24542   6.913  12.809  14.997  0.2587  0.2826 -0.2347
 9412W        W24543   3.217   2.594   4.504  0.1389 -0.1365 -0.2725
 9413W        W24544   0.359  12.786   2.626 -0.1045  0.0735  0.0497
 9414W        W24545   5.924   6.017  10.823 -0.1946 -0.1531 -0.2222
 9415W        W24546   2.274   2.220  11.956  0.0026  0.2237 -0.0187
 9416W        W24547   8.994  16.960  12.693 -0.0844 -0.0527  0.0852
 9417W        W24548  15.939   8.190   2.588  0.0110 -0.0902 -0.1200
 9418W        W24549  15.176  15.865  14.750 -0.1466  0.1976  0.1924
 9419W        W24550   3.338   9.616  14.914 -0.1148  0.0269  0.1735
 9420W        W24551   4.719  12.286  13.138  0.0309  0.3728  0.0442
 9421W        W24552   5.264   4.766  12.807 -0.0810  0.0137  0.0425
 9422W        W24553   1.946   7.290  15.199 -0.1948 -0.1616 -0.0298
 9423W        W24554  12.807   0.345   3.201  0.0559 -0.1149 -0.0229
 9424W        W24555  17.475  17.506   3.983 -0.0090 -0.3724  0.1271
 9425W        W24556   0.176   2.421  12.812  0.2467 -0.3659 -0.2299
 9426W        W24557  17.431   6.626  11.522 -0.2909  0.1836  0.0655
 9427W        W24558  15.205  10.211   5.644 -0.2446  0.0255 -0.0501
 9428W        W24559  10.464   5.114   3.991  0.2757 -0.0201  0.1894
 9429W        W24560   8.735  17.855  10.319 -0.2397  0.4202 -0.0657
 9430W        W24561   7.307   2.526  10.448  0.1346 -0.0347 -0.1639
 9431W        W24562   4.494   9.566   2.120  0.0423 -0.0526 -0.2582
 9432W        W24563  18.160  13.730  14.360 -0.2828 -0.0051 -0.0116
 9433W        W24564  12.799  15.312  15.494 -0.0181  0.1760  0.3007
 9434W        W24565   3.088   4.134   0.606  0.2764 -0.3570 -0.0756
 9435W        W24566  13.942  16.046  14.821 -0.4120  0.2638  0.3571
 9436W        W24567   6.368   3.988   3.423 -0.3223  0.0133 -0.4179
 9437W        W24568   2.065  13.938   9.765  0.1274  0.2664 -0.0795
 9438W        W24569   1.804  12.962   2.800  0.0746 -0.2733  0.0990
 9439W        W24570   2.967   3.467   4.988  0.0827  0.0251  0.0973
 9440W        W24571   4.673  12.156  14.511  0.5383  0.4002 -0.2022
 9441W        W24572   7.957   3.209  15.566  0.1282  0.1005  0.0509
 9442W        W24573   0.989   0.890  15.076  0.1405  0.1412 -0.0646
 9443W        W24574   6.475  15.483  12.862  0.3513 -0.0583 -0.0207
 9444W        W24575   4.525  16.901   2.428 -0.3469  0.1178  0.0406
 9445W        W24576  10.010   8.379  14.442  0.0988  0.1851 -0.1307
 9446W        W24577  16.254   2.448  11.670  0.1626  0.0382  0.3935
 9447W        W24578  17.603   9.694   2.995 -0.2109 -0.3395 -0.1771
 9448W        W24579  18.261   3.172   2.348  0.1299 -0.0981 -0.0165
 9449W        W24580  15.488   4.190  14.702  0.0824 -0.0069 -0.2654
 9450W        W24581   7.647   1.689   2.965 -0.1878 -0.3659 -0.1901
 9451W        W24582  11.956   4.076  13.802 -0.0481  0.6143 -0.2129
 9452W        W24583   6.139   5.592  11.021  0.1391 -0.3047 -0.0534
 9453W        W24584   1.737   5.715   4.798 -0.1558 -0.0740 -0.0743
 9454W        W24585   5.320  12.678  10.902  0.2791 -0.1336 -0.1940
 9455W        W24586   4.952  13.074  15.657 -0.1600  0.2524 -0.2437
 9456W        W24587   3.412   8.664   3.017  0.1560  0.1584  0.0813
 9457W        W24588  16.517   6.207   5.247  0.0297 -0.0635 -0.2137
 9458W        W24589  17.821   8.248  14.084  0.1750  0.0981 -0.2697
 9459W        W24590   3.052  15.412   3.667 -0.1336 -0.1726  0.0129
 9460W        W24591   0.605  15.901   9.695 -0.1962 -0.2195  0.0753
 9461W        W24592  13.640   6.345  10.812 -0.0660 -0.2712 -0.0328
 9462W        W24593  14.175  14.024   3.151 -0.0723  0.0755  0.2980
 9463W        W24594  11.891   8.455  13.474 -0.0901 -0.3224 -0.5705
 9464W        W24595  11.513   5.693  13.043  0.1454  0.0927 -0.3795
 9465W        W24596  10.404   9.699  13.179  0.0036  0.4828  0.0827
 9466W        W24597   4.865   7.237   2.394 -0.2122 -0.0291 -0.2546
 9467W        W24598  11.534  13.267  13.358  0.3938  0.1040  0.1656
 9468W        W24599   0.820   7.926  12.483  0.3474 -0.2375  0.0868
 9469W        W24600  17.603  17.341  13.043  0.1828  0.3183 -0.2279
 9470W        W24601   5.476  17.427  14.704 -0.0703 -0.1264 -0.0648
 9471W        W24602   0.719  18.642   1.458 -0.0881 -0.1077 -0.6050
 9472W        W24603   5.074  15.683   0.517 -0.2637 -0.0465  0.3734
 9473W        W24604  14.621  15.065   1.508  0.0186 -0.3105  0.1331
 9474W        W24605   7.505  16.810   2.948 -0.1614  0.0774 -0.0516
 9475W        W24606  11.154  17.407   3.471 -0.2764 -0.1181 -0.0732
 9476W        W24607   2.712  13.464   4.903  0.1331 -0.1997 -0.2539
 9477W        W24608   2.792   8.977  11.065  0.0744 -0.3485  0.2271
 9478W        W24609   8.689  14.433   3.756 -0.4086 -0.1146  0.3184
 9479W        W24610   9.718  18.614   4.460  0.3645  0.1145  0.2477
 9480W        W24611   6.709  14.419   1.075 -0.0663 -0.0467  0.4380
 9481W        W24612   5.180   2.830  15.502 -0.0808  0.4564 -0.3003
 9482W        W24613   2.212  12.339   3.447  0.1526 -0.0192  0.1985
 9483W        W24614  13.071   8.182   1.679 -0.2421  0.2515 -0.1990
 9484W        W24615   7.960   7.287  10.521 -0.0677  0.2027  0.0711
 9485W        W24616  12.674   7.478  10.901  0.1920  0.0030 -0.1782
 9486W        W24617   1.572  14.314   4.569  0.0887  0.2392  0.0131
 9487W        W24618  14.028  17.784   2.941 -0.0084  0.0495  0.0086
 9488W        W24619   2.825   8.028   3.195 -0.2164 -0.4383 -0.0258
 9489W        W24620   6.231  11.525   2.877  0.1936  0.3780 -0.3670
 9490W        W24621   9.243  18.164   0.092 -0.0240 -0.0591  0.2180
 9491W        W24622  18.201  16.442   0.924 -0.0864 -0.2380  0.0325
 9492W        W24623   7.104  16.828   5.032 -0.2954  0.0897 -0.3158
 9493W        W24624   0.632   0.108  13.262 -0.2519 -0.0359 -0.3882
 9494W        W24625   6.882   9.583  14.864  0.3231  0.3098  0.2308
 9495W        W24626  16.256   0.553   2.140  0.4240 -0.2516 -0.0568
 9496W        W24627  13.409   3.376  10.516 -0.0471  0.0326  0.1322
 9497W        W24628  11.819  11.816   4.097  0.1827 -0.1046 -0.1931
 9498W        W24629  17.700   7.308   2.770 -0.1831 -0.1482 -0.1264
 9499W        W24630   4.927  18.485  14.014  0.0786  0.0517 -0.1184
 9500W        W24631  12.367  14.367  11.472  0.0953  0.3222  0.1240
 9501W        W24632   4.284   7.757  14.333  0.0752 -0.1887  0.1159
 9502W        W24633  16.510  13.320  15.534  0.2386 -0.1346  0.0297
 9503W        W24634   4.435  11.024  11.081 -0.1816  0.3130 -0.1352
 9504W        W24635   8.824  14.131  14.836 -0.2033 -0.4407  0.0795
 9505W        W24636  10.140   8.279  13.180 -0.1021  0.1321  0.0612
 9506W        W24637   9.253   2.310   4.274  0.2218 -0.0648 -0.2258
 9507W        W24638  18.383   8.865   1.473  0.0331 -0.1745  0.2147
 9508W        W24639   7.878  16.511   4.700 -0.2824  0.1792 -0.0364
 9509W        W24640  13.134   1.466  12.992 -0.1439 -0.1214 -0.0172
 9510W        W24641  13.822  12.197   4.991  0.2146  0.1872  0.3445
 9511W        W24642   6.296  11.326  13.151 -0.2557  0.0822  0.1322
 9512W        W24643   1.334  12.305   4.249  0.2205  0.0478 -0.0778
 9513W        W24644  11.984   8.912   0.124 -0.1446  0.2856 -0.2327
 9514W        W24645  15.475   3.327   4.342 -0.0058  0.0371 -0.2256
 9515W        W24646  10.235   4.255  13.419  0.0390 -0.1564 -0.2574
 9516W        W24647   0.568  12.847  13.263 -0.0224 -0.0439 -0.0284
 9517W        W24648  12.916   2.169   1.947 -0.0467  0.1325  0.0891
 9518W        W24649  10.102   1.384  12.290 -0.4687 -0.2007  0.0256
 9519W        W24650   5.441  16.129   0.631  0.0187  0.0279 -0.0083
 9520W        W24651   2.419  10.127  13.208  0.1069  0.1511  0.1074
 9521W        W24652   9.259   5.838  13.191 -0.1651  0.1131  0.1205
 9522W        W24653   3.372  18.418  12.892  0.2149 -0.0157 -0.1059
 9523W        W24654   9.488   9.312   2.248 -0.0782 -0.2683  0.2199
 9524W        W24655   3.594   4.100   0.566  0.0915 -0.0492 -0.1543
 9525W        W24656  18.167   3.131  10.460 -0.1347 -0.0993 -0.0968
 9526W        W24657   1.470   9.291   3.256  0.0427  0.4011  0.3044
 9527W        W24658  13.004  13.829   3.238 -0.0423  0.0355 -0.2182
 9528W        W24659  11.557  17.692   9.887  0.3676 -0.1598 -0.1242
 9529W        W24660   3.437  17.513  13.015 -0.2447  0.5288  0.0453
 9530W        W24661   7.873   3.285   1.016 -0.1106  0.5872  0.2526
 9531W        W24662  11.734   1.928  13.299 -0.0350 -0.0294 -0.2416
 9532W        W24663  16.765  15.954   3.593  0.0155  0.1841 -0.0911
 9533W        W24664   5.163  17.972   5.315 -0.1057 -0.2611 -0.1027
 9534W        W24665  16.411  12.079   4.701 -0.1141  0.2112  0.1916
 9535W        W24666   5.071  11.090   3.856  0.4444 -0.1110  0.1970
 9536W        W24667   8.554   1.743   1.764  0.1265 -0.2220 -0.1428
 9537W        W24668  17.593   2.024   4.399  0.1524 -0.1026 -0.1956
 9538W        W24669  11.589  11.422   4.866 -0.0851  0.0842  0.2100
 9539W        W24670  15.898  17.387  15.581 -0.1309 -0.0401  0.0730
 9540W        W24671   3.187  15.774  15.712 -0.0732 -0.2102  0.1640
 9541W        W24672   0.929   6.023   4.827 -0.0405  0.0066 -0.1166
 9542W        W24673   3.761   6.445   4.525 -0.2012  0.0159  0.1798
 9543W        W24674   9.758  17.435   3.054  0.0809 -0.0433 -0.2148
 9544W        W24675  14.132   9.014   3.274  0.0419 -0.1575  0.1909
 9545W        W24676  17.151  15.757   4.482 -0.1327 -0.1603  0.3319
 9546W        W24677  11.116  16.695   0.448  0.3444  0.0764 -0.1531
 9547W        W24678  17.931  18.155   0.254 -0.0721 -0.1582 -0.2087
 9548W        W24679   9.486  17.224  10.831 -0.1653 -0.1777 -0.0516
 9549W        W24680  11.374   3.975  11.645 -0.1745  0.0960  0.2717
 9550W        W24681   1.891  14.127   5.748  0.5464 -0.0188 -0.0584
 9551W        W24682   3.179   4.757   5.501 -0.3886  0.2782  0.1712
 9552W        W24683   1.046   2.550  15.743  0.0573 -0.0267  0.3224
 9553W        W24684  15.229   6.546   2.797  0.0179  0.1155 -0.2216
 9554W        W24685  18.311  17.451   5.200  0.1857  0.2574  0.3089
 9555W        W24686  14.041   4.318   4.684 -0.1143 -0.2269 -0.0355
 9556W        W24687   4.198   1.805   3.583  0.2597  0.0774  0.0239
 9557W        W24688  14.408  17.075   3.809 -0.0702 -0.0539 -0.0358
 9558W        W24689  16.116  10.083   5.371 -0.0720 -0.1445 -0.0750
 9559W        W24690   3.158   4.524  12.352  0.0522  0.2163 -0.0691
 9560W        W24691  14.187  14.306  15.389  0.1685  0.1215 -0.0546
 9561W        W24692   9.165   1.034   0.566  0.0202 -0.1945 -0.0643
 9562W        W24693   0.248  13.293   2.598  0.1122 -0.0938  0.0989
 9563W        W24694  10.003  15.451   4.100 -0.1640 -0.0320 -0.0112
 9564W        W24695   9.823   9.481   1.906 -0.0918  0.1048 -0.1442
 9565W        W24696   5.217  14.462   0.121  0.1934  0.0448  0.0537
 9566W        W24697   3.317  17.905   3.783  0.0723  0.3417 -0.2194
 9567W        W24698  16.385  15.149  15.348  0.0351  0.1421  0.0925
 9568W        W24699  17.421   7.573   2.441 -0.0375 -0.1330 -0.1156
 9569W        W24700   9.041   4.211   4.622  0.1058  0.0274  0.0488
 9570W        W24701  11.287   7.403   2.666  0.1090  0.0038 -0.1684
 9571W        W24702   4.136   9.462   3.979  0.0493  0.1294 -0.0276
 9572W        W24703   3.154   5.464   9.370  0.1638 -0.3132 -0.0395
 9573W        W24704   4.845   2.897   2.176 -0.1435  0.3406 -0.0801
 9574W        W24705  11.650  12.405   1.590  0.0935 -0.0304  0.1362
 9575W        W24706  12.026   2.272   4.377 -0.0379  0.3004 -0.3753
 9576W        W24707  10.275   6.776  14.630  0.1403  0.1449  0.0262
 9577W        W24708   8.886   8.434   5.238  0.3399 -0.0599 -0.0071
 9578W        W24709   1.987  14.247   0.322  0.3240 -0.1321  0.0306
 9579W        W24710   8.889   7.463   5.001 -0.6805 -0.4341 -0.4626
 9580W        W24711   9.042   8.936   3.261  0.2369  0.0967 -0.0202
 9581W        W24712   5.323  15.547  10.987  0.1876 -0.6513 -0.1172
 9582W        W24713   3.141   4.095   3.381 -0.0290 -0.0565 -0.2008
 9583W        W24714   5.308   6.567   4.953  0.1188  0.0071 -0.0809
 9584W        W24715   1.008   6.500   0.808  0.3481  0.0760 -0.2234
 9585W        W24716  14.713   6.769  15.688 -0.0167 -0.4380  0.0564
 9586W        W24717   7.366   5.077  15.013  0.0610 -0.0304  0.1007
 9587W        W24718   9.626  13.306   4.953 -0.0723 -0.1658 -0.1294
 9588W        W24719  10.447  12.640   2.438  0.0861  0.0726 -0.0689
 9589W        W24720   9.166   7.462  11.133 -0.0066  0.1748  0.3091
 9590W        W24721  13.105   5.219   2.237 -0.1330  0.2798  0.0796
 9591W        W24722  14.870   7.931  15.236  0.0186 -0.0519  0.2360
 9592W        W24723   5.182  13.939  12.678  0.1173  0.0584  0.2754
 9593W        W24724  16.365  15.331   4.121 -0.0460  0.3368  0.1180
 9594W        W24725  10.432  11.872   0.342 -0.2677 -0.1514  0.1179
 9595W        W24726  14.805  15.941   4.328 -0.0658 -0.3121 -0.2624
 9596W        W24727  11.953   0.671  12.267  0.0933 -0.3958  0.3435
 9597W        W24728   6.389   1.074  13.482  0.0919  0.1547  0.2294
 9598W        W24729  18.477  11.867   4.931  0.0725  0.0067  0.1216
 9599W        W24730  14.887  11.989   0.518 -0.0006  0.1961 -0.1638
 9600W        W24731  13.075  14.642  14.054  0.1664 -0.0363 -0.1616
 9601W        W24732  13.041  11.798   1.329  0.0507  0.1248 -0.0974
 9602W        W24733  17.107   5.534   1.099  0.2067  0.4375 -0.0362
 9603W        W24734   5.665  14.560   0.670 -0.3757 -0.0103  0.1502
 9604W        W24735  18.658   4.026   2.466 -0.2907  0.1104  0.1389
 9605W        W24736  13.265   2.902  15.301 -0.0124 -0.2214  0.1370
 9606W        W24737   2.695   1.367  11.996  0.0580  0.3648 -0.2075
 9607W        W24738  17.001  12.565   2.640  0.0751  0.0621 -0.0727
 9608W        W24739   9.231   9.730   3.175  0.3837  0.0288 -0.2964
 9609W        W24740   4.007   9.436  14.068  0.1073 -0.1288 -0.0433
 9610W        W24741   2.267   3.562  15.184  0.2632  0.1908  0.1158
 9611W        W24742  11.824   1.796  15.752 -0.0662 -0.1845 -0.0178
 9612W        W24743  10.284   2.846  14.146  0.2468 -0.3183  0.0548
 9613W        W24744  11.223   1.035  14.341  0.0958 -0.1010  0.1640
 9614W        W24745   9.584  11.536  11.181 -0.0980  0.2761  0.0287
 9615W        W24746  16.673   7.749   1.555 -0.0302  0.0192 -0.0673
 9616W        W24747   4.041  10.806   4.640 -0.1035  0.2572  0.0020
 9617W        W24748  10.246   5.108   5.061 -0.1485  0.1268  0.0595
 9618W        W24749  16.368  16.460   2.464 -0.0773  0.1732 -0.1368
 9619W        W24750   3.273  18.649   1.507 -0.0178  0.0267 -0.2486
 9620W        W24751   9.075  15.788  11.954 -0.0615  0.0582  0.0151
 9621W        W24752   3.556   0.864  12.041 -0.1446  0.0895  0.0137
 9622W        W24753   2.590   8.460  14.330  0.0255  0.0241 -0.0132
 9623W        W24754   1.421   3.039  12.478  0.1011  0.2301  0.0351
 9624W        W24755   6.439   6.993   4.415  0.2012  0.1853 -0.0134
 9625W        W24756   3.851   8.121   3.838 -0.0446  0.0820 -0.1358
 9626W        W24757   3.030  16.193  13.367 -0.1468  0.1383  0.1259
 9627W        W24758  16.923  15.598  10.774  0.0586 -0.0217  0.3313
 9628W        W24759   3.630  12.213   4.084 -0.0045  0.0715  0.0250
 9629W        W24760  18.403  11.035  11.113  0.0676 -0.0421  0.0255
 9630W        W24761   3.888  13.578  12.139  0.2628  0.2276  0.1736
 9631W        W24762  11.431  16.731   5.106  0.3115 -0.2251 -0.3999
 9632W        W24763   3.585   4.192   2.052 -0.0931  0.0598  0.1618
 9633W        W24764  16.299   3.857  12.326  0.2844  0.0465  0.0527
 9634W        W24765  14.619   1.315  15.068  0.1500 -0.0357  0.1011
 9635W        W24766   4.788   9.932   4.472  0.1293 -0.1048  0.0242
 9636W        W24767   2.756   1.513  10.265  0.2072 -0.0607 -0.2124
 9637W        W24768  18.625   5.243  10.908  0.0430  0.1437  0.0636
 9638W        W24769   9.159   5.634   3.560 -0.2028  0.0761 -0.1008
 9639W        W24770   6.139   4.867  12.109 -0.0366  0.0222  0.1970
 9640W        W24771  17.809  16.021   0.700 -0.1338 -0.2918 -0.0038
 9641W        W24772   4.704  15.060  11.825 -0.1024  0.2611  0.1506
 9642W        W24773   8.099  10.706  13.934  0.1241  0.0804 -0.0095
 9643W        W24774  16.151   2.917   5.209  0.1014  0.1252 -0.0949
 9644W        W24775  17.291  14.906   3.490 -0.0575 -0.1044 -0.0320
 9645W        W24776   3.798   5.495  13.082 -0.1809  0.2280 -0.1125
 9646W        W24777   5.875  16.274   1.009  0.0698 -0.1485 -0.4276
 9647W        W24778   6.065   6.482   9.880  0.1738 -0.3270 -0.1828
 9648W        W24779   7.719  18.285   0.711 -0.0722 -0.1337  0.1182
 9649W        W24780   0.008   6.121  13.626  0.1967  0.4309 -0.0551
 9650W        W24781   8.098   1.888   4.151 -0.2223 -0.0575  0.0478
 9651W        W24782  18.219  12.470  10.060  0.2254  0.1251 -0.1271
 9652W        W24783   9.040  16.207  12.633 -0.0942 -0.0183 -0.0755
 9653W        W24784   1.605  15.207  11.534  0.1704 -0.0341  0.1777
 9654W        W24785   1.870  13.169   2.301 -0.0876 -0.0387 -0.6792
 9655W        W24786   7.611  17.052   2.566  0.2015 -0.3063 -0.0226
 9656W        W24787  16.513  17.710   3.028 -0.1874 -0.2031  0.2201
 9657W        W24788  11.724  14.851   4.911 -0.0994  0.2873  0.0906
 9658W        W24789  18.510  15.236   2.748 -0.1831 -0.2099 -0.1433
 9659W        W24790  13.236   6.461   2.792  0.0933 -0.0413 -0.2847
 9660W        W24791  17.584  17.026  15.202 -0.0568  0.0209 -0.3934
 9661W        W24792   9.643   7.581   4.615  0.1057  0.2454  0.0228
 9662W        W24793   4.374  11.024  13.938 -0.3101  0.0316 -0.2088
 9663W        W24794  13.153  10.515  11.501  0.1244 -0.0012  0.0184
 9664W        W24795  14.045  14.074  13.975  0.1161 -0.0619 -0.1374
 9665W        W24796   1.987   2.521   1.447  0.2474  0.1476  0.1917
 9666W        W24797   2.553   3.247   5.132  0.0038  0.0614 -0.1194
 9667W        W24798   8.842  12.562   5.490  0.1709  0.0316 -0.0832
 9668W        W24799  12.883  14.431  12.917 -0.0396  0.0727  0.0913
 9669W        W24800   7.178  18.652  10.369 -0.2262 -0.3433 -0.2635
 9670W        W24801  12.658   2.165  11.310 -0.0741  0.2914  0.1367
 9671W        W24802  13.580   4.075   3.578 -0.0940  0.1042  0.0539
 9672W        W24803   9.116  15.159  11.254  0.0298 -0.0039 -0.1420
 9673W        W24804   9.772   6.182  14.641 -0.0819 -0.0548  0.0107
 9674W        W24805   8.756   8.853  12.202  0.0813 -0.0513 -0.3654
 9675W        W24806   8.443   6.152   1.251 -0.0624  0.4057 -0.0666
 9676W        W24807   1.824   6.928  13.518 -0.0876  0.1148  0.0665
 9677W        W24808   4.234  18.371   1.846 -0.1734 -0.1794  0.1727
 9678W        W24809  13.407  10.788  14.190 -0.3348  0.2706  0.1075
 9679W        W24810  18.570   9.934  14.407  0.4569 -0.1520  0.1367
 9680W        W24811  17.570  16.302   5.481  0.0278  0.3163  0.0015
 9681W        W24812   6.203   1.747   2.837 -0.3167 -0.3794 -0.0774
 9682W        W24813  14.074   7.393  14.187 -0.0103  0.0509 -0.3145
 9683W        W24814   4.036   1.393  13.259 -0.2096  0.0179 -0.1307
 9684W        W24815   7.306   7.884  14.795 -0.0127 -0.0559 -0.1087
 9685W        W24816   5.908   0.019   4.281  0.1431 -0.2318  0.2010
 9686W        W24817  11.360  10.926   2.101 -0.2517  0.4952 -0.1691
 9687W        W24818  18.514   6.531  12.644 -0.0164 -0.3233 -0.0008
 9688W        W24819   7.736   8.370  13.661 -0.3357  0.4955 -0.0399
 9689W        W24820   1.992  11.698  14.179 -0.0200 -0.2350 -0.1042
 9690W        W24821  11.612  16.619   0.280  0.1257 -0.0628 -0.1700
 9691W        W24822   6.162   5.421   3.083 -0.0111  0.1529 -0.1063
 9692W        W24823   6.706  14.530   4.354  0.0176  0.2076 -0.1316
 9693W        W24824  13.165  11.872   0.504 -0.1703  0.0239  0.3006
 9694W        W24825   9.575  12.046   5.796 -0.0003  0.2933  0.1806
 9695W        W24826  18.468  10.138   2.132  0.1306  0.1452  0.0524
 9696W        W24827   3.011  10.188   3.692  0.2369 -0.3344  0.1351
 9697W        W24828  16.533  10.566  15.738 -0.0422 -0.2997 -0.0918
 9698W        W24829   0.350  15.519   2.332  0.4078 -0.1066  0.2063
 9699W        W24830   8.218   9.080  13.069  0.2058  0.1297  0.3952
 9700W        W24831  16.160   1.720  15.622  0.0744  0.2787  0.0451
 9701W        W24832  18.174  13.286   0.447  0.0243 -0.0719  0.0433
 9702W        W24833   1.616   2.325  13.225 -0.1885  0.1270  0.1903
 9703W        W24834   7.882   7.221  13.486  0.0833 -0.1254 -0.0216
 9704W        W24835   5.118   4.667  14.661  0.2848 -0.0087 -0.2002
 9705W        W24836   4.215   5.966   3.403  0.0068  0.2871 -0.0593
 9706W        W24837  16.620   7.582  10.766 -0.0999 -0.0400 -0.0517
 9707W        W24838   4.343  12.378   0.658 -0.0441 -0.1061  0.1876
 9708W        W24839  13.548  14.079  13.236 -0.0716 -0.1813  0.1074
 9709W        W24840   5.870  11.912  13.788 -0.0555  0.1054  0.1505
 9710W        W24841   2.063   5.162   0.228 -0.3131  0.1277  0.0402
 9711W        W24842   1.594   0.197  15.028 -0.1865  0.2000  0.2893
 9712W        W24843   2.015   3.731  14.579  0.0468  0.4077  0.3749
 9713W        W24844  14.439  14.106  13.005 -0.1583  0.0902  0.1215
 9714W        W24845   4.237   1.613   1.898  0.2913  0.0365  0.1683
 9715W        W24846   5.684   3.520  13.500  0.1369 -0.1004 -0.0265
 9716W        W24847  10.060   0.316   1.314  0.1041  0.1039 -0.4856
 9717W        W24848   2.502   5.192   1.270  0.0816  0.1453 -0.1006
 9718W        W24849   0.511  13.557   5.054 -0.4641 -0.0667 -0.1813
 9719W        W24850   7.500  15.356  12.757 -0.0844 -0.0956  0.5510
 9720W        W24851  11.103   1.547   2.364 -0.2360 -0.1235 -0.0283
 9721W        W24852  10.429  11.678  15.445 -0.1768 -0.2082  0.1009
 9722W        W24853   1.009   3.821  11.311 -0.0525  0.0196 -0.2240
 9723W        W24854   7.448  13.885   1.081 -0.1605  0.1804 -0.0551
 9724W        W24855   4.822  16.478   4.468  0.0144 -0.0021  0.3755
 9725W        W24856   1.981   5.089   3.164 -0.1860  0.4238  0.4158
 9726W        W24857   3.197  12.393   2.847  0.0852  0.1857 -0.0814
 9727W        W24858  13.995   7.465   2.871  0.0062  0.1655  0.0723
 9728W        W24859   5.140   0.789   2.987  0.3235  0.0841  0.3068
 9729W        W24860  18.166   5.152  13.764 -0.0639 -0.1305  0.2357
 9730W        W24861   1.259  12.060  15.396 -0.0760  0.0959 -0.4179
 9731W        W24862   4.589  15.601   5.101 -0.1649  0.1131  0.1576
 9732W        W24863   4.428  18.547  14.929 -0.4150  0.1457  0.1370
 9733W        W24864  16.689  15.712   5.545  0.0147 -0.2832 -0.3257
 9734W        W24865   7.306  17.036  10.766  0.1657 -0.2681  0.1809
 9735W        W24866   7.545   1.340   2.505  0.2215 -0.1812  0.0265
 9736W        W24867  18.341  16.277  15.042  0.3472 -0.1542  0.0784
 9737W        W24868   9.528   0.867  12.858  0.1106 -0.2791  0.0212
 9738W        W24869  16.398   7.203  12.070  0.1836  0.1316 -0.0861
 9739W        W24870   4.368  14.309   3.457 -0.0556 -0.0434  0.0825
 9740W        W24871  17.818   2.443  13.217  0.5084 -0.0309  0.1486
 9741W        W24872  14.774  15.920   0.236 -0.0020 -0.0958 -0.0100
 9742W        W24873   9.066   3.378  15.344  0.0950 -0.0484  0.0739
 9743W        W24874  17.141   6.232   1.624 -0.1643  0.1616 -0.4550
 9744W        W24875   9.223  14.405  11.417  0.2416 -0.0369  0.3648
 9745W        W24876   2.335  11.720   5.418  0.0733  0.1999  0.3531
 9746W        W24877  10.044   2.289   5.318 -0.1040 -0.0292  0.0771
 9747W        W24878   1.438   7.742  10.416  0.1471  0.1005 -0.1235
 9748W        W24879  10.977  11.374  13.346 -0.2530  0.1007 -0.1465
 9749W        W24880  12.863   8.728  11.196  0.1442  0.1056 -0.0113
 9750W        W24881   4.383   6.162   0.343 -0.1335 -0.1875  0.4843
 9751W        W24882   7.320  11.674  11.668  0.0413  0.0064 -0.0160
 9752W        W24883   6.875  10.813  11.416  0.0487 -0.0900 -0.1085
 9753W        W24884  12.852  11.670  14.976 -0.0347 -0.0703 -0.3026
 9754W        W24885   6.281  17.750   5.103  0.0222 -0.3199 -0.0972
 9755W        W24886   0.131  10.364   2.167  0.0737 -0.1176 -0.0003
 9756W        W24887   4.442  15.640  15.743 -0.2581 -0.0988  0.0147
 9757W        W24888  11.837  11.745   5.678  0.1129  0.1409 -0.0046
 9758W        W24889   4.547  12.575   5.341 -0.1509  0.0759 -0.1250
 9759W        W24890  16.198   3.388  14.089  0.0122 -0.0857 -0.1312
 9760W        W24891  18.379  14.448  15.337 -0.1496  0.0672  0.0159
 9761W        W24892   5.944  10.725  12.386  0.1558  0.4286  0.1678
 9762W        W24893   7.168  13.361   3.335 -0.4170  0.0884 -0.1210
 9763W        W24894   1.641  14.290  15.015  0.0276 -0.0189 -0.3282
 9764W        W24895   9.350   3.682   0.751 -0.2774 -0.2627 -0.0481
 9765W        W24896   0.141   1.600  13.711 -0.0583 -0.0277 -0.2977
 9766W        W24897  18.643  14.290   3.488 -0.2855  0.1041  0.1107
 9767W        W24898  12.757  11.215   2.783  0.2241  0.0973 -0.1956
 9768W        W24899   1.378   0.055   2.591 -0.1732 -0.2352 -0.3923
 9769W        W24900  13.194   4.740   2.335 -0.2912 -0.0575 -0.0126
 9770W        W24901   2.818   7.428  10.772 -0.2244  0.0661 -0.1966
 9771W        W24902   2.475  13.029  13.579  0.1579  0.0226 -0.2718
 9772W        W24903   1.259   5.260  10.874  0.0051 -0.1134  0.0354
 9773W        W24904   8.083   3.700   1.232 -0.4076  0.1477 -0.4536
 9774W        W24905  16.116   9.409   4.824 -0.1571  0.2032 -0.0578
 9775W        W24906   3.285   8.061   3.626  0.0760  0.1934  0.1362
 9776W        W24907   5.254   9.602   0.147  0.0641 -0.0656  0.0148
 9777W        W24908  10.936  12.769  11.941  0.1313  0.1632 -0.3176
 9778W        W24909  17.564  12.686  13.385 -0.0860  0.3551 -0.0472
 9779W        W24910   2.542  13.080  12.823 -0.4504  0.1004  0.0157
 9780W        W24911   9.396   6.636   4.663  0.0798 -0.2418 -0.2404
 9781W        W24912   3.685  15.420   5.744 -0.0573 -0.0298  0.1122
 9782W        W24913   3.918   8.443  11.073  0.1497  0.0371 -0.0404
 9783W        W24914   1.363  14.570   4.170 -0.1892  0.2694 -0.0863
 9784W        W24915   0.046   8.087  14.291  0.0825  0.1818  0.1019
 9785W        W24916   1.922   2.914   1.799  0.2008 -0.2136  0.0878
 9786W        W24917  14.640  12.839   4.320  0.0466  0.2744  0.1453
 9787W        W24918   5.104   1.922   0.240  0.0797  0.0127 -0.0261
 9788W        W24919  12.964  13.424  15.264  0.0984 -0.0256 -0.3100
 9789W        W24920  13.244   3.862   0.439  0.2456 -0.4654  0.2155
 9790W        W24921  13.191  13.503  13.243  0.4318 -0.1590  0.3975
 9791W        W24922  12.235  10.830   0.688 -0.2092 -0.0643 -0.1319
 9792W        W24923   5.308   5.666   1.252  0.2741 -0.0335 -0.2623
 9793W        W24924  10.828  14.933   3.725 -0.1295  0.1253 -0.4895
 9794W        W24925  16.975   0.970  13.329  0.2653 -0.2009  0.0506
 9795W        W24926  14.545  18.496   1.254  0.0364 -0.0741  0.1755
 9796W        W24927  13.210  12.213   1.572  0.2443  0.1670 -0.3155
 9797W        W24928   8.357  14.392  12.551 -0.1173 -0.4310 -0.2002
 9798W        W24929   3.179   4.713  13.383 -0.3861 -0.2822 -0.3373
 9799W        W24930   2.416  14.849   4.379 -0.4705  0.1406 -0.0202
 9800W        W24931   1.251   6.437  13.082 -0.0916 -0.2123 -0.1111
 9801W        W24932   2.195  13.244   3.969  0.3350  0.1331  0.1964
 9802W        W24933   8.767   1.195   1.771  0.0580 -0.4121  0.0336
 9803W        W24934  14.777  10.896  12.437  0.1900 -0.2627 -0.2944
 9804W        W24935   9.125  11.520  15.550  0.1705  0.1143  0.1160
 9805W        W24936  12.431  13.558  12.384 -0.0331  0.0806 -0.0565
 9806W        W24937  12.526   6.452   3.340 -0.0910 -0.0137  0.2714
 9807W        W24938   8.342  15.266   4.051 -0.2807  0.2210 -0.2457
 9808W        W24939   1.647   2.971  14.524 -0.0237 -0.1627  0.2203
 9809W        W24940  11.022   1.007  12.597 -0.1576  0.2037  0.2726
 9810W        W24941   4.513  18.719  12.142  0.2525  0.0130 -0.1813
 9811W        W24942  12.458  16.856   3.465  0.0284 -0.1567 -0.2928
 9812W        W24943   2.634  11.876  10.529  0.0722  0.1558  0.2932
 9813W        W24944  10.627   6.253  13.806  0.1124  0.1470  0.1959
 9814W        W24945  16.001  15.197   9.876 -0.1855  0.0366  0.1731
 9815W        W24946  13.818  12.394   0.851 -0.2308 -0.0488 -0.1137
 9816W        W24947  17.940  10.985   0.577 -0.2594  0.2568 -0.2971
 9817W        W24948  10.936   9.614  14.947 -0.0761 -0.0722  0.3193
 9818W        W24949   8.393   8.585  11.549  0.2814 -0.1924 -0.0920
 9819W        W24950  13.389   8.440   4.024  0.1078 -0.0845 -0.1316
 9820W        W24951   3.232   1.043  14.651 -0.0731  0.0656 -0.2971
 9821W        W24952  12.911   3.165  15.572  0.0541  0.3004  0.1313
 9822W        W24953   8.050  15.215   1.929 -0.1715 -0.2097 -0.0403
 9823W        W24954   7.942   5.383   1.001  0.1125 -0.0332  0.2641
 9824W        W24955  13.582   7.324   2.583  0.0950 -0.5522 -0.0296
 9825W        W24956  18.308   9.674   4.158 -0.0817 -0.1399  0.2351
 9826W        W24957   9.773   7.026   1.861  0.1625  0.1710 -0.1487
 9827W        W24958   1.392  17.638  15.471 -0.0075 -0.2820 -0.0375
 9828W        W24959   7.451  17.110  14.061 -0.1015  0.3435  0.0166
 9829W        W24960   0.036   9.795  13.025 -0.2420  0.1880 -0.1011
 9830W        W24961   2.552   3.351   2.976  0.1517 -0.1234  0.2864
 9831W        W24962   8.970   5.606  11.718 -0.2191  0.1732  0.3268
 9832W        W24963   2.302   3.876   1.054  0.0858 -0.1392  0.4087
 9833W        W24964  14.271   1.040   5.178  0.0549  0.2210  0.2522
 9834W        W24965   3.113   5.193   0.355 -0.1809 -0.4929  0.1596
 9835W        W24966   0.108   1.103   0.195 -0.0875  0.0064  0.0436
 9836W        W24967   0.026   3.633  14.689 -0.0279 -0.3015 -0.0519
 9837W        W24968  14.776   8.909  14.753 -0.0365  0.0869 -0.0763
 9838W        W24969  13.915  12.811  11.258 -0.0751  0.2088 -0.1521
 9839W        W24970   5.258   2.820  13.349 -0.0393 -0.3605  0.0706
 9840W        W24971  18.015   8.011  11.035  0.2784  0.0659  0.0302
 9841W        W24972   2.552   8.385  13.843  0.1893  0.3314  0.0055
 9842W        W24973   3.426   1.518  14.539 -0.1214  0.1860  0.2466
 9843W        W24974  12.036  16.370  11.157 -0.1269  0.1601 -0.2265
 9844W        W24975   1.977  15.740  14.573 -0.0782 -0.0627 -0.3559
 9845W        W24976  12.980   9.726  10.772  0.1399 -0.1296  0.1181
 9846W        W24977  14.969  17.959   2.683 -0.0947 -0.0577  0.1376
 9847W        W24978  13.957  10.043  14.323  0.1097 -0.1101  0.1254
 9848W        W24979   0.491  17.287   0.528  0.1146 -0.1492 -0.1252
 9849W        W24980   6.163  18.328  13.387 -0.1448  0.3601 -0.2262
 9850W        W24981  15.299   1.699   0.306 -0.2471 -0.1847 -0.0981
 9851W        W24982  12.536  14.099  13.118  0.1657  0.1872 -0.1488
 9852W        W24983   5.329   3.920  14.090 -0.1552  0.0268 -0.1345
 9853W        W24984  16.041   3.346   3.087  0.2219  0.1991 -0.0980
 9854W        W24985   3.800  17.890  12.332  0.0491 -0.0598 -0.2380
 9855W        W24986  15.762   0.963  14.919 -0.1025 -0.1124 -0.1278
 9856W        W24987   9.845   6.526   1.275  0.0145 -0.2112 -0.1215
 9857W        W24988  12.640   9.040  13.553  0.2037  0.0583  0.1124
 9858W        W24989  16.309  17.310   5.623  0.0092  0.0630 -0.1390
 9859W        W24990   5.262  13.431  13.239  0.2290  0.2622 -0.1183
 9860W        W24991   0.170   6.740  14.573 -0.0413 -0.3416 -0.2183
 9861W        W24992   8.075   1.776  12.171  0.0170  0.1887 -0.1268
 9862W        W24993   4.757   8.385  10.585 -0.1801 -0.5308  0.0338
 9863W        W24994  11.978   2.644   3.188  0.3629 -0.2513 -0.0858
 9864W        W24995   0.360   3.016   3.379  0.1808  0.0822 -0.2981
 9865W        W24996   2.504   0.484  11.166 -0.0272  0.0931 -0.0128
 9866W        W24997  18.600   7.106   1.179  0.0622 -0.1875 -0.4272
 9867W        W24998  18.701  15.350   3.748  0.0347  0.4072 -0.0592
 9868W        W24999  12.668   1.612   0.126 -0.1303  0.1806  0.3899
 9869W        W25000  12.380   7.743  11.264 -0.0068 -0.3107 -0.2088
 9870W        W25001  17.634   9.966   0.113 -0.1318  0.1050  0.2588
 9871W        W25002   1.891  15.598  11.328 -0.4982 -0.2822  0.1055
 9872W        W25003   2.010  16.819   2.619  0.2249  0.2019 -0.2434
 9873W        W25004   4.408   7.150   2.651 -0.0391 -0.0567  0.0790
 9874W        W25005   1.457  10.859   3.708 -0.1310  0.1877  0.0100
 9875W        W25006  18.373  12.619  12.216 -0.2159 -0.2624  0.0615
 9876W        W25007  16.109   4.889   3.143  0.0657 -0.1614 -0.2767
 9877W        W25008   0.909   4.841  11.371 -0.1798  0.0330  0.1754
 9878W        W25009  14.699   0.243  12.698 -0.2334  0.3913 -0.2900
 9879W        W25010  10.267  17.867  14.719 -0.0249  0.3652 -0.0775
 9880W        W25011   0.272   1.514   4.747 -0.2440 -0.1186  0.0671
 9881W        W25012  10.493   3.583  14.761  0.1833  0.0910 -0.4455
 9882W        W25013   6.767  17.621   0.483  0.3436  0.0748  0.2012
 9883W        W25014   5.323   2.714   2.390 -0.1202 -0.3527  0.0763
 9884W        W25015   8.265   3.225  15.178  0.1147 -0.0703 -0.0690
 9885W        W25016  11.149  18.292   1.454 -0.1142  0.5010  0.0214
 9886W        W25017  17.634   8.881  15.315  0.0868  0.1927 -0.0902
 9887W        W25018   4.525   4.492  14.370 -0.2119  0.2864  0.2577
 9888W        W25019  15.980   4.909   5.720 -0.1673  0.0126  0.2038
 9889W        W25020   2.291   5.612   0.352 -0.0394  0.1616 -0.0127
 9890W        W25021   7.581   0.870   2.726  0.0569 -0.0584 -0.0994
 9891W        W25022   2.246  10.265   0.285  0.0756 -0.0399 -0.3146
 9892W        W25023  11.542   8.515  12.061 -0.1176  0.0578 -0.2255
 9893W        W25024  15.985  17.312  11.505 -0.2461 -0.0944 -0.0201
 9894W        W25025   5.174  15.104  13.603  0.3195  0.1876 -0.1481
 9895W        W25026   4.584   1.775  12.094  0.0461  0.4914 -0.2553
 9896W        W25027   8.557  13.721  11.778 -0.0283 -0.3286  0.1078
 9897W        W25028   2.123   6.360   1.427 -0.0641 -0.1485 -0.0848
 9898W        W25029  15.367   7.810  12.918 -0.0413 -0.4042  0.0265
 9899W        W25030   6.816   6.946  11.478  0.1926 -0.1043 -0.0189
 9900W        W25031   2.365  15.882   0.785 -0.0749  0.0182  0.5469
 9901W        W25032   8.603  14.824   0.305  0.1863 -0.0754  0.4920
 9902W        W25033   3.414   5.189  12.991 -0.2702  0.1059 -0.1251
 9903W        W25034   0.236  15.810   4.423 -0.0602 -0.0610  0.2319
 9904W        W25035  13.378   8.620  13.686 -0.1326  0.0873 -0.1369
 9905W        W25036  15.601  10.576  10.964 -0.0989 -0.0668  0.0483
 9906W        W25037   8.186  12.492  14.985 -0.2821  0.0979 -0.0289
 9907W        W25038  17.575   9.474   1.579 -0.0533 -0.2302 -0.0703
 9908W        W25039   6.937   2.818   0.670 -0.1501 -0.1306 -0.1142
 9909W        W25040  12.399  15.541  14.055 -0.0973  0.1049  0.0095
 9910W        W25041  11.331   2.388   0.201  0.2829  0.0879  0.1979
 9911W        W25042   1.880  11.258  11.552  0.0578 -0.0177  0.0971
 9912W        W25043   7.440   8.660  12.074  0.0603 -0.1513  0.0668
 9913W        W25044  10.366   0.193   2.688  0.0162  0.0470 -0.0230
 9914W        W25045  10.328  16.104   0.068  0.3118  0.0648 -0.2638
 9915W        W25046   6.610   4.558   1.733 -0.0670 -0.0094  0.2779
 9916W        W25047  13.983  11.851  12.380 -0.1668 -0.1285  0.0420
 9917W        W25048   0.138   8.132  13.737 -0.0053  0.5651  0.0791
 9918W        W25049  11.934   9.847   6.721  0.2292 -0.1649 -0.0308
 9919W        W25050  13.879   9.374  10.806 -0.0598  0.2770 -0.0127
 9920W        W25051   2.130  12.332   2.168 -0.4506  0.0947  0.1840
 9921W        W25052  11.408  16.538  13.053 -0.1005 -0.6021  0.4640
 9922W        W25053  13.305   7.748   2.849  0.2256  0.1644  0.2248
 9923W        W25054   0.464   2.974   2.001  0.1048  0.0941 -0.0558
 9924W        W25055  15.207   7.996  14.290  0.2133  0.1066  0.1371
 9925W        W25056  12.310  17.774   5.605  0.0158  0.0845  0.0865
 9926W        W25057  11.788   5.539   3.387 -0.1413 -0.2181  0.2392
 9927W        W25058   3.763  11.708  11.246 -0.2319  0.0804  0.0677
 9928W        W25059  11.240   8.438   0.351 -0.1185 -0.0367 -0.1402
 9929W        W25060   0.141  14.145   0.841 -0.2209 -0.1346  0.3044
 9930W        W25061   1.733  14.273  14.516  0.0990 -0.1115 -0.0578
 9931W        W25062  16.203  16.275   0.231  0.0694 -0.0196  0.2960
 9932W        W25063   0.052  12.388   2.939 -0.2891  0.0630  0.1189
 9933W        W25064  16.216  12.203  12.641  0.4264 -0.2740 -0.2423
 9934W        W25065   5.389   8.232  15.509 -0.2400 -0.0666  0.2741
 9935W        W25066  13.505   4.236  12.195 -0.0239  0.2558 -0.0655
 9936W        W25067   3.229   4.893   3.841 -0.3207  0.0367  0.1181
 9937W        W25068  17.819   3.211   5.918 -0.0095 -0.0564  0.1693
 9938W        W25069  16.734   7.929  13.896 -0.0791 -0.2851  0.0107
 9939W        W25070  14.113   8.637  14.027  0.0612 -0.4580 -0.4264
 9940W        W25071   9.423   7.778  14.870  0.0006 -0.0506 -0.1025
 9941W        W25072   7.091   1.002  10.171 -0.0897 -0.1242 -0.4166
 9942W        W25073   1.013   6.023   1.094  0.1591  0.1678 -0.0581
 9943W        W25074   6.614   0.407  10.879  0.0677 -0.0242 -0.2110
 9944W        W25075   4.103   6.942  15.672  0.0116 -0.2345  0.0393
 9945W        W25076  18.553  17.192   4.060 -0.1947  0.0136 -0.2465
 9946W        W25077   3.988   0.853  10.883  0.1476 -0.1631  0.0379
 9947W        W25078  17.131  10.238   4.685  0.0364 -0.0661 -0.0110
 9948W        W25079   4.667   2.649   5.114 -0.0666  0.0605 -0.1818
 9949W        W25080   8.020   5.680   0.484  0.0476  0.0587  0.0058
 9950W        W25081   0.543   1.620  14.488 -0.2728  0.0119 -0.0296
 9951W        W25082   8.011  18.328  10.336 -0.0560 -0.1462 -0.3907
 9952W        W25083  14.218   0.861   4.730 -0.0454  0.1400 -0.1553
 9953W        W25084  11.155  13.165  12.810  0.1893 -0.1242  0.0182
 9954W        W25085   5.229  16.188   4.413  0.6483 -0.3374  0.0850
 9955W        W25086  10.435   1.391  11.875 -0.0088  0.0409  0.2358
 9956W        W25087   1.535  17.488   3.945  0.1382  0.0395 -0.0768
 9957W        W25088  11.113   2.259   3.198 -0.2556  0.0380  0.0858
 9958W        W25089   5.223   9.124   0.863 -0.0004 -0.3868 -0.0029
 9959W        W25090   4.569   8.938   3.941  0.1217  0.0341  0.1788
 9960W        W25091   8.479  15.067   1.076 -0.3423  0.0080 -0.0955
 9961W        W25092   1.300  11.850   5.956  0.1138  0.1040 -0.1477
 9962W        W25093  17.959  12.731   1.129 -0.0566  0.2439 -0.2872
 9963W        W25094   2.359   1.894   0.762 -0.1704  0.0007  0.2035
 9964W        W25095   3.601   9.646  11.917 -0.0830 -0.2478 -0.2674
 9965W        W25096  18.636   4.636   2.686  0.0668 -0.2427 -0.2922
 9966W        W25097  13.574  18.566  13.070  0.1863  0.0702  0.1006
 9967W        W25098   7.074   3.273   1.996 -0.2273 -0.0143 -0.3265
 9968W        W25099   8.447   1.177   4.886 -0.0648 -0.2718 -0.0300
 9969W        W25100   2.370  14.159  13.873  0.1775  0.2052 -0.1838
 9970W        W25101  12.056   6.996  11.567  0.1202 -0.0469  0.1901
 9971W        W25102   7.497   4.153   4.448  0.3453 -0.0560 -0.1308
 9972W        W25103  11.575   6.140   5.794 -0.3008 -0.1275 -0.3032
 9973W        W25104  11.368  10.860   5.815  0.0421 -0.1166  0.2939
 9974W        W25105  16.448  15.014   1.778 -0.0442  0.2848 -0.0523
 9975W        W25106   2.749   6.165   2.555 -0.0683  0.2388  0.1284
 9976W        W25107   2.009  11.119  14.160  0.0188  0.0517 -0.0102
 9977W        W25108   7.436  14.239   2.036  0.2139 -0.0141  0.0038
 9978W        W25109  15.158  16.269   4.811 -0.1254 -0.0842  0.0808
 9979W        W25110   2.755  12.804  10.844  0.1273  0.1631  0.1454
 9980W        W25111  15.245  12.961   5.002 -0.0299 -0.0615 -0.4595
 9981W        W25112   8.113   0.732  15.073 -0.0111  0.1745 -0.2780
 9982W        W25113   2.952   7.935  13.067  0.0633 -0.0729  0.3635
 9983W        W25114   0.693  15.686  14.561 -0.2180 -0.1392  0.2970
 9984W        W25115   1.711   6.178   0.359  0.1365 -0.2663 -0.0855
 9985W        W25116  10.688   2.596  15.364 -0.2320  0.0697  0.0497
 9986W        W25117  18.153  13.056   2.979  0.1130  0.0588 -0.0019
 9987W        W25118   0.229   6.228  14.679  0.1808 -0.2700  0.0749
 9988W        W25119   5.120  16.483  14.084  0.2501 -0.4019  0.0828
 9989W        W25120  15.130  17.556  12.363 -0.1284  0.0938  0.0709
 9990W        W25121  13.704  14.609   0.807 -0.4383 -0.2246  0.0250
 9991W        W25122   2.254  11.528  12.126  0.1408  0.0082 -0.1516
 9992W        W25123   7.771   1.798   1.019  0.0427 -0.2954  0.4342
 9993W        W25124   2.191   3.907  11.651  0.1235  0.0245  0.1876
 9994W        W25125  11.125  14.798  11.512  0.0200  0.4524  0.0815
 9995W        W25126   7.133   2.978  13.920 -0.3094 -0.2265 -0.0255
 9996W        W25127   8.244   1.306   0.310 -0.2210 -0.1207 -0.0560
 9997W        W25128   9.683   2.765  10.781  0.1759 -0.3104  0.1423
 9998W        W25129  17.705   2.329   5.453 -0.0273 -0.2404 -0.0930
 9999W        W25130   3.869   5.691  14.802  0.0512 -0.0760 -0.1637
10000W        W25131   6.578  16.596   3.812  0.3566  0.0581  0.1676
10001W        W25132  13.557   3.751  14.701  0.0712  0.4762 -0.1601
10002W        W25133  12.494   7.681  12.969 -0.1002 -0.0386 -0.4373
10003W        W25134   3.742  18.584  11.506 -0.0181  0.1624 -0.1581
10004W        W25135   0.722   0.015   0.815  0.0100 -0.1617 -0.0989
10005W        W25136   9.789   5.239   1.957  0.1088  0.0223  0.1065
10006W        W25137   5.863  14.367   4.123  0.0021 -0.6978  0.1585
10007W        W25138  12.849  16.412  10.570 -0.1113 -0.2071 -0.2165
10008W        W25139   0.704  16.768  10.234  0.3015 -0.0997 -0.1491
10009W        W25140  11.149  17.182  10.930  0.3345 -0.1226 -0.1782
10010W        W25141   0.062   1.991  11.801  0.2515  0.0720 -0.4431
10011W        W25142   4.039  12.150   2.810  0.3509 -0.2172  0.0290
10012W        W25143  10.609   4.361   1.510  0.2150  0.1800 -0.2135
10013W        W25144  16.595   2.979   2.288 -0.1948  0.3376 -0.1938
10014W        W25145  18.722  17.841  14.786 -0.1734  0.1013 -0.1615
10015W        W25146  11.143  16.972   3.829 -0.2399 -0.1252 -0.3424
10016W        W25147  17.443  13.113   3.264  0.3099  0.0649 -0.3505
10017W        W25148  13.581  18.428  12.607  0.1363 -0.1903 -0.0720
10018W        W25149   2.412   1.775  15.653 -0.2097 -0.0043  0.1628
10019W        W25150  11.982   3.364  11.922 -0.2203 -0.0237  0.4270
10020W        W25151  13.843  17.561   0.066  0.1547  0.4056  0.1058
10021W        W25152   0.045   4.519  13.552 -0.1971  0.0888 -0.0076
10022W        W25153   5.032  16.969  13.920  0.4890 -0.1195  0.4276
10023W        W25154  16.996   3.092  11.602 -0.2396 -0.1233  0.0192
10024W        W25155   4.199  13.706   0.787 -0.4180  0.4527 -0.2490
10025W        W25156  18.139   1.279   4.187  0.2838 -0.0090 -0.2474
10026W        W25157  10.879   6.837  10.027 -0.0373  0.1888  0.2679
10027W        W25158  18.214  18.523   1.245  0.1195 -0.0001 -0.1127
10028W        W25159   3.735  13.898   0.904 -0.2244  0.1434  0.1568
10029W        W25160  14.127   6.896   5.069 -0.1349  0.1528 -0.1074
10030W        W25161   9.177   9.897   2.223 -0.0038 -0.3133  0.1249
10031W        W25162   6.830  11.527   3.937 -0.3685 -0.0568 -0.3142
10032W        W25163   5.283  16.872   0.477  0.3349 -0.2904 -0.5066
10033W        W25164   0.624   9.974   2.210  0.3845  0.1097  0.0060
10034W        W25165  14.424  16.567   3.143  0.0635  0.0488 -0.2752
10035W        W25166  17.591  16.814  12.006 -0.1518 -0.0508  0.2117
10036W        W25167  16.419   9.166   5.497  0.4389  0.2049 -0.2714
10037W        W25168   2.664   7.760  11.810 -0.0308  0.0757  0.1619
10038W        W25169  10.460  13.895  12.632  0.1989  0.0327  0.2465
10039W        W25170   2.773   2.480   2.213  0.0279  0.0446 -0.1941
10040W        W25171   8.537   3.631  12.891  0.2145 -0.2384  0.0293
10041W        W25172  14.672  16.439   2.682 -0.0865 -0.1836 -0.0057
10042W        W25173  17.744  15.113  13.487  0.0821 -0.1059 -0.1629
10043W        W25174  12.544  17.893   5.203 -0.1672 -0.0652  0.0892
10044W        W25175  17.664   3.938   1.034 -0.0578  0.1011 -0.0573
10045W        W25176   9.724   3.241  10.502 -0.2027 -0.0757 -0.1075
10046W        W25177   7.542  13.189   2.528  0.3382 -0.2617  0.1436
10047W        W25178  18.680  14.928   1.154  0.0429 -0.1641  0.0329
10048W        W25179   9.900   4.912   4.723 -0.1540 -0.2178  0.3549
10049W        W25180  10.421   9.853   0.892 -0.1593 -0.3702 -0.0855
10050W        W25181  13.253  10.919  13.518  0.1378  0.1790 -0.1495
10051W        W25182   4.987   9.678   4.876 -0.2894 -0.1630 -0.2161
10052W        W25183   3.154  15.665   5.255  0.1964  0.1822  0.1316
10053W        W25184  12.041   7.815   0.613 -0.2145 -0.3150 -0.1449
10054W        W25185  13.226   2.541  11.921 -0.2590 -0.1312  0.2769
10055W        W25186  11.783  18.023   1.403  0.1739 -0.1801  0.0827
10056W        W25187   9.050  17.220   0.610  0.1707  0.0557 -0.3256
10057W        W25188   2.236   2.135  11.410  0.2095 -0.2608  0.0180
10058W        W25189   9.588  12.084   4.078 -0.4966 -0.1986  0.1899
10059W        W25190   9.679   9.521  11.876  0.1245  0.0860  0.2022
10060W        W25191  15.573   5.234   9.648 -0.1407 -0.1232  0.1303
10061W        W25192  18.331  12.776  15.214  0.2003 -0.1384 -0.0387
10062W        W25193   1.902  14.659   4.401  0.1071 -0.1555 -0.3628
10063W        W25194   8.614   9.327   4.860  0.0514 -0.3525 -0.2041
10064W        W25195  17.246  12.307  15.587  0.2728 -0.1106 -0.1207
10065W        W25196   0.109   7.684  13.998 -0.3592  0.0416 -0.0701
10066W        W25197   0.907  14.054  11.701 -0.1135 -0.1289  0.3571
10067W        W25198   3.478   6.102   3.785 -0.3698  0.1850  0.1428
10068W        W25199   6.753   3.209   3.389 -0.2418  0.3191 -0.0989
10069W        W25200  10.441   8.292  15.571 -0.0755 -0.2707  0.2587
10070W        W25201   8.659  17.721  10.798 -0.3573  0.2428 -0.0864
10071W        W25202  15.498   3.026   3.917 -0.3045 -0.2816  0.0207
10072W        W25203  15.748  17.543  13.700 -0.0130 -0.0036  0.0535
10073W        W25204   2.390   7.082  13.506  0.0603  0.1188  0.0949
10074W        W25205   5.745   8.140  13.064  0.0765 -0.1738  0.1790
10075W        W25206  12.625  16.017  10.894 -0.0305  0.1423  0.0794
10076W        W25207  14.250   4.124  12.679 -0.0726  0.2629 -0.2215
10077W        W25208  10.230   4.319  10.813  0.2880  0.1922 -0.0876
10078W        W25209   7.059   5.283  10.648  0.0632 -0.1358  0.0907
10079W        W25210  18.028   7.231  14.334 -0.1405 -0.0995 -0.3349
10080W        W25211  17.307  17.289   4.458  0.0417 -0.2919  0.3000
10081W        W25212  14.335   8.311  13.731  0.0155  0.1024 -0.1428
10082W        W25213   5.968   1.306  12.156 -0.2405  0.1417 -0.0415
10083W        W25214   4.291   1.411   3.880 -0.0384  0.1640 -0.0140
10084W        W25215   2.437   8.242   2.231  0.1274 -0.0449  0.0164
10085W        W25216  17.602   2.877  14.947  0.0797 -0.0459 -0.0750
10086W        W25217   8.367   9.643  11.108  0.4127 -0.0328  0.0494
10087W        W25218  11.254  10.365  14.805  0.3698 -0.1208 -0.1528
10088W        W25219   8.973   3.837   1.641 -0.1597  0.3995  0.0161
10089W        W25220   7.023  17.088  15.749 -0.1032 -0.4430  0.1250
10090W        W25221   7.766   4.608   4.454  0.0074  0.1999  0.0706
10091W        W25222   5.402   6.790  10.744  0.0057  0.2477 -0.1709
10092W        W25223  11.338  16.666  13.657 -0.0451  0.1984  0.1750
10093W        W25224  14.888   4.632  12.901 -0.1867  0.2123  0.2706
10094W        W25225   6.312  10.502   4.579  0.3223  0.2389  0.0729
10095W        W25226   5.406   5.790  11.720 -0.0696 -0.4400 -0.3353
10096W        W25227  16.424   1.976   1.533 -0.1408 -0.1593  0.0109
10097W        W25228   7.580   6.139  14.171  0.2544 -0.3332  0.0072
10098W        W25229   4.482  13.480  12.535 -0.1005  0.0078 -0.1893
10099W        W25230   8.589   9.869  12.053  0.3268  0.0360 -0.1944
10100W        W25231   5.036   7.372  12.994  0.0113  0.1499  0.0731
10101W        W25232  18.043   2.236   5.050 -0.0158  0.0804  0.0502
10102W        W25233   3.604   6.928  10.717 -0.2351 -0.0813  0.1587
10103W        W25234  17.754   3.115  15.478 -0.2854 -0.1393 -0.2240
10104W        W25235   2.093   0.092   0.711  0.0736 -0.0124 -0.0480
10105W        W25236  18.284   9.220   3.916  0.1273  0.0632  0.1771
10106W        W25237   5.897   5.451   3.636 -0.1828 -0.0090 -0.1936
10107W        W25238  14.675   9.598  13.940 -0.1678  0.1484 -0.0620
10108W        W25239   3.845   5.082   4.727  0.1641 -0.0912 -0.0428
10109W        W25240  17.279   9.301  12.913 -0.1030  0.0001  0.0644
10110W        W25241  17.927   1.390  13.427 -0.0178 -0.0268  0.0679
10111W        W25242  16.870   4.201  15.609 -0.4809 -0.0739 -0.0086
10112W        W25243  18.489  13.463  12.897 -0.1439 -0.1026 -0.2173
10113W        W25244   8.601   9.313  15.184 -0.2831  0.0465 -0.6156
10114W        W25245   6.460  17.196   9.844 -0.0354 -0.1506 -0.1878
10115W        W25246   8.173  18.472   0.717 -0.0292  0.1193 -0.0645
10116W        W25247   1.656  11.050  11.012  0.1279 -0.1189  0.0041
10117W        W25248   6.725  16.237   1.580 -0.0410 -0.0947  0.2396
10118W        W25249  17.399  13.568  14.960  0.0630 -0.1812 -0.0344
10119W        W25250  18.297  18.500  12.348  0.3860 -0.1357  0.4483
10120W        W25251   9.979   7.000   3.887  0.2080  0.1094 -0.0933
10121W        W25252  16.498   8.625  13.916 -0.2001  0.2077 -0.2773
10122W        W25253   8.960  14.935  15.019  0.3118 -0.1413 -0.0695
10123W        W25254  17.447   0.945   4.621 -0.3617  0.1581 -0.0342
10124W        W25255   3.323  18.210  13.387  0.2225  0.1689 -0.3895
10125W        W25256   1.527  14.355   6.127  0.0104 -0.1813  0.0680
10126W        W25257  17.530   5.827   1.479  0.0138 -0.0358  0.2067
10127W        W25258   3.671   7.396  10.531  0.1118 -0.0660 -0.2003
10128W        W25259  14.555   8.914  11.791 -0.1528  0.0133 -0.3344
10129W        W25260   6.495  18.370  12.970  0.0954 -0.1843  0.0796
10130W        W25261  17.153   7.546   1.753  0.1410  0.2318 -0.1896
10131W        W25262   9.991   1.668   2.699  0.2733  0.0984 -0.2477
10132W        W25263   9.585  14.044   3.533 -0.0453  0.4204 -0.4301
10133W        W25264   8.979  12.350  13.538 -0.0607  0.0562 -0.1925
10134W        W25265   9.855  16.097   3.649 -0.2734  0.1544  0.1936
10135W        W25266  13.634  11.045  14.948 -0.2003  0.0725 -0.2255
10136W        W25267   4.746  17.971   1.603  0.0288  0.0473  0.1125
10137W        W25268  11.524  16.597   2.313  0.2163 -0.0827 -0.0172
10138W        W25269  17.434  13.420   4.230 -0.1391  0.1504 -0.0544
10139W        W25270  10.770   9.332   5.095  0.2014  0.1115  0.2904
10140W        W25271  16.624  11.907   3.264  0.0858 -0.2076 -0.1845
10141W        W25272  12.436   4.102  14.001  0.1791 -0.0688  0.2463
10142W        W25273   3.431  15.212  12.412 -0.1551  0.1698  0.1257
10143W        W25274  15.985   6.340   1.205 -0.2746 -0.2836 -0.2039
10144W        W25275  12.814  14.739  15.693  0.3163  0.0294  0.0831
10145W        W25276   1.649  13.575   4.940 -0.0176  0.0511  0.0903
10146W        W25277   4.470   3.017   2.442  0.2455 -0.0453 -0.3033
10147W        W25278   6.798  15.096   4.966  0.0528 -0.0117  0.1878
10148W        W25279   7.967   0.640  10.481  0.1315  0.0833 -0.2953
10149W        W25280  17.253   3.493   1.025  0.0287  0.0583 -0.2548
10150W        W25281  12.249  14.010  12.463  0.2280 -0.1882  0.0260
10151W        W25282  14.084   2.733  15.455 -0.1615  0.1312  0.0472
10152W        W25283  11.863   2.271   0.191  0.1023  0.0970  0.0334
10153W        W25284  17.253   6.375   9.769  0.4835 -0.2320  0.2095
10154W        W25285   7.381   8.427  14.718  0.1315 -0.0631 -0.1912
10155W        W25286   3.142  10.851   9.661  0.0656 -0.0145 -0.3644
10156W        W25287  14.852  14.189  15.225 -0.0508 -0.3170 -0.2068
10157W        W25288  12.056  15.621   1.370 -0.0370  0.0301 -0.0016
10158W        W25289   1.036  12.170   3.757  0.1252  0.0212  0.0739
10159W        W25290   0.093  12.352   0.182 -0.1755  0.1938 -0.2299
10160W        W25291   4.731   2.769  12.554  0.1079  0.1753 -0.2041
10161W        W25292  17.025  14.425   5.271  0.0608 -0.0036  0.2195
10162W        W25293  12.869  12.555   4.225 -0.0290  0.1612  0.3489
10163W        W25294  13.310   3.205   1.186  0.1712  0.2431  0.0993
10164W        W25295  17.428  12.162   4.762  0.2267  0.1102  0.4977
10165W        W25296   4.218  18.723   3.248 -0.1035 -0.2637 -0.1936
10166W        W25297  15.785  15.982   2.477 -0.3622 -0.0579 -0.0186
10167W        W25298   9.528   1.682  10.872  0.1314  0.2299  0.3580
10168W        W25299   4.777   2.678  10.924 -0.1438  0.1235  0.0318
10169W        W25300   3.246  12.852  13.696 -0.2917  0.1496  0.3220
10170W        W25301   9.098   7.833   2.776 -0.0708  0.2042 -0.1266
10171W        W25302  13.161  14.902  10.981 -0.3212 -0.0887  0.3317
10172W        W25303  18.005  14.879  13.120  0.6871 -0.1142  0.0197
10173W        W25304  16.892  18.347   2.881  0.2737 -0.1944 -0.3281
10174W        W25305   0.358  13.629   4.205  0.0458  0.1334  0.0228
10175W        W25306   1.555   5.356  14.238  0.0209 -0.0698 -0.2131
10176W        W25307   2.459  11.404   0.077  0.2563  0.1028 -0.1310
10177W        W25308   6.405   3.206  14.579  0.0753 -0.2966  0.3005
10178W        W25309   8.928  14.306  14.369  0.1810 -0.2326  0.0995
10179W        W25310   5.827   4.020  12.327 -0.0196 -0.0681 -0.2401
10180W        W25311  12.864   9.102   4.314 -0.0151 -0.1916 -0.0858
10181W        W25312   8.843   0.579  14.587 -0.3780  0.1790  0.2132
10182W        W25313   8.953  18.010   9.839 -0.0908  0.4929 -0.1973
10183W        W25314  16.268  13.203   1.698  0.0478 -0.1625  0.0528
10184W        W25315  16.691   9.295   0.937  0.0769 -0.2644 -0.1987
10185W        W25316   9.724   9.386  12.962  0.0188  0.2850 -0.1042
10186W        W25317   8.711   0.870  10.928 -0.0799 -0.3950 -0.1010
10187W        W25318  17.035  13.634  13.262 -0.0591  0.3892  0.0500
10188W        W25319   0.856   5.627  13.420  0.1585 -0.0581  0.0441
10189W        W25320  13.646  11.338   0.373  0.2502  0.0488 -0.2144
10190W        W25321   4.093   2.247   1.770  0.3955  0.1221  0.0127
10191W        W25322   3.116  17.613   5.325 -0.0794  0.4185 -0.0584
10192W        W25323   2.498   8.742   4.949  0.1730 -0.2701 -0.1204
10193W        W25324  14.973   1.626   2.983  0.0705  0.0349  0.0971
10194W        W25325   9.662   9.069  13.443 -0.1801 -0.2430  0.1966
10195W        W25326   2.701   2.850  15.696  0.0159  0.1819  0.0921
10196W        W25327  12.467  13.368  15.130 -0.0607  0.0735  0.1534
10197W        W25328   2.392   7.853   4.433  0.2895  0.0047  0.2196
10198W        W25329  10.306   2.821  13.062 -0.0585  0.0677  0.2913
10199W        W25330  12.556  17.009  11.900  0.1490 -0.0762  0.2054
10200W        W25331   3.298  11.403   4.991  0.0106 -0.0261 -0.0750
10201W        W25332  14.261  15.286   3.756 -0.1868  0.1896  0.1604
10202W        W25333   1.821   1.305  13.897  0.2346 -0.0371  0.0737
10203W        W25334  12.871  13.675  14.184  0.0978 -0.4533 -0.1810
10204W        W25335   7.973   1.892   4.935  0.1782 -0.0631 -0.4592
10205W        W25336   9.037  12.818  11.841 -0.4749 -0.1545  0.3488
10206W        W25337   6.651   7.230   5.380 -0.0290  0.4021 -0.0783
10207W        W25338   1.341  13.254  14.701  0.0019  0.1349  0.2930
10208W        W25339  11.684   7.709   2.408  0.0222  0.0597 -0.0512
10209W        W25340  13.684  12.588  11.620  0.1198  0.0499 -0.1531
10210W        W25341  13.168  10.148   3.741 -0.2749  0.0793  0.1519
10211W        W25342  12.678  13.571   4.077 -0.1803 -0.1748  0.0340
10212W        W25343  17.089   7.091  15.647 -0.2012  0.4605  0.0894
10213W        W25344  12.872   2.615  14.183 -0.2525 -0.1434 -0.0987
10214W        W25345  10.213   2.384   4.521  0.0045  0.2507  0.1691
10215W        W25346   0.844   4.306   2.420 -0.0576 -0.2436 -0.0675
10216W        W25347   0.582  13.900  15.759 -0.0193  0.1059 -0.2534
10217W        W25348  10.498   0.079  10.716 -0.4790  0.0850  0.1635
10218W        W25349  10.855  14.469  15.731 -0.1064 -0.2415 -0.1277
10219W        W25350  15.696   2.027  11.011  0.1340  0.1073 -0.0369
10220W        W25351  14.471   7.760  15.685  0.3256 -0.4546 -0.2749
10221W        W25352  14.634   6.107   4.005  0.0860 -0.0963 -0.0774
10222W        W25353   6.259  13.958   0.802  0.0826 -0.0255  0.0615
10223W        W25354   1.752   3.188  15.762  0.0026 -0.0334 -0.1207
10224W        W25355  12.139   6.267   2.144  0.1585 -0.1452 -0.0185
10225W        W25356   2.223   5.548   3.972 -0.1473  0.0136 -0.1027
10226W        W25357   0.002  17.588  11.347 -0.0687  0.1029 -0.0607
10227W        W25358  18.282  13.037  13.948 -0.0761 -0.0667 -0.2720
10228W        W25359  13.092   2.812   1.377  0.0718 -0.1592 -0.1472
10229W        W25360   0.849  13.553  11.957  0.4144  0.0125  0.3156
10230W        W25361  10.618   9.124   5.491 -0.1240 -0.0681  0.1388
10231W        W25362  12.035   1.107   5.458  0.2425 -0.0353  0.3145
10232W        W25363  13.010   3.293  11.342 -0.0254  0.3050 -0.0822
10233W        W25364   5.466   8.560  13.324 -0.1206  0.2891  0.3022
10234W        W25365   3.253  10.777   5.058 -0.0414  0.2213  0.0939
10235W        W25366   0.354   0.322  15.551 -0.1749 -0.0549 -0.1361
10236W        W25367   0.291  14.429  10.988 -0.1470  0.1334 -0.0864
10237W        W25368  13.227   5.823  15.641 -0.0887  0.1984  0.1545
10238W        W25369   0.768   1.408   0.747  0.0511 -0.3490 -0.1236
10239W        W25370   9.448  12.834  11.468 -0.0151 -0.2772  0.1914
10240W        W25371   1.271   0.765   1.869  0.1163  0.1553  0.1525
10241W        W25372  16.878  13.942   3.924 -0.0498  0.1898  0.0308
10242W        W25373   4.278  11.460  13.108  0.1488  0.0804  0.4239
10243W        W25374  16.415  14.187  11.125 -0.0504  0.0474  0.0097
10244W        W25375  11.795   7.181   4.273  0.2196  0.0709  0.1896
10245W        W25376  13.004   9.731   5.834 -0.0004 -0.3001 -0.0072
10246W        W25377   4.278   2.141  12.967  0.1008 -0.0205 -0.1541
10247W        W25378   9.931  10.909  14.943  0.1741 -0.0745 -0.1752
10248W        W25379  14.171  10.518   2.983  0.1838 -0.0559 -0.0738
10249W        W25380  16.286  14.248  14.970  0.1959 -0.2952 -0.1338
10250W        W25381   5.224  12.773  12.438 -0.1058  0.3198  0.0274
10251W        W25382  18.209  14.220   4.414 -0.0784 -0.1326 -0.2100
10252W        W25383  15.710   7.066  13.996 -0.1317  0.0658 -0.1323
10253W        W25384   1.433   9.052   9.403 -0.1173  0.0285 -0.2343
10254W        W25385   2.369   6.763   5.274 -0.0329  0.1298  0.3449
10255W        W25386  11.015  18.115  10.708 -0.0441 -0.0127  0.2357
10256W        W25387  11.476   7.631   3.424  0.1353  0.2607 -0.0884
10257W        W25388  10.588   4.009   2.708 -0.1837 -0.1604 -0.0083
10258W        W25389   3.973   6.022  13.416 -0.0690 -0.1192 -0.2072
10259W        W25390  15.278  12.973   1.543  0.2395 -0.2643  0.3555
10260W        W25391  17.456  15.173   2.496  0.0805  0.0160  0.3227
10261W        W25392  16.490  10.150  14.015 -0.0815  0.6976  0.0562
10262W        W25393   2.114   6.972   3.759 -0.2211 -0.1409 -0.0053
10263W        W25394  14.418   5.710   4.592  0.0564  0.2921  0.1376
10264W        W25395   0.847  13.282  13.895  0.2596 -0.1927  0.2018
10265W        W25396   6.125  18.597   1.733  0.2037  0.0638 -0.1402
10266W        W25397   8.524   9.761   0.385 -0.1558  0.0163  0.1791
10267W        W25398   0.226  10.325   3.977  0.4151  0.0846  0.1469
10268W        W25399   7.188   2.128  11.681 -0.0831  0.2217  0.2042
10269W        W25400   9.101   4.689   1.434  0.0571  0.0386  0.2555
10270W        W25401   9.216   0.182  13.785 -0.1407  0.3045 -0.1966
10271W        W25402  12.123  13.626   5.423  0.0291  0.0940  0.2046
10272W        W25403  18.153   4.226   1.854  0.1255  0.4670  0.3306
10273W        W25404  11.491  12.386   1.015  0.1530 -0.0658 -0.1386
10274W        W25405  10.645   7.618  11.315 -0.2889 -0.3726 -0.1796
10275W        W25406   3.907   5.761   3.774  0.1724 -0.0832 -0.4232
10276W        W25407   1.249  17.366   0.131 -0.1346  0.0061  0.1196
10277W        W25408   1.713   3.453   2.963  0.2852 -0.5612  0.0935
10278W        W25409   1.373   2.732   0.845  0.2036 -0.1931  0.0233
10279W        W25410  15.568   3.969  10.408 -0.1413 -0.1158 -0.4948
10280W        W25411   7.119   1.443  12.323  0.1851  0.2182  0.0807
10281W        W25412   2.919  12.326   1.770 -0.2366 -0.1645 -0.1286
10282W        W25413   4.583  14.108   0.771 -0.0142  0.0555 -0.0416
10283W        W25414   2.046   1.565   1.797 -0.2513  0.0063  0.1243
10284W        W25415  16.490   2.900   4.183  0.2574 -0.3135  0.2649
10285W        W25416  13.114  13.818   4.492 -0.2063  0.0399 -0.1834
10286W        W25417   0.259  14.466   3.977 -0.0150  0.0851  0.0767
10287W        W25418   1.192   4.228   3.107 -0.0218  0.1668 -0.3904
10288W        W25419   9.511   5.532  12.034  0.0914 -0.1247 -0.1084
10289W        W25420   1.411  14.818  10.716  0.1842  0.0586  0.1133
10290W        W25421  12.134   0.612   1.278  0.1394  0.0651  0.1611
10291W        W25422   5.313  16.705  10.052  0.0810 -0.0109  0.2299
10292W        W25423   1.453   6.669  15.628 -0.1102 -0.0409  0.0670
10293W        W25424   6.621   8.364   2.780 -0.0244 -0.0457 -0.2207
10294W        W25425  13.461  17.352   3.451 -0.3785 -0.2313  0.0211
10295W        W25426   1.974   1.174  10.060  0.2495  0.3217  0.1244
10296W        W25427   3.990  13.576   2.867 -0.0599 -0.0623  0.1688
10297W        W25428  15.299  10.380   1.626  0.0880 -0.2078 -0.1322
10298W        W25429   1.053   9.752   2.108 -0.3841 -0.0444  0.3573
10299W        W25430   5.106  10.727   4.225 -0.0457  0.0713 -0.2567
10300W        W25431  17.281  10.074  14.557  0.0263  0.0292  0.1510
10301W        W25432   5.447   5.910   9.531 -0.1378 -0.2368 -0.3712
10302W        W25433  13.631   5.887   0.761  0.1180 -0.0334 -0.1583
10303W        W25434   1.616   9.628   2.780  0.0318  0.0677 -0.0002
10304W        W25435  17.181  16.021   6.260  0.0090 -0.2205 -0.0179
10305W        W25436   2.131  14.881   3.554 -0.1938  0.3110  0.3035
10306W        W25437  13.683  10.456  11.689 -0.0688  0.2580 -0.1700
10307W        W25438  17.384  13.786   0.205 -0.1707 -0.0558 -0.0006
10308W        W25439  16.857   6.811  10.448  0.5393  0.1817 -0.0918
10309W        W25440   7.553   3.381   1.872 -0.1549 -0.0168  0.2262
10310W        W25441   1.474  14.378   2.509  0.0433 -0.1561 -0.2286
10311W        W25442   0.071  13.684  11.444 -0.1821  0.0032  0.0811
10312W        W25443  13.119   7.618   2.240 -0.0826  0.3668 -0.4007
10313W        W25444   6.248  11.430   9.782 -0.0088  0.1851 -0.0365
10314W        W25445   7.862   8.737   0.257 -0.4590 -0.1455 -0.2517
10315W        W25446   5.426   6.604  11.666  0.0753  0.0457 -0.1415
10316W        W25447  10.966  12.393   0.527 -0.2586  0.0270 -0.1903
10317W        W25448  12.188   9.739   5.126  0.3753  0.0715 -0.1685
10318W        W25449  16.032  12.588   0.985 -0.0464 -0.1706 -0.3830
10319W        W25450  10.950  13.595   2.634  0.1623 -0.2061  0.0596
10320W        W25451   8.129  12.787   5.099  0.1282  0.1811 -0.2440
10321W        W25452   1.254  12.835  11.482  0.0140  0.0549 -0.0219
10322W        W25453  16.849   0.192   1.263  0.2426  0.5102  0.1042
10323W        W25454  14.350   3.574  14.492  0.0621 -0.3197  0.0653
10324W        W25455  15.241  13.197  13.044 -0.1052  0.3375  0.1812
10325W        W25456  13.322  17.267   0.687 -0.2284 -0.0924 -0.1263
10326W        W25457   9.500   5.647   3.989 -0.1513 -0.0344  0.2921
10327W        W25458   5.308  14.240   3.707 -0.0143  0.4067  0.3415
10328W        W25459   7.234   6.450   2.353 -0.1920 -0.3126  0.1955
10329W        W25460  18.479  15.878  14.770 -0.1810  0.5060 -0.0906
10330W        W25461  17.481   0.565   2.925  0.0577  0.1970 -0.1296
10331W        W25462   1.682   0.981   5.933  0.2063  0.0102  0.2861
10332W        W25463   1.508  12.867  15.518 -0.0460  0.0494  0.3250
10333W        W25464  18.079  15.648  11.048 -0.1081  0.0936 -0.0052
10334W        W25465   8.592  17.895   3.359 -0.0341 -0.0135  0.1105
10335W        W25466  17.433   5.973   3.389  0.0591  0.0860  0.0629
10336W        W25467   0.894  16.921  11.889  0.2389 -0.1160  0.1689
10337W        W25468   2.316  14.774   1.608  0.2241 -0.2560 -0.1228
10338W        W25469   0.936  17.547  13.767  0.0390  0.0282 -0.2116
10339W        W25470   2.566   4.138   0.753  0.1866  0.1111 -0.3024
10340W        W25471   5.290  10.626   2.323  0.0462  0.3221  0.0553
10341W        W25472  11.974   2.893   0.382 -0.2140  0.1697 -0.1333
10342W        W25473   5.138  11.698  11.202 -0.1321 -0.3764  0.2520
10343W        W25474  11.090   6.346  14.207  0.0603  0.2335 -0.0023
10344W        W25475   9.844   8.983   1.956 -0.0872  0.1086 -0.0769
10345W        W25476  14.468   6.325   0.839  0.1882 -0.0512 -0.1358
10346W        W25477  10.170  14.673  13.086  0.0521 -0.0644  0.0107
10347W        W25478   1.300   1.752   4.361 -0.0092 -0.2028 -0.0767
10348W        W25479   7.345  14.803   0.453 -0.0369  0.0713  0.0192
10349W        W25480  17.596   4.928   5.057  0.2036  0.5356  0.2694
10350W        W25481   9.453   9.286   3.223  0.0312  0.0575  0.1171
10351W        W25482   4.726   4.378   9.201 -0.3651  0.0674 -0.1381
10352W        W25483   0.670   7.216   3.544  0.2832  0.0024 -0.1299
10353W        W25484   7.101  15.836  15.764  0.4742 -0.2163  0.2900
10354W        W25485  12.830   4.822  13.870 -0.0325  0.0218  0.0366
10355W        W25486  11.855   8.012   5.153 -0.3301  0.0398 -0.0825
10356W        W25487   8.113   5.111  13.778  0.0593 -0.2836  0.0737
10357W        W25488  16.700  17.987   3.475 -0.0819  0.0159  0.3407
10358W        W25489  17.006  18.076   0.186  0.0823  0.0156 -0.2313
10359W        W25490   7.034  17.886   4.987 -0.0437  0.0050 -0.0158
10360W        W25491  14.719   9.967   5.700 -0.3791  0.4046  0.1471
10361W        W25492  17.632  17.436   1.417  0.0621  0.1801  0.2707
10362W        W25493   5.541  17.782   4.347  0.2723 -0.2798  0.5213
10363W        W25494   1.837   2.249  14.578  0.0161  0.1704  0.4356
10364W        W25495  10.959  13.257   1.141  0.1731  0.0927  0.0880
10365W        W25496  17.627  15.032   2.939  0.1749 -0.1598  0.0016
10366W        W25497  12.921  18.417  13.673  0.3868 -0.3030 -0.1212
10367W        W25498  17.313   1.577   3.744 -0.1679 -0.0551  0.1781
10368W        W25499   8.851  11.659   1.504 -0.0656 -0.3360  0.2923
10369W        W25500   5.509  12.173  10.977 -0.2156  0.1978  0.1195
10370W        W25501   4.063   8.510   3.644 -0.2265 -0.0901 -0.0822
10371W        W25502  10.485   2.609  11.406 -0.0712 -0.0337 -0.2056
10372W        W25503   4.666   9.110  11.363 -0.3792  0.0064  0.2859
10373W        W25504   9.949  12.017   3.386  0.2266  0.3822 -0.0460
10374W        W25505   5.793  14.424  15.122  0.0733 -0.1640 -0.1071
10375W        W25506  14.647  12.911  12.714 -0.0835 -0.0342  0.1253
10376W        W25507  15.441  15.399  13.409 -0.2206  0.0126  0.0427
10377W        W25508  17.459  16.184  15.533  0.0382 -0.1572  0.1902
10378W        W25509  12.519   1.847  10.445 -0.0829 -0.0647  0.0780
10379W        W25510   5.016   2.539  12.881 -0.1406 -0.1900  0.1326
10380W        W25511   9.681   1.186   5.068  0.0576 -0.2413  0.0532
10381W        W25512  10.337   6.847  15.751  0.3428 -0.0187 -0.0551
10382W        W25513  13.328  13.853  14.206  0.0156  0.0580  0.1196
10383W        W25514   9.985  14.066  12.498  0.1158  0.0122  0.0618
10384W        W25515   1.719  12.159   0.553 -0.0905  0.3033 -0.0462
10385W        W25516  11.353   5.640  11.157  0.0181  0.1533 -0.0198
10386W        W25517  11.908  14.040   4.699 -0.1508 -0.1034 -0.2607
10387W        W25518   1.215   7.225   4.763 -0.2000 -0.0134  0.0827
10388W        W25519  11.097   7.912   3.667  0.0636 -0.1414 -0.0056
10389W        W25520   5.039   1.344   1.537 -0.2909  0.1821 -0.2427
10390W        W25521  16.969  18.631   3.317 -0.0293 -0.4779 -0.1811
10391W        W25522   2.074   2.971  14.147  0.0350 -0.1228 -0.1784
10392W        W25523  11.019  15.568  11.207 -0.1225 -0.3724 -0.1318
10393W        W25524   1.375   0.747  11.444 -0.0793  0.5416  0.1055
10394W        W25525  12.254   8.927   5.502 -0.3338  0.0190 -0.1220
10395W        W25526  10.505   5.843  10.670  0.4194  0.1329 -0.1177
10396W        W25527   9.308   4.987  14.463 -0.0202  0.4453 -0.1447
10397W        W25528   3.655   1.352  14.051  0.1696 -0.2292 -0.3973
10398W        W25529  12.551   6.998  13.280  0.2016 -0.0330 -0.1356
10399W        W25530  13.810   3.688   0.464 -0.3169  0.1804  0.0348
10400W        W25531   3.499   0.618   0.806 -0.3352 -0.0357 -0.5456
10401W        W25532   1.398  10.998  14.439 -0.4947  0.3038 -0.2528
10402W        W25533  12.002  13.693   0.164 -0.4011 -0.1354  0.0908
10403W        W25534   1.972   9.146   9.808  0.2799 -0.0267  0.0535
10404W        W25535   8.354  13.779  12.698 -0.3443  0.3523 -0.0828
10405W        W25536   9.039   0.144  11.642  0.0366  0.1626 -0.0819
10406W        W25537   6.288   5.425  14.343 -0.0097 -0.1064  0.5376
10407W        W25538   5.542   4.082   5.411  0.0193 -0.0581  0.1218
10408W        W25539  18.097   7.483  11.119  0.2348 -0.1027  0.0488
10409W        W25540  15.965  13.805  14.192 -0.1467  0.3107 -0.1618
10410W        W25541   2.614  11.052  14.053  0.1804  0.1037 -0.1181
10411W        W25542   6.720   5.443   3.180  0.0464  0.2777 -0.0651
10412W        W25543  15.887   0.761   0.145 -0.0678 -0.3339 -0.3063
10413W        W25544   7.552   2.249  12.226  0.1374  0.0061  0.1231
10414W        W25545  16.672   0.958  10.613  0.2083  0.1307 -0.0615
10415W        W25546   7.136   8.282   5.245 -0.4554 -0.1070 -0.3754
10416W        W25547  12.469  11.310  12.572 -0.0041  0.3089 -0.0688
10417W        W25548  12.991   8.157   3.037  0.0413 -0.1496 -0.3471
10418W        W25549   8.947   4.307  13.228  0.1619 -0.2124  0.2136
10419W        W25550  18.592   8.290   5.451  0.2383  0.1253  0.0070
10420W        W25551   8.192   3.149   0.538  0.0802 -0.0737  0.2086
10421W        W25552   3.422   5.362  15.217  0.0781  0.0374 -0.1071
10422W        W25553   5.401   3.665   1.389  0.0612  0.0333  0.3310
10423W        W25554  12.060   1.259   4.204 -0.0016 -0.3920  0.1824
10424W        W25555   6.664   1.845   1.816 -0.0868  0.0347 -0.0977
10425W        W25556   1.291   7.374  12.710 -0.0513  0.0912  0.1323
10426W        W25557  17.396   5.443   2.557  0.1325  0.0505  0.0418
10427W        W25558   5.658  12.777  15.052 -0.0126  0.0066 -0.2510
10428W        W25559   6.492   3.332   1.589  0.1771 -0.1902  0.1777
10429W        W25560  10.331  10.166  10.874 -0.3846  0.1344  0.1920
10430W        W25561   5.456   3.076  13.687  0.0571 -0.3804 -0.0014
10431W        W25562  16.847   8.039   3.992  0.2294  0.0154 -0.1049
10432W        W25563  12.891   1.835   5.654  0.0772 -0.2360 -0.0355
10433W        W25564  11.508   8.554  12.574  0.1161  0.1727  0.2737
10434W        W25565   1.585  14.871   4.816  0.1939 -0.5065  0.1101
10435W        W25566   2.072   0.272   4.324 -0.2534 -0.1569  0.0237
10436W        W25567  17.706   8.023  14.704 -0.0021 -0.0041 -0.2474
10437W        W25568  18.655   7.450  14.614  0.3705  0.1988 -0.1156
10438W        W25569  17.591  11.367   2.358  0.1738  0.0896 -0.2241
10439W        W25570   3.560   0.880  13.261 -0.1083  0.3085 -0.2841
10440W        W25571  12.138  18.637   3.829 -0.2866 -0.0504 -0.2232
10441W        W25572   7.031   7.018   5.132  0.1087 -0.2945 -0.0666
10442W        W25573  16.644  13.468   1.443  0.0727  0.1310  0.0804
10443W        W25574   3.461   9.753  15.480  0.3677 -0.0871  0.1027
10444W        W25575  16.126   3.650  15.297 -0.0837  0.1096  0.1361
10445W        W25576  17.290   6.893   2.858 -0.4283 -0.2670  0.4096
10446W        W25577   5.237   1.744   4.038  0.1587  0.0627 -0.2037
10447W        W25578   0.069  13.468  13.426  0.2012  0.1711  0.0912
10448W        W25579   6.246  15.943   0.442  0.2411 -0.1311 -0.1483
10449W        W25580  12.042  11.334  10.120 -0.1715 -0.0895 -0.5718
10450W        W25581  13.378   8.156  12.203 -0.1628 -0.2250 -0.0158
10451W        W25582   0.503  18.549   0.407 -0.0987  0.0856  0.0332
10452W        W25583  15.952   5.212   2.794 -0.3833 -0.0308 -0.3108
10453W        W25584  10.231   5.453  15.494  0.2120 -0.1000  0.3527
10454W        W25585   2.234  18.154   4.353 -0.0823  0.2161 -0.0288
10455W        W25586  11.593  16.357  10.944  0.1978 -0.1939 -0.0604
10456W        W25587   3.560   6.048  14.579  0.1656  0.6682  0.0560
10457W        W25588  15.394  15.389   3.863 -0.3769 -0.4242 -0.0115
10458W        W25589   7.545  14.445  13.016  0.1144  0.1943 -0.0143
10459W        W25590  12.220  12.946   0.613 -0.0398  0.0521  0.2542
10460W        W25591   9.933  13.733  11.436  0.2872  0.0537 -0.2052
10461W        W25592  10.135  11.379  15.745 -0.0534 -0.1098  0.2473
10462W        W25593  14.082  15.650   9.642 -0.3514 -0.0227 -0.1420
10463W        W25594  12.466  16.446  12.840 -0.1438  0.1711 -0.1796
10464W        W25595  10.569   6.488   4.246  0.1130 -0.1035 -0.2763
10465W        W25596  16.848  12.633   0.221 -0.0358 -0.0427 -0.0751
10466W        W25597  12.264  17.594   3.933 -0.1286  0.0776  0.2645
10467W        W25598  13.707   8.431  13.334 -0.0404 -0.0286 -0.0164
10468W        W25599   9.446   5.234  10.487 -0.1231 -0.4450  0.1219
10469W        W25600   0.326   4.738  10.663 -0.1599 -0.0590  0.1841
10470W        W25601  10.792   1.954   5.128 -0.2585  0.2261 -0.0633
10471W        W25602  13.049   1.026  12.103  0.3312 -0.0875  0.0568
10472W        W25603   8.204  14.948  12.641  0.1047  0.0594 -0.0391
10473W        W25604  11.871   9.708   4.718  0.2014 -0.3857 -0.0095
10474W        W25605  12.449  15.216  15.075  0.1880  0.0757  0.1082
10475W        W25606  10.235  16.283  10.519  0.0903 -0.0356  0.1046
10476W        W25607  11.227   3.967   0.913 -0.0903 -0.1646 -0.4598
10477W        W25608   6.654   9.761  11.681 -0.1764 -0.0727  0.2663
10478W        W25609   7.989  15.361  12.965 -0.1310  0.1206 -0.3411
10479W        W25610   3.916   6.456   2.941 -0.2046  0.2462  0.1276
10480W        W25611   6.095   9.341   5.192 -0.0246  0.0771  0.3277
10481W        W25612  12.298  15.233   1.066 -0.1572 -0.0301  0.1130
10482W        W25613  17.834   2.999   3.666  0.0635 -0.2642  0.2447
10483W        W25614   7.228   5.512   3.253 -0.0246 -0.0309 -0.1790
10484W        W25615   9.957   0.910   5.329  0.2833 -0.0479  0.1540
10485W        W25616   6.767   6.372  10.602 -0.1354 -0.2292 -0.0336
10486W        W25617   0.546   6.820  14.014  0.1443 -0.1073 -0.1448
10487W        W25618  17.197  14.435  10.912 -0.1823 -0.1817 -0.0478
10488W        W25619  11.703   1.727  15.146 -0.0531 -0.1746 -0.1489
10489W        W25620  14.510  15.516  14.862 -0.2425 -0.2099 -0.2717
10490W        W25621   0.936   8.974  11.947 -0.2091 -0.1589 -0.4454
10491W        W25622  15.736   2.277   4.294 -0.1272  0.0218 -0.1310
10492W        W25623   7.862  10.741  12.585 -0.1362 -0.3916  0.0226
10493W        W25624  10.635   2.980   1.373  0.2106  0.0278  0.1508
10494W        W25625  18.238   0.762   0.424 -0.1012  0.2072  0.2840
10495W        W25626   0.509  12.256   2.573 -0.1245 -0.1474 -0.2057
10496W        W25627   3.167   4.544   4.986 -0.1161  0.1069  0.1618
10497W        W25628   3.409   3.347  13.108  0.2513  0.2002  0.0070
10498W        W25629   1.959  13.608   4.485  0.0929 -0.2098 -0.1093
10499W        W25630  13.923  13.146   5.138 -0.1682 -0.1827  0.1374
10500W        W25631  15.182   9.738   5.442  0.0968 -0.0998 -0.4219
10501W        W25632   3.182   5.965   2.350 -0.2898 -0.0291 -0.0769
10502W        W25633  16.556  16.440  13.097  0.1031  0.0085  0.3093
10503W        W25634   3.854  10.700   4.022 -0.0204  0.2467  0.1489
10504W        W25635   5.031  12.020   2.368 -0.2222  0.0738 -0.0485
10505W        W25636   8.148   3.884  12.177 -0.0643  0.1360  0.0571
10506W        W25637   1.235  15.565   4.721  0.1197  0.1404 -0.2043
10507W        W25638  13.918   1.968  12.810 -0.0061  0.2493 -0.1093
10508W        W25639  17.407  18.624   3.624  0.0188 -0.0012  0.2919
10509W        W25640   3.061   3.247   3.113  0.0628  0.2272  0.1362
10510W        W25641   6.204  14.785  14.427 -0.1122 -0.3596  0.0561
10511W        W25642   3.715   1.158  14.835 -0.0008 -0.6991 -0.0426
10512W        W25643   2.905  16.141   3.554 -0.1783 -0.0050  0.0901
10513W        W25644  10.891  18.395   3.253 -0.0371  0.0790 -0.1722
10514W        W25645  16.798  16.804   1.628 -0.3907 -0.1487 -0.0010
10515W        W25646  17.802   5.581  13.189 -0.2911 -0.1085 -0.0741
10516W        W25647  17.146  13.467   0.549  0.2026  0.0905 -0.2480
10517W        W25648   5.693   2.788   5.253 -0.2231 -0.2528  0.3103
10518W        W25649   5.142  12.027  13.176  0.1125  0.2134 -0.0309
10519W        W25650   4.559   8.898  15.536  0.0811  0.1658  0.3725
10520W        W25651   0.856  11.945   0.262 -0.0392  0.0687  0.2164
10521W        W25652   0.761   6.121   1.597 -0.0804  0.0285 -0.1816
10522W        W25653  15.869   9.347   0.053  0.3251  0.2547  0.0255
10523W        W25654   6.756  16.320   4.168  0.2971 -0.1166 -0.1164
10524W        W25655  14.704  10.811  13.508  0.1663 -0.0786 -0.1248
10525W        W25656  13.216  18.095   0.924 -0.0861 -0.3318 -0.1448
10526W        W25657   1.456  14.749  11.656 -0.1440 -0.2654 -0.0435
10527W        W25658  11.514   6.381   3.722 -0.1054 -0.0137  0.2604
10528W        W25659   3.129   1.787   4.919  0.1023 -0.0919  0.0913
10529W        W25660   4.146   4.825  12.752 -0.0834  0.0801  0.1139
10530W        W25661   2.420  17.544  12.002  0.2048  0.4098  0.1156
10531W        W25662  15.796   8.333  12.217 -0.0134 -0.1131 -0.0986
10532W        W25663   6.994  12.130  14.160 -0.1217 -0.1242 -0.1289
10533W        W25664  17.911  17.214   5.377  0.1043 -0.1196  0.1535
10534W        W25665  13.489   5.971   3.315 -0.0043 -0.2412  0.1179
10535W        W25666  14.740   7.145  10.674  0.3416  0.1752  0.0147
10536W        W25667  17.913   5.354   0.011  0.2510 -0.1622 -0.1462
10537W        W25668   5.922  18.749   3.642 -0.0164 -0.0901  0.0016
10538W        W25669  13.352   5.350  10.406 -0.0162  0.1553 -0.4444
10539W        W25670  16.890  10.258  10.217  0.2056 -0.5134 -0.1051
10540W        W25671  14.625   1.943  13.880  0.0940 -0.4166 -0.0796
10541W        W25672   7.738  13.012  13.125  0.2323  0.1260 -0.1204
10542W        W25673   9.110   7.119  10.801  0.0437 -0.0242  0.0691
10543W        W25674  17.032   1.899  12.814  0.0856 -0.0141  0.0355
10544W        W25675  18.273   1.677   0.566 -0.0701  0.1758  0.1475
10545W        W25676   5.109  11.884   0.729 -0.3202  0.0316  0.2699
10546W        W25677  13.585  17.041  12.255  0.2413 -0.2200  0.1843
10547W        W25678  12.294   0.846   5.067 -0.0586  0.1029  0.1210
10548W        W25679  16.740  17.059  12.048  0.0344  0.1677  0.1085
10549W        W25680  10.768  18.194   1.062 -0.1992  0.3207 -0.0489
10550W        W25681  15.806   6.530   1.687 -0.1978 -0.2298  0.0934
10551W        W25682   4.303   7.203   4.213  0.1515 -0.3404 -0.0784
10552W        W25683   3.462  14.980   0.910 -0.0968  0.1943 -0.0595
10553W        W25684  15.185  13.581   6.228 -0.0403 -0.0534  0.0058
10554W        W25685   3.039  10.746   0.209 -0.0002 -0.3750  0.3204
10555W        W25686   8.364   0.729  12.647 -0.1337  0.2953 -0.2570
10556W        W25687   0.432  14.006   2.597  0.1356 -0.1870 -0.2682
10557W        W25688   3.701  13.565  12.622 -0.4035  0.0577 -0.2023
10558W        W25689  15.604   7.469   5.302  0.2221  0.2433  0.0986
10559W        W25690   6.327   7.547  14.811  0.1059  0.0490  0.0006
10560W        W25691   9.656   7.907  11.009  0.1132 -0.1395 -0.2153
10561W        W25692   8.420   4.654   2.860  0.4341 -0.3238  0.0058
10562W        W25693  15.747  16.882   3.499  0.3553 -0.1952 -0.0452
10563W        W25694  14.308  12.986  13.165 -0.1356 -0.2955  0.1724
10564W        W25695   5.453   8.889   3.863 -0.0979  0.3657 -0.1371
10565W        W25696   0.615   2.020  14.947  0.1323 -0.0832 -0.0350
10566W        W25697  15.272  11.646   0.649 -0.0177  0.1141  0.0854
10567W        W25698   2.395  17.595   1.029  0.0689 -0.1164  0.1955
10568W        W25699  10.835  10.559  15.099  0.1244  0.0402  0.5258
10569W        W25700  14.423   0.625   4.332  0.0250  0.0640  0.0288
10570W        W25701   7.118  12.995  11.207 -0.2620 -0.4098  0.1691
10571W        W25702  17.139   3.755   2.690  0.0165  0.1515  0.2869
10572W        W25703   6.272   0.484   4.474  0.0920 -0.0182 -0.1010
10573W        W25704   3.169   2.481   2.946 -0.5493  0.0945  0.2763
10574W        W25705  15.045   8.655   2.119 -0.2580  0.0071 -0.1012
10575W        W25706  16.370  17.783  15.185  0.1224 -0.3376 -0.2860
10576W        W25707   1.062  13.623   4.817  0.0736  0.1700 -0.0174
10577W        W25708  10.020  18.013  15.592 -0.0886  0.1639  0.2148
10578W        W25709  11.664  15.265  14.934 -0.0457 -0.0839  0.0946
10579W        W25710   1.861  16.119  12.348  0.0147  0.1668  0.0397
10580W        W25711   8.679   8.563   3.691 -0.0534  0.3556 -0.1844
10581W        W25712   1.777   3.842   2.065  0.1655  0.0430  0.0357
10582W        W25713  15.747  15.813  13.616  0.0026 -0.2244  0.0899
10583W        W25714  15.780   2.604   3.814 -0.0651  0.2810 -0.4053
10584W        W25715  11.426   9.535  14.810 -0.4666 -0.1173  0.0250
10585W        W25716  18.745   3.534   4.068 -0.1901 -0.0959 -0.0472
10586W        W25717   0.855   2.622   4.585 -0.1942  0.0942 -0.0143
10587W        W25718  10.436   0.523   4.937 -0.0310  0.0235  0.2211
10588W        W25719   4.756   3.076  13.622  0.2246 -0.3139  0.4783
10589W        W25720   1.994  17.559   4.768 -0.1919  0.2611  0.1489
10590W        W25721   9.965  13.381   6.245  0.1069 -0.0927 -0.3233
10591W        W25722   3.457  16.920   3.902  0.4118  0.0292  0.0575
10592W        W25723   4.070   4.104  11.148 -0.1418 -0.0811 -0.0699
10593W        W25724  14.313   2.068  13.049  0.2255 -0.1052 -0.0451
10594W        W25725  15.083  14.261  11.309  0.2574 -0.0418 -0.3746
10595W        W25726   3.145   8.053   4.664 -0.1582 -0.2323  0.0889
10596W        W25727  11.750   9.462  12.055 -0.0627 -0.1388 -0.1528
10597W        W25728   6.480  15.500  14.405  0.1852 -0.0314  0.0209
10598W        W25729   9.522   2.466   1.711  0.1617  0.2144  0.0848
10599W        W25730   5.625   0.159   0.618 -0.3145 -0.4472 -0.2495
10600W        W25731  13.317   1.209   3.060 -0.1166  0.3480 -0.1489
10601W        W25732  16.532   6.912  13.476  0.0151 -0.0299  0.0969
10602W        W25733  11.702  13.830  12.070  0.1512  0.0053 -0.2817
10603W        W25734  14.675  11.938  14.657 -0.2971  0.0929  0.2172
10604W        W25735  16.307  11.951   0.523 -0.3325 -0.2549  0.0777
10605W        W25736  15.848   9.196  14.140  0.0644 -0.1020  0.5207
10606W        W25737   7.995  11.642  15.477 -0.1851 -0.0547  0.1285
10607W        W25738  16.597  11.607  11.672 -0.3009 -0.0656 -0.2741
10608W        W25739  14.822  11.555  15.644 -0.1202  0.1468 -0.0608
10609W        W25740   0.232  13.023   0.697  0.0648 -0.0895  0.0903
10610W        W25741   0.597   0.530  14.244  0.0992 -0.5710  0.1714
10611W        W25742  13.583   3.800   5.535 -0.0197  0.1240  0.4908
10612W        W25743   6.829  10.885  15.654  0.1356 -0.2682 -0.0951
10613W        W25744   2.508  10.658   2.522 -0.0663  0.0279 -0.2980
10614W        W25745   2.668   7.885   1.863  0.2132 -0.0984  0.0312
10615W        W25746   3.536   5.381   9.056 -0.0160  0.3907  0.2424
10616W        W25747   7.776  12.740   1.273 -0.1156 -0.0085 -0.2315
10617W        W25748   3.512  12.121   0.203  0.1976 -0.0430 -0.2018
10618W        W25749  14.276  13.688   4.776  0.4168  0.1590 -0.1181
10619W        W25750   3.724  10.927  10.859  0.2340  0.0782  0.3668
10620W        W25751   6.811   6.739   4.664  0.0029 -0.2732 -0.1813
10621W        W25752   2.704   7.570  13.276  0.0858  0.2065 -0.2224
10622W        W25753  12.485  10.079  12.133 -0.2333  0.1193 -0.1111
10623W        W25754  13.070   4.042   1.662  0.0203 -0.2535  0.0011
10624W        W25755  11.082   5.204  11.055 -0.1841  0.3032  0.0854
10625W        W25756  17.216  13.892  11.172  0.0006  0.1712  0.2521
10626W        W25757   9.764   9.755   3.101 -0.3742  0.1393  0.1339
10627W        W25758   6.302   7.495   2.225 -0.0774  0.2356 -0.0096
10628W        W25759   6.809  14.488  13.579  0.1722 -0.0353  0.0383
10629W        W25760   5.301  16.299   2.695 -0.0860 -0.0406  0.2271
10630W        W25761  15.331   5.806  13.055 -0.0315 -0.3135 -0.1928
10631W        W25762   2.079  17.088  10.894 -0.1030 -0.1577 -0.2378
10632W        W25763   0.012  12.517  14.596 -0.4397 -0.0386  0.2007
10633W        W25764   1.600   3.865   3.161  0.2914  0.0043  0.2559
10634W        W25765   6.183   3.625  14.136  0.0604  0.0339  0.2864
10635W        W25766   6.040   1.483   1.449 -0.2392 -0.1173 -0.0142
10636W        W25767   8.078   9.185   5.146  0.1162 -0.1313  0.1903
10637W        W25768   8.018   4.054   0.381  0.1508  0.1460  0.0519
10638W        W25769   5.719   0.188  15.486 -0.2534  0.1877 -0.0603
10639W        W25770  15.149   9.366   0.036 -0.0277  0.2342 -0.1663
10640W        W25771   0.295  11.399  10.562 -0.0615  0.0448  0.3270
10641W        W25772  11.804  14.812   1.767 -0.0776 -0.0344  0.0367
10642W        W25773   9.575  17.961   0.357 -0.1566 -0.1147  0.0719
10643W        W25774   3.998  11.659   2.993 -0.1498 -0.0857 -0.0678
10644W        W25775  12.953   5.036  10.424  0.0488 -0.1546  0.5390
10645W        W25776  16.228   2.230   2.436 -0.0385  0.1424 -0.0815
10646W        W25777  18.355  14.692   0.066 -0.4799  0.0985 -0.0414
10647W        W25778   5.462  13.404   1.961 -0.1655 -0.3481  0.1395
10648W        W25779   5.393  17.298  12.739  0.3652 -0.3261  0.2316
10649W        W25780   4.908   2.970  11.580  0.0408 -0.2939  0.2478
10650W        W25781   1.615   3.063  11.473  0.1304 -0.0583  0.1283
10651W        W25782  12.615  11.726   2.490 -0.0145  0.1368  0.0857
10652W        W25783   9.169  14.846   4.661 -0.0977  0.0872 -0.3481
10653W        W25784   6.609  18.154   5.253  0.0858  0.2256  0.2056
10654W        W25785   2.842   8.657  10.732  0.1779 -0.1061 -0.1045
10655W        W25786  12.040   1.217  15.436  0.0620  0.0198 -0.1265
10656W        W25787  16.474  10.526   2.098  0.1594 -0.0430  0.3210
10657W        W25788  13.850  17.884   4.291 -0.1932 -0.0596 -0.1526
10658W        W25789  13.649  14.208  11.622 -0.0596  0.2008  0.2368
10659W        W25790  18.165  16.866  11.003  0.0532  0.4372 -0.1684
10660W        W25791   7.276  14.720  14.330 -0.1384 -0.3653  0.0972
10661W        W25792  14.361   3.250  13.017  0.1950  0.4801  0.2034
10662W        W25793   6.480  13.181   3.657  0.1174  0.1449  0.2989
10663W        W25794  10.832  17.019   4.272 -0.0821 -0.0374 -0.0647
10664W        W25795  13.245  18.518   1.646 -0.4778  0.1168  0.0337
10665W        W25796  12.659   2.760   1.119  0.2397 -0.0346  0.3543
10666W        W25797  17.636  13.328  12.760 -0.1525  0.0095 -0.1024
10667W        W25798  11.389  17.519  11.134  0.1571 -0.1180  0.0101
10668W        W25799   6.389  17.774   4.322 -0.1984  0.0169 -0.2498
10669W        W25800  12.499  18.478   1.099 -0.0720 -0.1530  0.0298
10670W        W25801   6.814  13.748  10.805  0.1420 -0.1726 -0.4315
10671W        W25802  16.035  15.501  10.364  0.1683 -0.1226 -0.0565
10672W        W25803   4.364  15.688  13.105 -0.0181  0.2803 -0.2903
10673W        W25804  12.371   9.558   4.703  0.4344 -0.2250  0.2165
10674W        W25805   5.919   5.591  12.734 -0.0715  0.0274  0.0657
10675W        W25806  14.358  14.985  11.237 -0.2180 -0.2185  0.0940
10676W        W25807   7.474   2.474   0.725 -0.1764  0.0128  0.0853
10677W        W25808   4.048  12.119   3.343  0.1073  0.2978  0.1069
10678W        W25809   8.985  16.795   0.206  0.1053 -0.3074  0.1998
10679W        W25810   4.387  10.589  11.353 -0.3122 -0.1782 -0.0221
10680W        W25811   1.381  11.076   1.710 -0.0027 -0.2857  0.0559
10681W        W25812  10.377   0.758  13.935  0.0609 -0.0736 -0.0364
10682W        W25813   1.396   4.888  11.159  0.1669 -0.0545 -0.0988
10683W        W25814   6.816  10.635   1.405  0.0866 -0.0053  0.1756
10684W        W25815  14.930   7.575   1.990  0.0667 -0.0636  0.0976
10685W        W25816  16.641   6.368  13.222 -0.0814  0.1986  0.0345
10686W        W25817   4.461  13.322  11.741 -0.2491  0.0024 -0.1266
10687W        W25818   3.343   7.827  10.587 -0.1308 -0.0617 -0.0957
10688W        W25819  17.221   2.185  12.317  0.2445 -0.1252 -0.1504
10689W        W25820   5.083   8.124   1.887 -0.0706 -0.0027  0.0275
10690W        W25821   3.193   7.092   1.009  0.3957  0.1205  0.2641
10691W        W25822  10.399   5.779   0.829 -0.2000  0.1564 -0.2173
10692W        W25823   9.250   0.971   2.722  0.0373 -0.0649  0.1661
10693W        W25824  11.988  17.871  11.963 -0.0587 -0.3363 -0.1880
10694W        W25825   9.845  13.426   4.139 -0.1043 -0.2407  0.3705
10695W        W25826   0.717  17.720   1.109  0.2131  0.0546  0.2132
10696W        W25827  12.475   2.809   3.308  0.1708 -0.0525 -0.0192
10697W        W25828   7.764  13.071  13.882  0.3028  0.0935  0.1802
10698W        W25829   5.861   7.486   2.133  0.0662 -0.0647  0.2625
10699W        W25830  16.791  12.454  11.272  0.3582  0.2121 -0.1499
10700W        W25831   8.076  15.568  10.298 -0.2183 -0.1035 -0.0568
10701W        W25832   9.527  13.872   2.387 -0.5214  0.2351  0.3820
10702W        W25833   3.204   9.661   1.103 -0.1023 -0.0634  0.2671
10703W        W25834   5.725  11.199   4.992 -0.0104 -0.0517 -0.2435
10704W        W25835   9.139  15.109   1.050  0.1921  0.2152  0.1700
10705W        W25836  13.972   5.259   4.547  0.0090  0.3584 -0.1730
10706W        W25837  17.089  11.331  13.216 -0.3403 -0.1506 -0.0282
10707W        W25838   2.228  17.470  15.074 -0.0918  0.0482 -0.1546
10708W        W25839  15.199  10.658   5.302  0.0898 -0.0278 -0.0264
10709W        W25840  17.752   7.670   3.890  0.1359  0.0699 -0.2633
10710W        W25841   6.423  14.823  15.518  0.0937 -0.2319 -0.0179
10711W        W25842   4.488   3.828  11.271 -0.1604  0.0764 -0.0330
10712W        W25843  15.807   4.285   0.852  0.2599 -0.1378  0.1627
10713W        W25844   2.584   8.007   9.903 -0.0567 -0.1340 -0.2975
10714W        W25845   6.429   7.069   2.525 -0.0716 -0.1289  0.0598
10715W        W25846   0.380  17.884  14.378  0.1514 -0.1662 -0.3194
10716W        W25847  11.221  13.118  11.204  0.2020  0.0643  0.1560
10717W        W25848   5.612   1.734   5.605  0.3233  0.0764  0.0044
10718W        W25849   3.334   7.815   5.489 -0.1040  0.1106  0.0245
10719W        W25850  18.021  10.236   1.237 -0.0612 -0.0824  0.0942
10720W        W25851  14.250  11.213  13.137  0.0218  0.1725  0.0942
10721W        W25852  14.524  15.775   3.714  0.0106 -0.2329 -0.0310
10722W        W25853   1.475  12.757   3.100  0.2159  0.0379 -0.4989
10723W        W25854   8.255  12.875  15.295 -0.1072 -0.1330 -0.0537
10724W        W25855   4.413  10.461   5.439  0.1827 -0.1589  0.0174
10725W        W25856  11.543  11.628  13.887  0.0144 -0.2399  0.3544
10726W        W25857  14.271  18.659   1.617 -0.1718  0.0328  0.1278
10727W        W25858   9.074  13.006   5.829 -0.1457  0.0504 -0.2536
10728W        W25859  17.341   0.933  14.880 -0.1683  0.2343 -0.0173
10729W        W25860  14.108   7.990   4.543 -0.0313  0.0630 -0.0301
10730W        W25861  17.673   1.530   2.414 -0.1674  0.0717  0.2029
10731W        W25862  11.180   2.646   2.541 -0.1450  0.3621  0.1018
10732W        W25863   9.973  12.990   4.091 -0.0239  0.0078 -0.0371
10733W        W25864   9.354  17.557   9.344  0.0142 -0.0554  0.1274
10734W        W25865  17.495   9.387  12.333 -0.2988 -0.0807 -0.0072
10735W        W25866  12.253  13.550   3.782  0.0762  0.0526  0.0653
10736W        W25867   9.439   0.846  10.541  0.0717  0.0032 -0.1270
10737W        W25868  16.558   2.375   0.831 -0.2274  0.0031 -0.0408
10738W        W25869  15.861  16.261   0.645  0.0367  0.1183 -0.1966
10739W        W25870  16.345  12.943  13.182  0.1017 -0.0677 -0.1221
10740W        W25871   9.557  15.638   1.869 -0.1566 -0.1516 -0.0934
10741W        W25872  12.797  16.662   1.511  0.0526  0.3473  0.0645
10742W        W25873  17.226  15.193  14.301  0.0917  0.3764 -0.3915
10743W        W25874  14.788   5.751  14.950  0.0617  0.2653 -0.1700
10744W        W25875   2.656   3.527  11.417  0.0118  0.2498 -0.0185
10745W        W25876   7.396   7.541  10.916  0.0691  0.0446  0.2368
10746W        W25877  10.917  15.915   1.310 -0.0928 -0.1785  0.1299
10747W        W25878   4.515   3.113   4.912 -0.3541 -0.0513 -0.0240
10748W        W25879  11.697   9.021   2.485 -0.1550 -0.3032  0.1457
10749W        W25880  18.524  15.783  11.967 -0.0571  0.0955  0.3074
10750W        W25881  10.780   2.632   0.886 -0.1510 -0.4393  0.1466
10751W        W25882  17.212  15.511   0.080  0.0878 -0.0383  0.0170
10752W        W25883   2.061  15.098   1.399  0.1522  0.0137 -0.2127
10753W        W25884   9.951   5.618  13.738  0.4545  0.0708 -0.2327
10754W        W25885  15.527   5.921  11.012  0.1052  0.1778 -0.4896
10755W        W25886  17.370  12.189  13.650 -0.1395 -0.1291  0.1031
10756W        W25887  16.239  10.839  12.521  0.1867  0.2424 -0.1259
10757W        W25888   0.774   9.646   4.987  0.1840 -0.0551  0.1072
10758W        W25889  14.222  11.502   4.483  0.0267  0.2274  0.0361
10759W        W25890   9.751  14.481   1.688 -0.2666 -0.0821  0.1010
10760W        W25891   7.013  13.232  11.962 -0.0951 -0.0540 -0.1897
10761W        W25892  18.707  10.393  14.696  0.3224 -0.0736 -0.1918
10762W        W25893   4.179  11.782   4.691 -0.0433 -0.1287 -0.0611
10763W        W25894  16.141  13.952   2.890  0.0022 -0.1900  0.3827
10764W        W25895  14.745   0.516   0.308 -0.4500  0.3093  0.0425
10765W        W25896   1.086   4.519  15.465  0.0649 -0.2292  0.0042
10766W        W25897  16.146  12.741   4.403  0.1101  0.0122  0.1431
10767W        W25898   3.906   6.764   1.570 -0.2308 -0.0513 -0.0044
10768W        W25899   8.279   1.061  14.705  0.1690 -0.0188 -0.1388
10769W        W25900  10.727  15.242   4.524 -0.0845 -0.2090  0.1940
10770W        W25901   3.535   0.338  11.606 -0.0934 -0.0048  0.0449
10771W        W25902   1.128   2.003   9.633  0.2419 -0.2448 -0.1741
10772W        W25903   1.482   9.522  12.214 -0.0538  0.0500  0.0992
10773W        W25904   8.575  17.213  10.621  0.1088 -0.1015  0.3766
10774W        W25905   1.772  16.991  14.219  0.0946  0.3017 -0.1274
10775W        W25906  12.070   2.691  10.821 -0.0452  0.1754  0.3033
10776W        W25907  18.704  18.561   5.206  0.0235  0.2607 -0.1150
10777W        W25908  17.220   5.563  13.603 -0.2639  0.1289  0.0257
10778W        W25909   5.713   1.256   0.115  0.0620  0.0133 -0.0671
10779W        W25910  11.880   9.229   2.904  0.3319 -0.0131  0.1447
10780W        W25911   8.007   5.628  13.575  0.3967 -0.1025 -0.0861
10781W        W25912   4.780  10.493   1.592 -0.1465  0.0452  0.0473
10782W        W25913   8.313   4.066   1.957 -0.1824 -0.6612 -0.0778
10783W        W25914   0.687  14.169  12.152 -0.1487  0.0914  0.1392
10784W        W25915   3.874   3.514   5.429  0.0679  0.0818  0.1444
10785W        W25916  17.576   3.803  13.790 -0.2674 -0.1232  0.1235
10786W        W25917  12.314   9.677   3.685 -0.0764 -0.2053 -0.2217
10787W        W25918  10.728   5.598  12.389  0.2515  0.0600 -0.0798
10788W        W25919  10.517   9.795   6.213  0.2020 -0.3119  0.2570
10789W        W25920   3.862   0.472  13.252 -0.1333 -0.2946  0.1130
10790W        W25921   7.888  14.147   1.249  0.0477 -0.2797 -0.0856
10791W        W25922   5.781  14.555  10.745  0.0000  0.2330  0.0794
10792W        W25923   3.960  16.314  13.259 -0.2154 -0.0810 -0.0284
10793W        W25924   6.887   2.292   4.578  0.4565  0.0082  0.2646
10794W        W25925  16.495  10.901  13.003 -0.1885  0.1549  0.4669
10795W        W25926   2.324  11.626  11.663 -0.0204 -0.2727 -0.2122
10796W        W25927   4.263  10.642   3.726 -0.2417 -0.0612  0.2992
10797W        W25928   1.242  15.075  15.163  0.1598  0.1734 -0.0961
10798W        W25929   2.091  18.209   0.054  0.0477  0.2094 -0.2070
10799W        W25930   3.547   9.950   1.904  0.1260 -0.1796 -0.2766
10800W        W25931   7.876  10.680   1.556 -0.1357 -0.0548 -0.0869
10801W        W25932  12.164   0.680  15.438  0.0361 -0.2043  0.1897
10802W        W25933   3.603   6.365   5.072 -0.1937 -0.0730  0.2861
10803W        W25934   0.694  12.224   4.820 -0.5015  0.0278 -0.0783
10804W        W25935   2.263  16.689   4.660  0.1230  0.3978  0.0941
10805W        W25936   6.255   8.070   2.087 -0.1267 -0.5675  0.3537
10806W        W25937  18.249  13.927  12.987  0.1605  0.3994 -0.3023
10807W        W25938  14.204   4.242  15.135  0.1460  0.1177 -0.1097
10808W        W25939  10.082  14.507   2.538  0.0535 -0.0686  0.0368
10809W        W25940  13.198   2.920   3.860  0.1749 -0.1137 -0.3396
10810W        W25941  10.525   9.046   2.315  0.1606  0.1006 -0.1167
10811W        W25942  12.703   1.433   1.469 -0.0372 -0.0474 -0.0085
10812W        W25943  13.023   7.714   1.763  0.1196  0.0464 -0.2380
10813W        W25944  15.076   0.128  10.759  0.2243 -0.5073  0.2015
10814W        W25945  12.896   5.363  14.811  0.1048 -0.1014 -0.1218
10815W        W25946  15.140   5.376  14.832 -0.2102 -0.2617  0.0768
10816W        W25947   6.887  14.818   0.228  0.1834 -0.0166  0.2741
10817W        W25948   0.005   3.214  15.465  0.0377  0.0271  0.2559
10818W        W25949   3.218   0.534  13.310 -0.1219  0.1858  0.1618
10819W        W25950  17.669  17.110   0.993  0.2280  0.1181 -0.2846
10820W        W25951   2.237  14.841  14.438  0.0573  0.5404  0.0319
10821W        W25952   7.549  16.129   4.210 -0.1575 -0.2184  0.0223
10822W        W25953  13.060   0.220   0.638  0.0212  0.1283  0.0283
10823W        W25954   4.770  16.483   3.447  0.0408  0.2015  0.2357
10824W        W25955  12.149  17.785   3.493 -0.0107 -0.2729 -0.0372
10825W        W25956  12.511   6.336   0.914  0.4435 -0.0751 -0.3430
10826W        W25957  10.071  16.001  10.886  0.3684 -0.3905 -0.1792
10827W        W25958   0.496   5.757   4.454 -0.0858  0.0114  0.1228
10828W        W25959  12.582  14.454   1.368 -0.1193  0.1440  0.0553
10829W        W25960  11.750   3.892   0.848 -0.5885 -0.0330 -0.1540
10830W        W25961  16.460  18.359   1.169 -0.2390 -0.0843 -0.3225
10831W        W25962  11.653  10.058  15.397  0.0915  0.1823  0.1097
10832W        W25963  18.237   7.126   0.792 -0.0190 -0.3776  0.2737
10833W        W25964   5.963   2.021  13.714  0.1840  0.1796 -0.3178
10834W        W25965   3.120   7.886  11.516  0.1163 -0.0698 -0.1349
10835W        W25966  17.590  13.243  13.305 -0.1072  0.2515 -0.2710
10836W        W25967   0.988   7.508  12.379 -0.2430  0.1634  0.1587
10837W        W25968   2.953   6.454  14.214  0.3573  0.2428 -0.2369
10838W        W25969  10.126  15.675  15.669  0.3539 -0.1809  0.0491
10839W        W25970   8.981  14.404   4.806 -0.0709 -0.4362  0.1252
10840W        W25971  18.377   1.768   4.739  0.1219 -0.0884  0.1838
10841W        W25972  15.803   7.341   1.915  0.1674  0.0008  0.0816
10842W        W25973   7.759  15.991   4.628 -0.2768  0.1251 -0.0888
10843W        W25974   4.664   3.848   2.856 -0.1012 -0.1677  0.0815
10844W        W25975   6.664  18.005  13.632  0.1721 -0.1972  0.1323
10845W        W25976   2.131   1.078   1.943 -0.0636 -0.0451 -0.0505
10846W        W25977   9.101   6.436  12.889  0.1630  0.1114  0.3085
10847W        W25978   7.454   4.828   0.303  0.0449  0.2556  0.0369
10848W        W25979  18.475   1.581  14.039  0.1861 -0.0301  0.0732
10849W        W25980   6.825   0.831  11.801  0.1309 -0.3725  0.3170
10850W        W25981   9.355   9.897   0.778  0.0347  0.0771 -0.1215
10851W        W25982  16.180  17.636   0.510 -0.0953  0.1772 -0.0967
10852W        W25983  11.821  16.133   3.078 -0.1056 -0.1282 -0.1147
10853W        W25984   5.583   5.246   2.283 -0.1188 -0.2662  0.1276
10854W        W25985  15.823   7.110  10.840  0.3907  0.3262 -0.1585
10855W        W25986   6.504   9.508  13.818 -0.1492 -0.0218  0.2493
10856W        W25987  12.790   9.936   0.509 -0.3360  0.0890  0.4185
10857W        W25988   5.163  17.823  10.970  0.1789  0.0500  0.1630
10858W        W25989  15.087  18.194  13.463  0.0454  0.1775 -0.0894
10859W        W25990   9.189   2.833  11.378 -0.1072 -0.2347  0.0802
10860W        W25991   9.768  10.221   1.470  0.3717 -0.1857 -0.1015
10861W        W25992  10.679   5.020   2.649  0.0655 -0.3099  0.0689
10862W        W25993   4.317  15.157   1.425  0.2201  0.2526  0.1824
10863W        W25994  15.665   5.504  15.511 -0.1265 -0.0232 -0.0370
10864W        W25995  16.293   7.447   1.798  0.2552 -0.1504 -0.0487
10865W        W25996   9.099  17.746  12.312  0.3763  0.0873 -0.2878
10866W        W25997   5.642  18.477  13.366 -0.3374  0.1674 -0.0257
10867W        W25998   9.581  14.450   3.235  0.0802  0.0981  0.0154
10868W        W25999  14.533  14.364  13.846  0.1730  0.2703 -0.2711
10869W        W26000   2.021  18.216   2.428 -0.2950 -0.0788 -0.0250
10870W        W26001   1.440   1.092  11.121  0.3965  0.3383 -0.1050
10871W        W26002  10.303   9.697   2.542  0.3691 -0.2476  0.2545
10872W        W26003   1.008   9.936  13.122 -0.0840  0.4609 -0.0207
10873W        W26004  10.706  11.070  14.970  0.1117  0.1129 -0.5192
10874W        W26005  13.023   0.182  11.162  0.1049  0.1740  0.0908
10875W        W26006   3.600  12.321   3.135 -0.0667 -0.2250  0.3651
10876W        W26007   0.364   3.658  11.911 -0.1240  0.3091  0.2236
10877W        W26008   0.212   0.299  12.949  0.0681 -0.1678  0.1556
10878W        W26009   5.747  17.102   0.862  0.2001  0.0138  0.1962
10879W        W26010   5.041  16.641  11.660 -0.0190 -0.0128 -0.0853
10880W        W26011   5.413  17.942   0.707  0.1268  0.1836 -0.1683
10881W        W26012   7.682  12.390  14.757 -0.2168  0.1136  0.1091
10882W        W26013   6.586  17.307  10.310 -0.2594  0.1872 -0.1471
10883W        W26014   3.528  14.053  13.398 -0.1627  0.3132  0.0729
10884W        W26015   7.297  16.121  15.389 -0.0652 -0.0903 -0.0317
10885W        W26016   7.708   0.041   1.099  0.1933 -0.2884 -0.0188
10886W        W26017   5.661  15.989   4.179  0.4016  0.3194 -0.3597
10887W        W26018  13.105   0.148   1.281 -0.2040 -0.0993  0.1134
10888W        W26019   2.291  16.689   1.135  0.2530 -0.0132  0.0385
10889W        W26020  13.064  13.424   3.840 -0.1010  0.2306  0.3698
10890W        W26021  17.177  13.737  12.136 -0.0463  0.0976  0.0979
10891W        W26022  12.135   5.527   5.873  0.4934 -0.4375  0.1768
10892W        W26023   6.070  14.401  15.585 -0.1108  0.1936  0.1854
10893W        W26024  14.220  16.882  10.819 -0.2374  0.1027  0.0330
10894W        W26025  18.715   6.801   5.417 -0.1949  0.2140 -0.0746
10895W        W26026   5.194  11.560   2.306  0.0773  0.1003  0.2650
10896W        W26027  13.287  14.014  14.654 -0.0132  0.0982  0.1982
10897W        W26028   2.543  10.441   1.564 -0.2471 -0.1232  0.0246
10898W        W26029   3.705   2.717   9.339 -0.0965 -0.0521  0.0318
10899W        W26030  13.626   4.017   0.198 -0.3659 -0.3582  0.1679
10900W        W26031   7.914   0.092   4.530 -0.3352 -0.0166 -0.3596
10901W        W26032   4.053   6.163   5.111  0.2287 -0.0762  0.1064
10902W        W26033   4.537   8.372  15.235 -0.1223  0.0550 -0.0251
10903W        W26034   8.683  11.179  14.992 -0.0095 -0.2464 -0.1485
10904W        W26035  16.479   5.126   2.927 -0.0565 -0.2904  0.2678
10905W        W26036  16.115   5.342  11.465  0.5198  0.2719 -0.0073
10906W        W26037  15.069   4.761  12.270  0.0066  0.0182  0.0885
10907W        W26038   1.583   5.275   0.216 -0.0937  0.2243  0.3781
10908W        W26039  16.954  15.039   1.319  0.1489  0.3399 -0.0837
10909W        W26040   6.306  10.043   2.537 -0.0135 -0.2978  0.3051
10910W        W26041  17.215  17.214  12.234 -0.1134 -0.0125  0.4649
10911W        W26042   7.904   2.579   2.960  0.0383  0.1359  0.0933
10912W        W26043  10.539   3.056  14.991  0.1706  0.0295 -0.0744
10913W        W26044  11.160  16.116  14.909 -0.0711 -0.1667  0.0252
10914W        W26045  16.999   5.313  14.014  0.0693  0.1630 -0.3430
10915W        W26046   7.427   4.399  10.389 -0.1462  0.0068  0.0217
10916W        W26047   6.629   5.421   2.199 -0.1100  0.1274 -0.1668
10917W        W26048   9.165   9.225  11.013  0.1496 -0.0882 -0.3513
10918W        W26049   8.536  18.084  15.605 -0.0269  0.1766 -0.1230
10919W        W26050  16.605  15.146   0.935  0.1542 -0.2367  0.1455
10920W        W26051  14.256   9.653  13.628  0.0403 -0.0805 -0.0653
10921W        W26052  10.519   7.340   0.741 -0.1894  0.0064 -0.4139
10922W        W26053  16.269   9.630  14.229  0.0818 -0.0398 -0.0054
10923W        W26054   2.246   0.775   0.990  0.0074 -0.2493  0.2672
10924W        W26055  10.900   6.734  12.793 -0.0536 -0.0505  0.0843
10925W        W26056   5.479  12.753  14.487 -0.1621  0.2021 -0.5318
10926W        W26057  10.770   3.370   5.203 -0.2020  0.2175 -0.1111
10927W        W26058   0.104   8.697  10.248 -0.0182  0.2001 -0.0011
10928W        W26059   6.731   4.760  15.141  0.1130 -0.0337 -0.4711
10929W        W26060  14.501   2.891   3.068  0.0303  0.0179  0.0822
10930W        W26061  15.230  10.622   5.983  0.0359 -0.0933 -0.2562
10931W        W26062   0.094   4.875  15.065  0.6423 -0.1487 -0.1418
10932W        W26063  12.395   0.429  12.356  0.1539 -0.1372 -0.2578
10933W        W26064   3.614   7.301  11.963 -0.0641  0.1368 -0.2953
10934W        W26065   9.711  11.943   0.940  0.0100 -0.2749  0.1532
10935W        W26066  13.503  16.445  12.370 -0.0348  0.1158 -0.1745
10936W        W26067  14.613   5.210  14.234  0.1727 -0.0074  0.3796
10937W        W26068  16.379   6.804  12.443 -0.3564  0.2377 -0.1866
10938W        W26069   0.367  15.864  15.544  0.0584  0.2513 -0.1761
10939W        W26070   4.477   0.828  13.349  0.0381  0.0798 -0.0811
10940W        W26071  12.675   9.422  11.039 -0.1161 -0.0376 -0.2864
10941W        W26072   3.246  15.432   1.872 -0.1439  0.3916 -0.4832
10942W        W26073  11.130   6.343  11.352 -0.2379 -0.1943 -0.2047
10943W        W26074  13.348   8.711   1.484 -0.2644  0.0866 -0.1482
10944W        W26075  15.715   4.961   1.766 -0.2424 -0.1700 -0.0893
10945W        W26076  16.024  11.930  14.315 -0.1332 -0.2647  0.0645
10946W        W26077  17.776  13.257   1.304 -0.2832  0.0899 -0.0495
10947W        W26078   8.325   4.500   2.303  0.4177  0.1036  0.0868
10948W        W26079   4.287  15.928   2.490 -0.0336 -0.1494 -0.0971
10949W        W26080   8.439  15.234   4.967 -0.0371  0.2076 -0.1546
10950W        W26081  16.477   7.043  14.644  0.1254 -0.2429  0.2075
10951W        W26082   3.433  13.751  12.199 -0.2313 -0.0936  0.3552
10952W        W26083   9.597   5.081  11.742  0.0218  0.2993  0.2561
10953W        W26084  10.618  14.755  12.381 -0.2782  0.2933  0.0440
10954W        W26085  16.729   6.887   2.969 -0.0446  0.1125  0.0166
10955W        W26086  14.775  17.549   0.481 -0.1166  0.0175  0.2454
10956W        W26087   5.673  13.326   5.859  0.0775 -0.3183  0.0206
10957W        W26088   2.711  10.439  12.765 -0.2693  0.0343  0.0400
10958W        W26089  17.056   8.957  14.697 -0.1770 -0.0066  0.0956
10959W        W26090  13.018   7.860  15.479 -0.0891  0.5394  0.0920
10960W        W26091   6.667   4.183  11.958  0.0404  0.0010 -0.0631
10961W        W26092  15.807  14.123   4.452 -0.2371  0.2979 -0.0384
10962W        W26093   4.189  12.959   4.112  0.2037  0.2278 -0.3234
10963W        W26094  11.671   2.080   5.721 -0.3800 -0.1380 -0.0531
10964W        W26095   2.570   3.814   3.426 -0.2498  0.4948 -0.0359
10965W        W26096   2.634   0.642  11.773 -0.1514 -0.2119  0.2179
10966W        W26097  13.430   1.885  13.075 -0.2272  0.0628 -0.2297
10967W        W26098   4.532  17.699  12.450  0.0438 -0.0624  0.2746
10968W        W26099  14.993  14.133  13.914  0.2669  0.1029 -0.2116
10969W        W26100   0.282  15.906  11.211 -0.3470  0.0975 -0.3994
10970W        W26101  12.121  18.738   2.463  0.1672 -0.2367 -0.0014
10971W        W26102  14.890  17.384  13.780  0.0241 -0.1337 -0.0751
10972W        W26103   3.998  16.052   4.475  0.0327 -0.1466 -0.1596
10973W        W26104  13.233  11.199  13.980  0.1572 -0.0513 -0.1934
10974W        W26105   7.316  15.702   1.029  0.1211 -0.0223  0.2544
10975W        W26106   3.384  17.529   4.137  0.0860  0.2120 -0.2190
10976W        W26107  18.304  12.619   3.033 -0.3535  0.1138 -0.0575
10977W        W26108   0.328   1.088  12.620  0.2139 -0.0982  0.0592
10978W        W26109   5.455   4.140   4.878 -0.0120  0.1567 -0.0578
10979W        W26110   6.999   8.320  11.566  0.0608  0.1844  0.2026
10980W        W26111  11.791   3.004  13.221  0.1485 -0.0785  0.1584
10981W        W26112  10.536   3.579   2.377 -0.1357 -0.0227  0.0297
10982W        W26113  15.469  11.349  13.361  0.1375 -0.2012 -0.0229
10983W        W26114   6.915  15.935  12.204 -0.0060  0.0864 -0.0691
10984W        W26115   1.898   4.669   1.683 -0.1800 -0.0771 -0.0288
10985W        W26116   6.015   2.864  14.693 -0.2490  0.1067  0.1733
10986W        W26117   4.501   0.279  10.406  0.1012 -0.1134  0.2975
10987W        W26118  17.811   4.293  13.703  0.1569 -0.0745 -0.0568
10988W        W26119   4.555   6.178  10.337 -0.0532 -0.0763  0.1079
10989W        W26120   4.856  18.544   4.554 -0.2851 -0.0856 -0.1068
10990W        W26121   1.917   2.723  13.264 -0.0142  0.2039  0.0751
10991W        W26122   6.858  15.420  14.074  0.2873  0.1312 -0.5223
10992W        W26123  13.049   2.411   5.558 -0.1289 -0.2336  0.2853
10993W        W26124   2.233   7.182   0.989 -0.1257  0.0911  0.2481
10994W        W26125  14.550   3.652  12.725  0.2403  0.1222  0.0031
10995W        W26126  14.624   2.014  10.497  0.1015  0.0641  0.1056
10996W        W26127   5.410  17.157  10.751  0.1897  0.0342 -0.2836
10997W        W26128   5.496   1.054  15.398  0.3529 -0.0832  0.2179
10998W        W26129   7.311   9.004  12.971 -0.0770  0.0947  0.0845
10999W        W26130   5.294  10.537  13.540 -0.0057  0.1326 -0.0171
11000W        W26131   7.026   6.199  15.393  0.2535 -0.1609 -0.1078
11001W        W26132   3.060   6.824   0.118  0.0116  0.0456  0.2899
11002W        W26133  11.394  17.600   2.407 -0.0103  0.1534 -0.0527
11003W        W26134  12.096  16.879  11.501 -0.2417  0.1670 -0.3541
11004W        W26135   2.870   3.603   9.730  0.3062  0.0640 -0.0941
11005W        W26136   1.799  15.150  14.509 -0.1725 -0.3439  0.0861
11006W        W26137  14.543  12.342   4.400 -0.3543  0.2666  0.3397
11007W        W26138   8.439   9.867   0.864 -0.3076 -0.2234 -0.0803
11008W        W26139  14.075   6.017   3.419 -0.0558 -0.2383 -0.2610
11009W        W26140   4.556   2.834  13.028  0.2133 -0.4003 -0.1000
11010W        W26141  15.578   2.216   2.644 -0.1326 -0.2590 -0.2267
11011W        W26142  12.412  12.687   1.004  0.1476  0.0817  0.2458
11012W        W26143  14.344   8.341  14.441 -0.1838  0.0652  0.0376
11013W        W26144   6.900  12.318   3.804  0.0293 -0.0508  0.0475
11014W        W26145  14.224  12.996   3.083 -0.1003  0.1547 -0.0021
11015W        W26146  17.314  10.908   2.495  0.1257  0.1700  0.1463
11016W        W26147   7.498  15.925  11.998  0.3266 -0.2877 -0.4019
11017W        W26148   6.626  17.393  10.824 -0.2185  0.0762 -0.0484
11018W        W26149   2.581  17.128   3.263 -0.1805 -0.2225  0.2048
11019W        W26150   9.494   6.759   1.547  0.2190 -0.0590 -0.0885
11020W        W26151   5.671   8.282  12.107  0.3602  0.0518  0.0596
11021W        W26152   5.960   5.971  14.784 -0.0054  0.0773  0.3029
11022W        W26153   3.685   0.646   3.836 -0.3381 -0.1911 -0.0289
11023W        W26154   5.760  16.745   4.132  0.4342  0.1084 -0.1975
11024W        W26155  16.494  16.086  11.528 -0.0381  0.0068  0.1673
11025W        W26156   3.230   2.065   2.152  0.0089 -0.0632  0.0749
11026W        W26157   0.860   3.141   4.494  0.2450  0.0776  0.0305
11027W        W26158   4.279  11.857   0.809  0.1819 -0.0707 -0.0848
11028W        W26159   3.144   3.810  11.902  0.0576  0.1103  0.0543
11029W        W26160  10.522   9.216  13.015 -0.0575  0.0491 -0.4262
11030W        W26161   9.949  10.786   3.982  0.1028  0.1731  0.1798
11031W        W26162  12.919   9.643  14.970 -0.0318 -0.0299  0.0796
11032W        W26163  17.905  18.437   2.887  0.4766 -0.1863  0.1356
11033W        W26164  16.946   5.553   0.043  0.0309 -0.1163 -0.3764
11034W        W26165  12.189  10.335   0.629 -0.0995  0.3113 -0.1016
11035W        W26166  10.987  17.505  13.565  0.0899  0.1021  0.2020
11036W        W26167   6.494  15.763   1.608 -0.1445 -0.0757 -0.1796
11037W        W26168   1.790  14.563   1.717  0.2915 -0.1660  0.0936
11038W        W26169  13.098   0.141   2.434  0.1274  0.2143 -0.0823
11039W        W26170  17.181  14.282   1.832  0.0406  0.2635  0.0934
11040W        W26171  11.252  16.974   2.082 -0.0213 -0.0339 -0.2757
11041W        W26172   0.820   4.673   2.717 -0.0578  0.0062  0.1661
11042W        W26173  12.117   4.740  12.948  0.2550  0.4212 -0.2530
11043W        W26174  12.911   9.730  14.022 -0.2566  0.1378 -0.0069
11044W        W26175  14.847   4.901   1.750  0.4688 -0.1200  0.0736
11045W        W26176   8.197  12.918   0.734 -0.1453  0.1335  0.1252
11046W        W26177  17.683   8.302   3.810 -0.0751 -0.1598 -0.0638
11047W        W26178   0.833  17.678  10.277  0.1884 -0.0835  0.0582
11048W        W26179  10.302  10.735   2.093 -0.3472  0.0640 -0.1085
11049W        W26180   6.393  16.468   2.976 -0.0830 -0.1231 -0.1792
11050W        W26181   0.201  17.307   1.853 -0.3844  0.0799  0.2025
11051W        W26182  12.660  14.456   1.866  0.4210  0.4313 -0.1718
11052W        W26183  15.698   4.103  11.143  0.1273  0.3174  0.2540
11053W        W26184  10.464  10.868   3.261 -0.1961  0.3915  0.1630
11054W        W26185   0.376  17.680   9.998 -0.1419 -0.0873  0.2334
11055W        W26186   1.708  15.744  12.021 -0.0615 -0.4618  0.0495
11056W        W26187  18.158  14.476  14.047 -0.0604  0.0210 -0.0975
11057W        W26188   8.401   4.181  11.738  0.0894 -0.1236 -0.1671
11058W        W26189   0.792  18.053  13.781 -0.1075 -0.0219 -0.1163
11059W        W26190  12.425  17.117  15.713 -0.1335  0.0401  0.0904
11060W        W26191   4.742  11.557   9.962  0.0330 -0.0471  0.1283
11061W        W26192   6.766   0.368   3.881 -0.0925 -0.0456 -0.3856
11062W        W26193  14.928  16.368   0.450 -0.3520 -0.0588  0.0573
11063W        W26194  13.614  10.674   5.915  0.0170  0.1423  0.1445
11064W        W26195   3.682   9.214  12.281 -0.1776 -0.0588  0.1664
11065W        W26196   4.778  17.006   4.203  0.0433  0.1528 -0.0659
11066W        W26197  15.257   1.648  15.072 -0.2082  0.2551  0.0760
11067W        W26198   5.703   0.702  13.368 -0.0857  0.1122 -0.2916
11068W        W26199  13.656   1.540  13.346  0.1413  0.3353 -0.1790
11069W        W26200  11.993  17.995   3.025  0.1303  0.1883  0.0813
11070W        W26201  12.527   4.294   0.566  0.0419  0.1828  0.0815
11071W        W26202   5.877  13.462   3.922  0.0379  0.3073  0.2146
11072W        W26203  15.603  18.751   0.384 -0.1043 -0.0844  0.0804
11073W        W26204   8.207   1.920  13.513 -0.2097  0.0203  0.1073
11074W        W26205   3.404  16.719   4.381 -0.2551  0.0337 -0.1798
11075W        W26206   7.415  14.852   2.718  0.0180  0.0235  0.0208
11076W        W26207   6.207   5.181  12.954  0.1775  0.0990 -0.1423
11077W        W26208   1.909   9.126  11.173 -0.1869  0.2518 -0.6194
11078W        W26209   5.518   0.513  15.146  0.2460  0.1205  0.1835
11079W        W26210   3.434  16.553   2.810  0.1223 -0.1087  0.0985
11080W        W26211  15.322   0.768   5.341  0.1788  0.1659  0.0449
11081W        W26212  16.611   3.863  11.426  0.1646  0.0607  0.2896
11082W        W26213   5.463  16.386  12.685 -0.1187  0.0039  0.2086
11083W        W26214  13.047   8.241   3.697 -0.2953  0.1833  0.0311
11084W        W26215   6.508   7.863   1.666 -0.1099  0.1136  0.0647
11085W        W26216   0.307   0.528   2.728 -0.3883  0.2200 -0.2066
11086W        W26217   8.491   3.568   0.885 -0.0778  0.1669  0.0431
11087W        W26218  13.738   5.763  13.998 -0.3096 -0.2340 -0.3057
11088W        W26219  11.525  15.917   9.966 -0.2137  0.2634  0.0762
11089W        W26220   2.544  10.634  15.494 -0.2453 -0.0227  0.1325
11090W        W26221  12.227  11.119  15.545  0.2260  0.1182 -0.2578
11091W        W26222  12.526   0.886   4.062  0.2293 -0.2560  0.0221
11092W        W26223   7.325  12.969  10.749  0.0229  0.0665 -0.0761
11093W        W26224  10.885   2.260  11.520  0.0673 -0.2327  0.2251
11094W        W26225   6.808  14.108  12.700  0.1426 -0.0235  0.1609
11095W        W26226   8.063   8.295  14.672 -0.1551  0.6356  0.0770
11096W        W26227   5.321   4.482  11.728  0.2533  0.0517  0.0634
11097W        W26228   1.119  15.087   0.880  0.3215 -0.1223 -0.0180
11098W        W26229  13.347   6.798  14.105 -0.3194  0.1022  0.4258
11099W        W26230  16.630   3.600  15.089  0.2346  0.0090 -0.1423
11100W        W26231  10.151   6.231  10.782 -0.3792 -0.1831  0.0367
11101W        W26232  16.853   9.189   2.154 -0.0548 -0.2277  0.1268
11102W        W26233   3.962  17.560   1.699 -0.1072 -0.3031 -0.0747
11103W        W26234  12.278   7.510   0.164 -0.0985 -0.0351  0.0188
11104W        W26235  10.970  14.866   2.096 -0.1723 -0.2815 -0.2095
11105W        W26236   1.017  17.658   2.991  0.3127 -0.0301  0.4715
11106W        W26237  13.266   2.790   4.707  0.0883 -0.0492  0.0506
11107W        W26238   2.135  11.495  13.215  0.2174 -0.0687  0.4466
11108W        W26239   3.480   8.634  14.131  0.0656  0.0485  0.1247
11109W        W26240   9.137  13.809   2.656  0.1281 -0.2918  0.0788
11110W        W26241  17.321   6.356   5.219 -0.1426  0.1872 -0.2686
11111W        W26242   9.050   5.155  11.536 -0.1715  0.1095  0.2933
11112W        W26243   5.966   3.202   4.964  0.2127  0.1364  0.0124
11113W        W26244  16.989  14.169   1.003  0.1839  0.2455  0.3376
11114W        W26245   4.595  11.205   1.897 -0.1257 -0.2322  0.1733
11115W        W26246   1.595   0.116   4.324  0.3045 -0.1362 -0.1487
11116W        W26247   7.082   7.850   5.521 -0.1198 -0.0372 -0.0565
11117W        W26248  11.364   7.913   1.526  0.0183  0.1994 -0.1897
11118W        W26249   6.825  13.909   0.309 -0.0059 -0.0225  0.1350
11119W        W26250   2.485  12.082   5.786 -0.3623 -0.1076 -0.0734
11120W        W26251   3.240   3.659   5.390  0.2000 -0.2443  0.0739
11121W        W26252   3.781   2.539  13.540 -0.1272 -0.2297 -0.1546
11122W        W26253   2.741   2.847   3.134 -0.2040 -0.1478  0.0420
11123W        W26254   3.472  18.685  11.943 -0.0914  0.1933 -0.0362
11124W        W26255   0.760   3.532   3.105 -0.1474  0.0169 -0.2142
11125W        W26256   1.430   1.960   1.214 -0.0517 -0.0214  0.3488
11126W        W26257  12.912  17.446  11.710  0.0533  0.2015  0.0829
11127W        W26258  12.543  18.598   2.625 -0.0350 -0.0656 -0.0570
11128W        W26259  14.169   8.733   0.926 -0.0821 -0.0522 -0.2444
11129W        W26260  16.654  18.595  12.775  0.2581 -0.0027  0.0148
11130W        W26261  15.675  16.973   5.233  0.2841  0.0670 -0.1173
11131W        W26262  17.946  12.826   3.988 -0.0277  0.0561  0.0577
11132W        W26263  13.026   0.058  15.030 -0.5324 -0.0010 -0.1789
11133W        W26264  12.980  14.411  14.789  0.2085  0.2998 -0.0550
11134W        W26265  12.431  12.639  14.174  0.0267  0.0455  0.1832
11135W        W26266  15.866   0.077  13.530 -0.1556  0.2093 -0.1319
11136W        W26267   7.135   7.988  12.434 -0.2889  0.0742 -0.2556
11137W        W26268   0.395   7.169   0.844  0.0380 -0.0800  0.1354
11138W        W26269   3.729  11.674   4.277 -0.0290  0.0056  0.1758
11139W        W26270   0.785  12.216  15.531  0.2197  0.0127 -0.0504
11140W        W26271   9.254  14.434   1.897 -0.2101 -0.3333  0.0940
11141W        W26272   1.192   3.465  11.686 -0.1865 -0.0703  0.2661
11142W        W26273   8.517   8.804  14.034  0.2295 -0.1857 -0.0746
11143W        W26274   6.445   1.374   3.116  0.3132 -0.1114  0.0779
11144W        W26275   9.441   1.805  15.468  0.5771  0.0106 -0.0389
11145W        W26276   2.457  18.272  11.300 -0.0416  0.0080  0.2445
11146W        W26277  16.461   7.417  14.272  0.0609 -0.2641  0.1100
11147W        W26278  14.233   5.547  14.874  0.4685 -0.2391 -0.2278
11148W        W26279  10.981  13.355  15.042  0.4117 -0.0398 -0.0800
11149W        W26280   0.249  17.670   0.804 -0.1595 -0.1276  0.0088
11150W        W26281   1.675  15.711   2.510 -0.0018  0.1512  0.0356
11151W        W26282  17.402   7.706   5.120 -0.0793  0.1647 -0.0657
11152W        W26283   6.911   8.680  15.270 -0.1832 -0.0789 -0.2384
11153W        W26284   5.153   9.110  15.151  0.1166  0.0161 -0.1724
11154W        W26285   3.550  13.627   3.680 -0.0007  0.4782 -0.1019
11155W        W26286   1.779  11.643  11.942  0.0509  0.0771 -0.5139
11156W        W26287  11.648   0.781   2.067  0.0960 -0.4417 -0.0142
11157W        W26288   8.697  14.492   3.176  0.0688  0.2102  0.0081
11158W        W26289   9.848  17.695   2.063 -0.1801  0.3626  0.0188
11159W        W26290  11.959  13.105   5.013 -0.4559  0.0138  0.0379
11160W        W26291  16.121   0.274   5.013 -0.2535  0.0901 -0.1553
11161W        W26292  11.003   6.842  14.288  0.1924 -0.0290 -0.3667
11162W        W26293   2.251   8.770  11.362  0.0313  0.1059 -0.1262
11163W        W26294  13.379  14.012  11.975 -0.0886  0.0991 -0.2576
11164W        W26295  16.957  15.753  15.266  0.2237  0.2273 -0.3452
11165W        W26296   6.944   7.395   0.200  0.1935  0.2476  0.3048
11166W        W26297  13.767  10.493  10.128 -0.3394  0.2931 -0.0242
11167W        W26298   6.112   4.511  10.849 -0.0634  0.1285  0.0222
11168W        W26299  12.493  16.519  11.077 -0.0359  0.0128 -0.2624
11169W        W26300   1.511   2.826   5.737 -0.1117  0.0206 -0.0641
11170W        W26301  13.372  11.163   2.694 -0.1068  0.1551  0.2110
11171W        W26302  15.049   2.792   4.370  0.3761  0.1345  0.0056
11172W        W26303   7.564  16.050  13.568 -0.0975  0.3885 -0.4622
11173W        W26304  11.642  13.010   3.877  0.1585  0.1566  0.1581
11174W        W26305  10.492  12.421  12.743  0.2530 -0.2674  0.1290
11175W        W26306  12.257  10.757   5.792  0.0209 -0.0665 -0.0061
11176W        W26307  16.971  13.213   1.870  0.2648  0.0882 -0.1022
11177W        W26308  12.792  16.319   2.514 -0.1013 -0.3153 -0.3977
11178W        W26309  10.931  16.731   2.402  0.1415 -0.1788  0.1206
11179W        W26310   0.665   9.531   1.807 -0.3494 -0.2072  0.3793
11180W        W26311   5.990   9.196  14.554  0.0152 -0.3108  0.4282
11181W        W26312   6.923   6.897   1.532  0.2805 -0.0691 -0.1357
11182W        W26313  16.447   2.781  14.951  0.2279 -0.0688 -0.1194
11183W        W26314   3.695  10.491  14.916  0.1894 -0.1145  0.0649
11184W        W26315  10.168  18.068   0.324 -0.0130  0.1502  0.5047
11185W        W26316   4.808  15.425  11.050 -0.3407 -0.0474 -0.1098
11186W        W26317   8.330   2.719  14.844 -0.3336 -0.3171  0.1973
11187W        W26318   1.625   1.599  11.805 -0.1071 -0.4026  0.2202
11188W        W26319   8.041  16.522   1.301  0.1039 -0.1327 -0.3355
11189W        W26320  12.739  12.276  13.667  0.1057 -0.1762  0.1255
11190W        W26321  14.725   6.156  14.611 -0.0057 -0.3749 -0.3286
11191W        W26322   8.347   7.288   9.939 -0.0406  0.0490  0.1163
11192W        W26323   9.088   4.970   2.696 -0.3248  0.0254 -0.2115
11193W        W26324  10.002  15.157  11.029 -0.3082  0.1334 -0.0875
11194W        W26325   5.079  18.746   9.889 -0.0641  0.1874 -0.1456
11195W        W26326  10.037  12.684   2.082  0.0998  0.0637  0.4058
11196W        W26327   1.357   0.481  14.185 -0.1018  0.0797  0.2204
11197W        W26328  18.298   0.792  12.294 -0.0786  0.1815 -0.1365
11198W        W26329   6.752  17.990   3.090 -0.1878 -0.0173 -0.0066
11199W        W26330   1.513   9.987  12.935 -0.1423 -0.1340  0.3608
11200W        W26331   7.380   9.164   3.098  0.1103 -0.4204  0.2401
11201W        W26332   4.569   9.399  12.277  0.0587 -0.1351 -0.2116
11202W        W26333   5.552   8.247   1.577  0.0873  0.0064  0.0272
11203W        W26334  15.444  11.285  14.972 -0.0792 -0.0557 -0.4685
11204W        W26335   3.752   7.059   1.127  0.1406  0.1488 -0.0307
11205W        W26336   3.370  12.824  14.500 -0.0562  0.2060 -0.1438
11206W        W26337  16.878  15.690  12.715  0.0150 -0.1738  0.0070
11207W        W26338  13.112   9.729  11.296 -0.0810  0.1305 -0.0703
11208W        W26339  10.639  12.425  12.148  0.2183  0.1720 -0.2099
11209W        W26340  16.969  16.308   1.974 -0.2704 -0.0143 -0.0909
11210W        W26341   3.607   0.925   0.408  0.0351  0.0309 -0.0879
11211W        W26342  11.270   8.385  15.350  0.0976 -0.2721  0.1157
11212W        W26343  10.245   3.965  10.464 -0.1255 -0.2820 -0.4067
11213W        W26344  14.522  15.510  13.368 -0.0634  0.2856  0.0547
11214W        W26345  17.572   6.388   4.813  0.0398  0.1245 -0.0264
11215W        W26346  11.882  14.841   1.040 -0.2365  0.1970  0.2699
11216W        W26347   7.516   1.522  15.518 -0.0250 -0.0551  0.2212
11217W        W26348   1.808   8.025  13.386  0.1112  0.1727  0.0452
11218W        W26349  16.543  17.147   2.206 -0.1695  0.1198  0.2101
11219W        W26350   2.155   6.344   0.434 -0.2365 -0.0668 -0.0657
11220W        W26351  14.991   1.074   1.543  0.4355  0.0692  0.5802
11221W        W26352   1.538   7.404  14.170 -0.0399 -0.3195 -0.2064
11222W        W26353   3.423   3.389  13.615  0.2155 -0.1971  0.0377
11223W        W26354  16.483   3.312   3.806  0.0574  0.2067 -0.1837
11224W        W26355  18.211  15.321   4.379 -0.2430  0.2446 -0.0225
11225W        W26356   8.646   7.703  12.285  0.1507 -0.0732  0.0620
11226W        W26357   7.810   9.557   2.432 -0.1752 -0.0588 -0.1550
11227W        W26358   8.007   6.524  10.889 -0.2006  0.2416  0.3185
11228W        W26359  18.645  17.110   5.112 -0.0554  0.0790  0.0549
11229W        W26360   4.332  16.656  10.109  0.0113 -0.1668 -0.1662
11230W        W26361  16.749   6.326   4.516  0.1011  0.2142 -0.0040
11231W        W26362  16.623   7.625   3.015  0.4513 -0.0653  0.1876
11232W        W26363  18.695   8.381  11.300  0.1353 -0.3989  0.0540
11233W        W26364   2.997   5.579  11.224  0.2064 -0.0873 -0.1798
11234W        W26365  14.520  11.974  14.108  0.3216  0.1446 -0.2048
11235W        W26366   1.053  17.917  15.718 -0.0255 -0.1516  0.3307
11236W        W26367   8.776  17.246   0.199 -0.1425 -0.2805  0.0853
11237W        W26368  14.589  14.296  15.631  0.0875 -0.1908 -0.2024
11238W        W26369   1.283  10.898   3.198 -0.1917  0.1770 -0.0820
11239W        W26370   4.093   1.874  13.340 -0.2931  0.1040  0.2942
11240W        W26371  11.711   1.289  12.008 -0.1604  0.0119 -0.0798
11241W        W26372   1.431  13.848   4.532  0.0888  0.0295 -0.1976
11242W        W26373  16.556  13.417   4.173  0.1466  0.3927 -0.0673
11243W        W26374  17.176  13.326   1.368  0.1331 -0.0281  0.0434
11244W        W26375   1.167  16.620   1.934  0.0915  0.3843 -0.0757
11245W        W26376   3.226  15.195  15.096 -0.2450 -0.0183  0.2765
11246W        W26377  14.523   7.172   2.485 -0.0459 -0.2972 -0.2530
11247W        W26378  11.890  13.007  15.208 -0.0969  0.1637 -0.1642
11248W        W26379   0.597  13.863   0.527  0.3958 -0.3169 -0.0073
11249W        W26380   8.136   8.826  14.409  0.4145 -0.0580  0.1980
11250W        W26381   0.489   0.621   4.691  0.2134 -0.2036  0.3824
11251W        W26382  11.458   0.584  14.157 -0.2102  0.0973 -0.2895
11252W        W26383  18.150   9.937   0.805 -0.0201  0.1413  0.1619
11253W        W26384  15.881  16.674   0.185 -0.1993  0.4156  0.0814
11254W        W26385  17.161  17.992   2.087 -0.1445 -0.0801  0.1332
11255W        W26386   2.541   2.128   2.555 -0.2970 -0.3450  0.3392
11256W        W26387   5.206  14.681   3.058 -0.1110  0.0350  0.0225
11257W        W26388  14.467   1.931  14.652  0.1272 -0.1533 -0.0487
11258W        W26389   3.655  18.547   3.146  0.0856  0.1605  0.1274
11259W        W26390   4.060   0.493   9.534  0.0534  0.1817 -0.1001
11260W        W26391  14.530  15.247   4.620 -0.2988 -0.4432  0.0326
11261W        W26392  17.543  15.673   1.153  0.0261  0.0984 -0.1270
11262W        W26393  11.366  15.828   2.411 -0.1204 -0.2507 -0.1911
11263W        W26394   6.074  16.668  14.999  0.1473 -0.2612 -0.2469
11264W        W26395  12.859   3.324   5.269  0.1565  0.0247 -0.0206
11265W        W26396  10.137   4.494  12.935 -0.0415  0.0792 -0.0968
11266W        W26397  11.786   5.186   2.030  0.2194 -0.2573  0.1338
11267W        W26398  15.659   2.315  12.256 -0.1971  0.2144  0.1373
11268W        W26399  18.220   5.539  15.317  0.4066 -0.0951  0.2627
11269W        W26400  11.723   0.310  13.078 -0.3317  0.0481 -0.1102
11270W        W26401   3.791   9.714   3.005 -0.1929 -0.1055  0.0513
11271W        W26402   3.150  16.334  15.138  0.1475  0.0380 -0.0462
11272W        W26403  11.520   6.776   4.058 -0.0768 -0.0634  0.0981
11273W        W26404   0.776   2.675  10.803 -0.0633 -0.2740  0.3667
11274W        W26405   4.235  16.983   4.042  0.1265  0.0355 -0.1890
11275W        W26406   7.666  10.772  11.557  0.2618  0.1026  0.1408
11276W        W26407   2.961   5.267  12.779 -0.1057  0.1418  0.0922
11277W        W26408  18.669   0.597   0.123 -0.1363 -0.0204 -0.0755
11278W        W26409  18.428  12.651  13.304  0.3103  0.3327 -0.1531
11279W        W26410   5.504   7.561   1.748  0.1235  0.0106  0.1943
11280W        W26411   2.304   3.551   2.444  0.0231  0.3210 -0.1602
11281W        W26412   4.363   8.096   2.706  0.0807  0.0320 -0.0646
11282W        W26413  10.989  17.989   4.138 -0.1577  0.4416 -0.0876
11283W        W26414   2.328   6.550   2.421  0.1311  0.0073 -0.1742
11284W        W26415   9.897  10.475   4.607 -0.0495  0.2910  0.0214
11285W        W26416   4.685   1.465   1.957 -0.3696  0.0677  0.2194
11286W        W26417   9.325  12.038   5.104 -0.1648  0.3543  0.6051
11287W        W26418  16.202  16.714   2.050  0.1838 -0.3188  0.2198
11288W        W26419   0.495  11.475   3.149  0.1920 -0.0414 -0.1669
11289W        W26420   7.311  11.645   5.797  0.0031 -0.1819 -0.2016
11290W        W26421  13.793   0.032   0.519  0.1546  0.0614  0.3154
11291W        W26422   3.810  10.715   3.555  0.0434 -0.3513  0.1203
11292W        W26423  17.611  16.071  10.617 -0.0614  0.0380 -0.2651
11293W        W26424   9.103  18.265   2.148  0.1529 -0.4017  0.1636
11294W        W26425   4.666  10.780   3.393  0.1566  0.1641 -0.0438
11295W        W26426   6.991  11.932   1.131  0.0635  0.0283 -0.0598
11296W        W26427  17.398   9.198   2.882 -0.1169  0.0832 -0.0735
11297W        W26428   6.688   1.312  15.234  0.1391 -0.0340  0.2748
11298W        W26429   8.853  17.854   2.363 -0.0432 -0.1387 -0.0774
11299W        W26430   7.224  17.679   5.370 -0.0839  0.1077  0.1172
11300W        W26431  12.787  16.287  10.004 -0.1546 -0.3420 -0.0017
11301W        W26432  18.031   1.204   0.631 -0.0669 -0.0695  0.1337
11302W        W26433  17.680   9.964  14.952  0.0542 -0.1943  0.3625
11303W        W26434  18.578   1.802  13.243 -0.1888  0.1856 -0.2065
11304W        W26435   6.570   2.750  14.725 -0.2058  0.2345  0.0716
11305W        W26436   9.922   3.707  12.313  0.1275  0.4726  0.1543
11306W        W26437  12.522   0.696   2.576  0.3225 -0.0176 -0.1024
11307W        W26438   2.943   5.435  12.164 -0.2486 -0.1004  0.0350
11308W        W26439   7.695   8.935   4.968  0.1829 -0.2716  0.1410
11309W        W26440  10.765   5.687  14.718  0.0167 -0.1500 -0.0985
11310W        W26441  12.456   1.900  14.837  0.0030 -0.1135  0.2497
11311W        W26442  11.525   5.947   4.028 -0.0587  0.1199 -0.0859
11312W        W26443  15.918  11.507   0.456  0.1479 -0.1227  0.3465
11313W        W26444   3.192   3.005   5.982 -0.0609  0.1430  0.2057
11314W        W26445  16.600   9.727  11.875 -0.1258  0.0651  0.1764
11315W        W26446  11.185   2.277   4.353  0.0606 -0.2370 -0.2024
11316W        W26447  15.299   3.315   3.512  0.3453  0.2170 -0.2546
11317W        W26448  18.694  18.563   5.719  0.2182 -0.0386 -0.1258
11318W        W26449   4.094   7.782   0.212 -0.0287  0.2345  0.0809
11319W        W26450   9.459   4.920  13.176  0.3423  0.1187 -0.2546
11320W        W26451  16.029  13.332   2.183 -0.2244  0.0409  0.2027
11321W        W26452   4.848  14.415  14.533  0.2769  0.0015 -0.1802
11322W        W26453  14.040   1.050  15.757  0.0033 -0.0500  0.1818
11323W        W26454  12.377  16.881   0.993 -0.2608  0.0423  0.1654
11324W        W26455  10.928   6.112   2.002  0.1314 -0.3396 -0.3296
11325W        W26456  12.121  18.557   2.948 -0.3078 -0.0402  0.0101
11326W        W26457  15.641   1.847   6.141  0.1170  0.0882  0.2376
11327W        W26458  11.578  13.383  15.376 -0.2676  0.2371 -0.3353
11328W        W26459  14.087  15.840  13.272 -0.0442  0.0817 -0.1139
11329W        W26460  15.808  14.687  12.651  0.2043 -0.3248  0.1382
11330W        W26461  12.866  16.853  10.886 -0.1718 -0.2920  0.1736
11331W        W26462   3.618  15.522   0.369 -0.2695  0.2255 -0.1758
11332W        W26463   6.718  17.588   5.356  0.0434  0.0269  0.1312
11333W        W26464  18.000   5.020  11.526  0.0709 -0.0792  0.1795
11334W        W26465  11.943  10.391   5.022 -0.0508 -0.1829  0.0729
11335W        W26466   9.988   1.321  14.823  0.0194  0.0323 -0.2058
11336W        W26467   7.359   2.965  14.986  0.2417  0.0123  0.0685
11337W        W26468  12.481   7.953   2.522  0.0289  0.1324  0.2925
11338W        W26469   3.867  14.039  14.311 -0.0142 -0.1342  0.2051
11339W        W26470   6.303  12.228   0.083  0.0071  0.0844 -0.1496
11340W        W26471  18.303  10.569   1.484 -0.2809  0.2574  0.0778
11341W        W26472  10.861  16.908  11.432 -0.0692 -0.1768 -0.1553
11342W        W26473   9.358  12.735   1.433  0.0904  0.0781  0.0143
11343W        W26474  16.430  18.547  11.780 -0.1727 -0.0428  0.2616
11344W        W26475   8.333   8.080  11.713  0.1184 -0.0945  0.2320
11345W        W26476   7.941  12.486   2.914 -0.1723 -0.1497  0.1612
11346W        W26477   2.997  14.573  11.655  0.4690 -0.3020  0.1140
11347W        W26478   5.427  14.477   1.162  0.3118  0.2405 -0.2211
11348W        W26479   7.031   5.941   4.138 -0.0509 -0.3931  0.1608
11349W        W26480   5.910   4.348  15.694 -0.1063 -0.1180 -0.2673
11350W        W26481  14.578  13.090   3.783  0.0581 -0.1452  0.2386
11351W        W26482  16.684   5.366  12.930 -0.0731  0.0983 -0.0173
11352W        W26483   9.912   8.078   2.796  0.1424  0.2358  0.4312
11353W        W26484  11.615   9.997  14.693 -0.0199 -0.1735 -0.2909
11354W        W26485   0.879  17.219   0.865  0.2895 -0.0595 -0.2370
11355W        W26486   8.734  18.496  11.325 -0.2747  0.2719  0.0644
11356W        W26487   1.411   5.984  13.132  0.2307 -0.0486  0.3377
11357W        W26488   2.779  13.570  14.888 -0.0833  0.1147  0.0264
11358W        W26489  10.829   3.162   2.705 -0.0740 -0.1192  0.0659
11359W        W26490   3.552  12.615  12.236  0.2576  0.1783  0.1960
11360W        W26491  12.392   1.383  13.952 -0.2257 -0.0278  0.0147
11361W        W26492   6.017   5.529   1.003  0.4210 -0.0674  0.0493
11362W        W26493  14.208  13.770   5.719 -0.1053 -0.0399 -0.4509
11363W        W26494  12.906   3.055  14.888  0.1683 -0.1121  0.0655
11364W        W26495  17.132   3.586   2.201 -0.1421  0.1523  0.0415
11365W        W26496   7.353   6.778   0.542  0.2146 -0.2381 -0.2239
11366W        W26497   9.097  13.722   1.119 -0.2421 -0.0136 -0.1483
11367W        W26498   0.060  14.450   1.216  0.2219  0.0347  0.3023
11368W        W26499  16.658  14.366   3.965  0.0678  0.0979 -0.0231
11369W        W26500  10.604   6.858   2.216 -0.0021 -0.2153  0.0118
11370W        W26501   1.138  15.767   2.164  0.2780 -0.1974  0.0363
11371W        W26502  15.873   8.076  14.974 -0.1938  0.3261 -0.1525
11372W        W26503  15.288  17.490  10.814 -0.0276 -0.0930 -0.1095
11373W        W26504  12.517   4.173   3.538  0.1038 -0.1293 -0.4085
11374W        W26505  11.416  11.667   5.352 -0.0117 -0.1440 -0.3134
11375W        W26506  18.024   7.577   5.194 -0.1533  0.2447  0.2054
11376W        W26507   2.312  12.296  12.595  0.1981 -0.0900  0.0622
11377W        W26508   6.886   4.900  14.707 -0.0514  0.0923  0.2058
11378W        W26509   7.806  15.806  11.607  0.0596  0.1402 -0.3680
11379W        W26510  18.012  10.062  12.215 -0.0481 -0.2798 -0.1741
11380W        W26511  12.773  17.015  13.797 -0.0505  0.1734 -0.1575
11381W        W26512   5.986  11.509   0.157  0.0870 -0.0894  0.0231
11382W        W26513  13.485   0.428  13.138  0.0553 -0.2152 -0.4700
11383W        W26514  16.251   8.720   4.639  0.2807 -0.3768 -0.3172
11384W        W26515   9.498   2.900  12.171 -0.1230  0.0273 -0.1221
11385W        W26516  17.033  13.920  15.005  0.1180 -0.3844 -0.3622
11386W        W26517   8.975   2.803  10.853  0.1755  0.1311  0.2341
11387W        W26518   9.599   8.533   0.544 -0.2946 -0.4120  0.2896
11388W        W26519  15.646  12.493  12.503  0.0664 -0.3210  0.1882
11389W        W26520  10.195  15.521  10.722 -0.2085  0.2191 -0.0989
11390W        W26521  11.448  13.603   2.737  0.1151 -0.0879  0.3563
11391W        W26522   8.055  11.952  14.724 -0.0099  0.1476  0.0479
11392W        W26523   9.181   3.540  10.042 -0.0078  0.2077  0.1325
11393W        W26524  14.646   2.828  14.108  0.0794 -0.1507  0.0182
11394W        W26525   2.969  13.891  15.270 -0.0332  0.2076 -0.1557
11395W        W26526  13.851  10.332   5.031 -0.2611  0.2186  0.0933
11396W        W26527  12.661  10.266   1.303  0.0982 -0.0840 -0.2350
11397W        W26528   1.468   5.710   1.905  0.1510 -0.2344 -0.0892
11398W        W26529   5.358   9.844   9.613  0.0957  0.1981  0.2005
11399W        W26530   4.754   3.209  14.129 -0.2477 -0.2928 -0.3699
11400W        W26531   0.183   1.451   5.238  0.2660  0.2372 -0.0821
11401W        W26532  15.586  11.610  11.331 -0.3180  0.1588  0.0526
11402W        W26533   7.707   0.511   4.953 -0.3050 -0.0152  0.0997
11403W        W26534   7.293  18.588  12.647  0.3646  0.2434 -0.1030
11404W        W26535  13.887  10.862  11.978  0.1269 -0.0993  0.1247
11405W        W26536  15.042   8.514  12.939 -0.0252 -0.0426  0.0301
11406W        W26537  10.255  12.555   4.833 -0.1145  0.0607  0.0375
11407W        W26538  18.469   1.447   1.126 -0.0342  0.4156  0.1565
11408W        W26539  17.167   5.633   2.997  0.0737 -0.0855  0.3954
11409W        W26540   4.637  11.543   0.910  0.2581  0.1064  0.0075
11410W        W26541  14.022  18.557   1.001  0.0508 -0.0011  0.2223
11411W        W26542  12.625  12.042   5.037  0.1533  0.0762 -0.1460
11412W        W26543  17.709   8.422  13.215  0.0832  0.0576  0.2105
11413W        W26544   1.140  17.054   3.068 -0.0110  0.2579 -0.1676
11414W        W26545   2.474   4.121   0.140  0.0408  0.2560 -0.5105
11415W        W26546  13.179  18.277   0.008  0.0316 -0.0584  0.2733
11416W        W26547  12.167   2.162   3.385  0.0868 -0.1691 -0.0464
11417W        W26548   2.911   7.330   4.268  0.0448  0.1382  0.0801
11418W        W26549   4.187   9.393   0.798 -0.3602  0.2682 -0.2317
11419W        W26550  13.985  11.333  12.151 -0.2440 -0.0397  0.2466
11420W        W26551   1.436   1.144   5.530 -0.2453 -0.1064  0.1295
11421W        W26552  16.204   3.441   2.388 -0.0725  0.5255  0.0528
11422W        W26553   0.471  10.439  10.117  0.0780 -0.0697 -0.0766
11423W        W26554  14.272   0.296   2.916 -0.3265 -0.0096 -0.5400
11424W        W26555   5.518  14.034   0.286  0.1130  0.3435 -0.1238
11425W        W26556   9.858  16.507  12.760  0.0477  0.1330 -0.4527
11426W        W26557  15.070   9.692  13.627 -0.1473  0.1672  0.0138
11427W        W26558  13.993   2.425   0.938 -0.0046  0.1395 -0.0154
11428W        W26559  13.201  17.983   5.879  0.1191 -0.2485 -0.0757
11429W        W26560   6.698  11.051  12.968 -0.1906 -0.0143  0.1983
11430W        W26561  13.398  15.748  10.441  0.0351  0.0834  0.2286
11431W        W26562  16.896   7.480   0.020  0.1445 -0.0580  0.1032
11432W        W26563  11.708  12.003   2.511 -0.3951 -0.1407 -0.1673
11433W        W26564  16.593  11.963   5.217 -0.0347  0.1017 -0.0518
11434W        W26565  12.575  16.582   0.635  0.1819 -0.0896 -0.1096
11435W        W26566  11.560  12.911   1.778  0.1995 -0.2401 -0.0545
11436W        W26567  15.965   2.208  12.978  0.0464 -0.1956 -0.2041
11437W        W26568   4.593  17.347  15.568 -0.0398 -0.2531 -0.0200
11438W        W26569  14.275  12.215   2.055 -0.1876  0.2927  0.1575
11439W        W26570  13.244   6.588   0.204 -0.0016 -0.0346  0.4147
11440W        W26571  11.692   5.541   2.371  0.2122  0.0921  0.2320
11441W        W26572  10.203  14.763  13.619  0.1907  0.1337  0.2780
11442W        W26573  11.389   8.487  13.370 -0.3890 -0.2307 -0.0501
11443W        W26574  17.505   9.183  14.499 -0.0985  0.1519  0.0930
11444W        W26575   1.172  15.038   4.416  0.0633 -0.1324  0.0960
11445W        W26576   5.111  10.166   4.036 -0.0969 -0.1523 -0.2699
11446W        W26577  14.749  11.351  13.390 -0.0174  0.0390 -0.0273
11447W        W26578   8.240  10.569   3.974  0.2426 -0.2745  0.1675
11448W        W26579  17.467  16.872   3.718 -0.1007 -0.1717  0.1450
11449W        W26580  12.659   3.420  15.175 -0.0675 -0.3978  0.1217
11450W        W26581   8.776  13.988  10.062  0.3451  0.1214  0.1141
11451W        W26582   4.670  16.354   5.347  0.1594 -0.0360 -0.2494
11452W        W26583   7.937  18.376  15.039 -0.0311  0.1110 -0.1299
11453W        W26584  15.988   0.786   1.781 -0.0933 -0.0326 -0.0039
11454W        W26585   1.666  14.638   3.478 -0.0697  0.4381  0.1152
11455W        W26586   3.417  12.594   3.869 -0.3313 -0.0612  0.0578
11456W        W26587   3.166  15.666  15.213  0.0255  0.0892 -0.3034
11457W        W26588   3.949   1.538  10.603 -0.0645  0.0139  0.1249
11458W        W26589  12.746   6.871   4.017  0.0508  0.1043 -0.0997
11459W        W26590   1.291   0.288  10.546 -0.1830  0.2414 -0.0459
11460W        W26591   8.622  13.201   2.958  0.4022 -0.1534 -0.0326
11461W        W26592   6.388   0.123  13.223  0.2072 -0.1635 -0.2283
11462W        W26593   5.481  15.254  14.593  0.2432  0.1212  0.0705
11463W        W26594  12.530  11.077   6.806 -0.1356 -0.2877 -0.2637
11464W        W26595  18.527   9.669  12.615  0.1003  0.1796  0.3297
11465W        W26596  11.270   8.119  11.313 -0.0990  0.3297  0.1591
11466W        W26597   0.155  15.732   1.804 -0.0941 -0.0551  0.0052
11467W        W26598  15.053  18.357   4.721 -0.0309  0.2509  0.1216
11468W        W26599   9.495  12.394  13.498 -0.4010 -0.2011  0.1565
11469W        W26600   6.161  18.210  14.450  0.0763  0.1546 -0.1026
11470W        W26601  11.643  10.415  11.997 -0.1933 -0.0655  0.1304
11471W        W26602  15.111   6.872  10.093 -0.0598 -0.0909  0.0965
11472W        W26603   8.388   5.884   0.852  0.2938  0.1001 -0.0265
11473W        W26604   3.626  18.003   4.231 -0.2751 -0.2712  0.4409
11474W        W26605  14.452   4.993   3.478  0.0582 -0.1360 -0.0180
11475W        W26606  13.880   7.057  12.961 -0.3608 -0.0830  0.2466
11476W        W26607   3.174  14.092  12.392  0.2124 -0.2723  0.1447
11477W        W26608  15.255  16.169   0.785  0.0561  0.0723  0.0462
11478W        W26609  15.312   3.430   1.224 -0.1021  0.0513 -0.2224
11479W        W26610  11.726   5.399  15.415  0.3987  0.0276 -0.0571
11480W        W26611   5.836   6.899  10.989  0.2670  0.2963  0.1275
11481W        W26612   6.444  14.354   2.910  0.0086  0.0196 -0.2384
11482W        W26613   7.786  14.145  11.631  0.3040  0.2593  0.1554
11483W        W26614   0.200   8.656  13.915  0.2529 -0.2546 -0.1727
11484W        W26615   7.073  15.802  12.722  0.3081  0.3384  0.1440
11485W        W26616  14.987  15.200  14.231  0.1404  0.0428  0.3104
11486W        W26617   7.188   5.805  12.833 -0.0728  0.3895 -0.0701
11487W        W26618   8.989  18.335  10.319  0.0057  0.0553  0.1003
11488W        W26619   9.568  14.858   0.945 -0.0675  0.1174 -0.1446
11489W        W26620  10.414  13.947  14.617  0.0402  0.1722 -0.0053
11490W        W26621  16.962   6.429   1.131 -0.0334  0.0104 -0.1119
11491W        W26622  18.380  14.797   4.741 -0.1322  0.0443 -0.3142
11492W        W26623  13.829  13.922   1.539 -0.1053 -0.1577 -0.0332
11493W        W26624   8.030   3.611   0.645  0.2601  0.0780  0.0689
11494W        W26625  10.301   7.346   5.442 -0.2269 -0.4574  0.0229
11495W        W26626   1.806  15.192  13.285  0.2415  0.3304 -0.1596
11496W        W26627  17.653   5.938   4.559 -0.1194  0.1460  0.0930
11497W        W26628   9.135   3.048   9.832 -0.0564  0.1422  0.0021
11498W        W26629   6.234  14.699  12.430 -0.0557  0.0040  0.0844
11499W        W26630   4.809  15.076  14.055 -0.0687 -0.3664  0.1157
11500W        W26631  13.475  12.396   5.808  0.0923 -0.1183 -0.0473
11501W        W26632  12.132  14.603   4.682 -0.0016 -0.1565 -0.2363
11502W        W26633   6.585  12.526  10.563  0.3401 -0.0929  0.2970
11503W        W26634  17.137  17.324   2.889  0.2352  0.2399  0.1475
11504W        W26635   0.477   6.998  12.499 -0.0883  0.1263  0.4223
11505W        W26636   9.291  10.466  12.410  0.1880 -0.2049  0.0842
11506W        W26637  10.798   9.791  15.419  0.1568 -0.0071  0.1804
11507W        W26638  13.172  14.661   2.111  0.1516  0.3103 -0.1535
11508W        W26639   9.773   6.590   3.502 -0.1496 -0.0254 -0.2623
11509W        W26640  11.995   7.572   3.669  0.1148  0.1663 -0.4128
11510W        W26641   6.436  18.287  11.041  0.1740  0.0408  0.0332
11511W        W26642  17.986   0.924  15.203 -0.0975 -0.0076 -0.2454
11512W        W26643   9.062  15.103  12.691 -0.2716  0.0513  0.1586
11513W        W26644   1.925   4.924  15.082 -0.3306 -0.2115 -0.1586
11514W        W26645   3.531   0.167   4.118  0.1606  0.1068  0.1041
11515W        W26646   3.729  12.823   1.233 -0.0087  0.1086  0.2643
11516W        W26647  11.488   0.335  12.290 -0.1439 -0.2361 -0.1090
11517W        W26648   1.667  17.440  12.792 -0.0946  0.0610  0.2287
11518W        W26649   0.237  16.391   5.691  0.0301 -0.0821 -0.2319
11519W        W26650   0.943  12.074  10.012  0.1537  0.2013  0.1238
11520W        W26651  13.030  15.379  11.093 -0.0577 -0.0304 -0.0173
11521W        W26652   5.365  13.117   1.525  0.0513 -0.0158  0.3616
11522W        W26653   2.760   7.993  10.756 -0.1411 -0.4581 -0.0051
11523W        W26654  15.504   7.636  13.915 -0.1057  0.1765  0.1684
11524W        W26655   0.855  11.051  14.342  0.0870 -0.1868 -0.0652
11525W        W26656   4.860   9.143  14.020  0.0949 -0.0157  0.0436
11526W        W26657   8.993   3.965   0.288 -0.2103 -0.0551  0.0048
11527W        W26658  16.162  12.791  13.835  0.0965  0.0922  0.1756
11528W        W26659  12.678   1.618   1.012 -0.1078  0.0046  0.0524
11529W        W26660   5.844  13.037  14.668 -0.0651 -0.2609  0.2809
11530W        W26661   6.078  15.481   2.872  0.2240 -0.0268 -0.0441
11531W        W26662   7.053   4.778  14.214  0.0245 -0.1052  0.2806
11532W        W26663  11.357   5.774  15.541 -0.0828 -0.0922 -0.0817
11533W        W26664  12.697  10.697   2.333  0.1354 -0.2734 -0.4044
11534W        W26665  16.147  16.552  15.416 -0.0494  0.1159 -0.2071
11535W        W26666   9.889  16.167   4.523  0.2320  0.5254  0.1297
11536W        W26667  13.735   6.724   1.809  0.0139 -0.3426 -0.4508
11537W        W26668  10.963   5.627  10.798 -0.0807  0.2328  0.3098
11538W        W26669   6.728  13.518  15.682  0.2397  0.1496  0.1709
11539W        W26670   5.216  15.425  15.493 -0.1028 -0.1662 -0.0824
11540W        W26671   4.339  11.446   0.489  0.1920 -0.0641 -0.2730
11541W        W26672  16.360   8.111   2.308  0.0163  0.0238  0.2931
11542W        W26673   3.385   4.779  14.423  0.2084  0.0502 -0.1077
11543W        W26674   4.539   0.655   1.677 -0.4006  0.1716 -0.1419
11544W        W26675  14.253   1.637   4.336 -0.4868 -0.0269 -0.0357
11545W        W26676   8.791   0.685  15.526 -0.0951 -0.0362 -0.1876
11546W        W26677  12.143  17.978   1.754  0.1118 -0.0996  0.0717
11547W        W26678   3.458  16.207  15.557  0.0576  0.1005  0.4177
11548W        W26679   9.482  13.147  13.041  0.1502 -0.2863  0.0618
11549W        W26680   3.269  10.426  11.727 -0.2305 -0.0420  0.2824
11550W        W26681  18.709   4.056  12.633  0.0763 -0.0268 -0.1348
11551W        W26682  16.947  18.505  11.870 -0.2182  0.0648 -0.1070
11552W        W26683   4.778   7.851  14.419 -0.1603 -0.4670 -0.0971
11553W        W26684  15.459  18.292  15.294  0.0705  0.2192  0.1490
11554W        W26685   1.880  11.055   1.889  0.0433  0.1783 -0.2207
11555W        W26686   4.127  13.575  15.548  0.3476  0.3551 -0.2824
11556W        W26687  17.845  15.368  13.118  0.1633  0.0200  0.0744
11557W        W26688   0.510   6.000  12.526 -0.0418 -0.5192  0.0153
11558W        W26689  12.715   3.549   3.911 -0.2538 -0.0922  0.4869
11559W        W26690  15.303  14.465   5.351 -0.0554  0.1547 -0.0526
11560W        W26691  16.957  14.289  11.320 -0.1658 -0.1107 -0.2508
11561W        W26692   7.991   8.311   5.543  0.0915  0.2084  0.2323
11562W        W26693   7.804  17.396  12.300  0.3060  0.0281  0.1380
11563W        W26694  18.524  18.625   2.993  0.3019  0.3037  0.0573
11564W        W26695   6.022   5.779   2.839  0.0967  0.0453 -0.0232
11565W        W26696  17.518   8.345  11.576  0.0324  0.4923 -0.0790
11566W        W26697   3.737  15.848   2.329  0.0139 -0.1791  0.2347
11567W        W26698  16.677   3.756   4.545 -0.6925  0.1280 -0.2746
11568W        W26699   1.421   3.987  13.772  0.0494  0.2568 -0.0208
11569W        W26700  15.469   8.679  12.916 -0.4507  0.1848  0.1289
11570W        W26701  12.385  16.339   4.211  0.0840 -0.0577 -0.2466
11571W        W26702   6.781   2.130   3.597  0.3088 -0.1058  0.1110
11572W        W26703   3.062  17.086   0.561  0.3263  0.2469  0.1008
11573W        W26704   0.209  12.274  10.904 -0.2085  0.3181 -0.1573
11574W        W26705  18.607   7.530  11.072  0.3088 -0.0426 -0.0002
11575W        W26706   2.564   2.666  13.168 -0.0074  0.0984 -0.0090
11576W        W26707   4.566   2.358  14.636  0.1389  0.2006 -0.1302
11577W        W26708  11.468  16.875   1.271  0.0936  0.2177 -0.3079
11578W        W26709  13.590   7.166  11.997 -0.0252 -0.3372 -0.5498
11579W        W26710   8.063   0.682   2.486 -0.0415  0.1264 -0.1909
11580W        W26711   3.932  14.559   3.589 -0.3228  0.0266 -0.4267
11581W        W26712   1.809   5.385  13.228  0.1153  0.1556  0.1058
11582W        W26713  18.377  10.465  11.975  0.0524  0.0213  0.0513
11583W        W26714   2.220   9.747   0.053 -0.3267 -0.3217 -0.3801
11584W        W26715   3.891  14.056   2.669 -0.0263  0.0324 -0.0850
11585W        W26716  14.202   3.632  13.486 -0.1595 -0.0624  0.3858
11586W        W26717  11.237   9.927   4.592 -0.1705  0.2868  0.3410
11587W        W26718  17.935   3.560  11.881  0.1860  0.1131 -0.0648
11588W        W26719   8.844   1.682   5.488  0.1290  0.0955  0.0194
11589W        W26720  12.656  14.941   0.593  0.0792 -0.5782 -0.1186
11590W        W26721   7.423   9.738   4.672  0.0060  0.2099 -0.1128
11591W        W26722  15.072  12.766  11.674  0.1649 -0.2296 -0.0497
11592W        W26723   9.050   2.518   2.843  0.1220 -0.1230  0.0816
11593W        W26724   6.786  10.194   6.267 -0.2205  0.0280 -0.0170
11594W        W26725  15.833   2.306   2.158 -0.1763  0.1966 -0.0144
11595W        W26726  16.124  12.941  12.372  0.0822 -0.4320  0.1532
11596W        W26727   4.234  12.376  14.821 -0.2722  0.1545 -0.0699
11597W        W26728   5.850  18.471  12.494 -0.1667 -0.0133 -0.1543
11598W        W26729   9.758   5.268   1.403 -0.2381 -0.1727  0.1634
11599W        W26730   1.244  14.778   3.743  0.0068  0.1697  0.1533
11600W        W26731  18.207  12.874   3.426  0.2190  0.1476 -0.2904
11601W        W26732   5.207  16.329  14.576 -0.1684 -0.1649  0.0604
11602W        W26733  17.393  12.738  15.235 -0.4328 -0.0159 -0.1949
11603W        W26734  12.913  17.952  12.968 -0.0942  0.2089 -0.0034
11604W        W26735   8.998  14.492   0.205  0.2271 -0.0383  0.0609
11605W        W26736   8.339   3.654   3.516 -0.0693 -0.2540 -0.1491
11606W        W26737  12.761  17.944  14.641  0.1677 -0.0979 -0.2026
11607W        W26738   8.829   4.436   2.545 -0.3265  0.0535 -0.2900
11608W        W26739   0.575   8.377  13.695  0.1297 -0.2404 -0.0829
11609W        W26740   5.923   1.961  11.488 -0.0856 -0.2149  0.2019
11610W        W26741   3.912  15.684  14.860  0.0352  0.0274 -0.1832
11611W        W26742  17.504   4.422   9.794 -0.0037  0.2069  0.2922
11612W        W26743   8.807  18.731   3.646 -0.0510 -0.0730 -0.0523
11613W        W26744   3.054   3.301  11.098 -0.1024  0.5968 -0.3665
11614W        W26745  15.366   6.800  14.907  0.0547 -0.2152 -0.0842
11615W        W26746  12.458   3.246   3.600  0.1664 -0.0418  0.1200
11616W        W26747   3.169  16.510  12.151 -0.3787 -0.0223  0.2413
11617W        W26748   7.164   2.834   2.508 -0.3690 -0.4277 -0.2619
11618W        W26749   2.213  14.378  10.592 -0.1436  0.2615  0.3047
11619W        W26750   8.740  14.245  11.510 -0.1657 -0.1129  0.1239
11620W        W26751   6.354  14.496   4.938 -0.0403 -0.0035 -0.0819
11621W        W26752  13.180  16.215   0.220 -0.1070  0.1947  0.4355
11622W        W26753   9.263  11.304  12.041 -0.1152 -0.1861 -0.1692
11623W        W26754  17.354   0.165  11.936 -0.1710  0.0999 -0.1503
11624W        W26755  18.640  16.998  13.468  0.0776  0.1244 -0.0937
11625W        W26756   2.252   0.798   5.926 -0.3593  0.6726  0.0979
11626W        W26757  10.052  11.873   4.461 -0.1771  0.1689 -0.2205
11627W        W26758   5.934  13.868   1.248  0.0259  0.0643 -0.2524
11628W        W26759   2.493  10.878  12.617  0.0443  0.2853 -0.2008
11629W        W26760   5.884  12.650   1.956 -0.1370 -0.0538 -0.2648
11630W        W26761   3.442   9.758   0.692  0.2179 -0.1264  0.0754
11631W        W26762  10.721  15.079   2.474 -0.0552 -0.2860 -0.1228
11632W        W26763  13.387   4.920   0.251  0.0747  0.1242  0.0221
11633W        W26764   8.827  10.485  12.060 -0.1148 -0.2253  0.2110
11634W        W26765  12.002  17.098   3.656  0.3893 -0.0017 -0.1230
11635W        W26766   5.752  10.221   4.496  0.1068 -0.0412 -0.2423
11636W        W26767  11.272  11.827   3.826  0.0060  0.2278  0.0304
11637W        W26768  18.552   8.193  12.376 -0.2432  0.0420  0.2352
11638W        W26769  12.016   8.733   0.682  0.1036 -0.1067  0.0925
11639W        W26770   7.983   3.875   4.192  0.1981 -0.0933  0.0335
11640W        W26771  15.489   9.600  15.523 -0.1613 -0.2948  0.1140
11641W        W26772   4.539  16.545   0.386  0.2706 -0.1292  0.1104
11642W        W26773  16.251  13.986   1.651 -0.0711 -0.0263 -0.2396
11643W        W26774  16.514   5.399  15.690 -0.0925  0.1151  0.2681
11644W        W26775   2.304  10.054  11.144 -0.0475  0.3872 -0.5916
11645W        W26776   8.426  10.554   2.110 -0.5528  0.3603 -0.0956
11646W        W26777   4.175  12.917  11.793  0.1120 -0.2713 -0.3076
11647W        W26778  15.098  12.703   4.197  0.3228  0.1798 -0.2212
11648W        W26779   1.501   7.609  13.208  0.0100  0.0551 -0.1921
11649W        W26780  14.983  16.048  11.597 -0.0105 -0.0296  0.0260
11650W        W26781   3.397  17.000  13.116 -0.1710  0.0025 -0.0044
11651W        W26782   5.398  10.369  12.930 -0.0014  0.2166 -0.0463
11652W        W26783  10.097   0.757   2.242 -0.0151  0.1213  0.3085
11653W        W26784  16.842   3.907  12.137  0.1483 -0.1738  0.3312
11654W        W26785  16.533   7.125  15.482  0.4317 -0.2058  0.2804
11655W        W26786   2.726  13.458   3.202 -0.1700  0.0213  0.2040
11656W        W26787   4.055   5.352   1.653  0.0319  0.2115 -0.2616
11657W        W26788  11.331   8.339  14.614  0.1405 -0.0074 -0.1400
11658W        W26789  10.122   4.312   5.514  0.1484  0.1710  0.0475
11659W        W26790   2.950   9.241  13.482 -0.3092  0.1540  0.1054
11660W        W26791  17.820  11.592   3.825 -0.0874  0.0447  0.3778
11661W        W26792   7.918   4.571   0.364  0.0467  0.2688 -0.1391
11662W        W26793   9.980  15.646  13.143  0.1610  0.0363 -0.0160
11663W        W26794   2.333   2.323  10.466 -0.2753 -0.1056  0.0164
11664W        W26795  15.655   8.896   4.022 -0.0424  0.0598  0.0764
11665W        W26796  11.423  14.347   3.317  0.2054 -0.0000 -0.1552
11666W        W26797   4.589  11.978   9.645  0.0015 -0.0809  0.1458
11667W        W26798   8.431  18.703   2.331 -0.0305 -0.2288 -0.2886
11668W        W26799   9.987  13.047  13.089  0.1159  0.3648  0.1428
11669W        W26800  12.947   6.395  14.408  0.1235  0.1941  0.3246
11670W        W26801   4.662  12.790  12.056  0.2282 -0.2371 -0.0723
11671W        W26802   1.450  12.796  14.342  0.2224  0.1603 -0.0988
11672W        W26803   6.872  13.353   0.456 -0.0983 -0.0474  0.0504
11673W        W26804   3.201   0.174  10.749  0.3390 -0.1905 -0.1109
11674W        W26805   2.837   9.799   9.836  0.0274  0.1014 -0.2650
11675W        W26806   5.120  10.076   0.491 -0.2355  0.2111 -0.0070
11676W        W26807   1.644  17.439   1.160  0.2250  0.0338 -0.0304
11677W        W26808  13.655   9.814  11.567 -0.3028  0.0607  0.2213
11678W        W26809  14.585  12.564   2.943 -0.4811 -0.2250  0.0443
11679W        W26810  10.757   9.384  13.825 -0.1713  0.2933  0.0531
11680W        W26811   4.952   3.754   1.900  0.0860 -0.0193  0.0567
11681W        W26812  15.785  10.590   3.644  0.1508 -0.4922 -0.1900
11682W        W26813   3.378  17.031  11.277  0.0900  0.0282  0.0956
11683W        W26814   2.405  14.358  15.273 -0.0062  0.0496  0.1054
11684W        W26815  10.266  13.167   0.456 -0.2221  0.1939 -0.1977
11685W        W26816   4.760   9.301  13.554 -0.0495 -0.0737  0.0706
11686W        W26817   2.102  14.978   5.834  0.2563  0.1282  0.0607
11687W        W26818  14.599   6.063  11.537  0.3650 -0.3325 -0.1815
11688W        W26819  17.197  17.695   5.596 -0.3257  0.2448 -0.2303
11689W        W26820  10.537  16.087  14.260 -0.1271 -0.2329  0.2871
11690W        W26821  14.847   5.530   0.694  0.1806  0.0278  0.4386
11691W        W26822   5.925   7.580   0.845 -0.5160 -0.2741 -0.0390
11692W        W26823   1.285  17.950  15.046 -0.0823 -0.1464  0.5731
11693W        W26824   4.894   4.388  13.038  0.1867  0.0205  0.1694
11694W        W26825   9.218   7.512  13.962 -0.1905 -0.1888 -0.0770
11695W        W26826  15.559   8.387  14.101 -0.2095  0.0425 -0.4229
11696W        W26827   7.176  17.545   0.903  0.0695 -0.3293  0.0839
11697W        W26828  13.953   1.630  12.463 -0.1384 -0.1541 -0.1724
11698W        W26829   1.755   1.417  10.915  0.2624 -0.1388  0.0696
11699W        W26830   7.320  14.859  15.105  0.0761  0.0147 -0.0309
11700W        W26831  14.976   6.248   3.131 -0.1307  0.2790 -0.1964
11701W        W26832  15.623   2.532  14.784 -0.1149 -0.0147 -0.0233
11702W        W26833   3.285   4.649   2.020 -0.0781  0.0924  0.3653
11703W        W26834   6.234  10.167  15.401 -0.2081  0.2962 -0.0975
11704W        W26835   0.526   7.893  14.226  0.2078  0.0872 -0.2315
11705W        W26836  14.110  10.574   0.826 -0.0893  0.3565 -0.1724
11706W        W26837   7.885   3.206   2.249  0.3283 -0.2412  0.0066
11707W        W26838   6.194   9.925  13.907 -0.1809 -0.1115  0.0557
11708W        W26839  10.433   2.167   4.982  0.0763 -0.1393 -0.0155
11709W        W26840   2.279  16.403   2.515  0.1345 -0.0209 -0.1525
11710W        W26841   5.888   0.268   0.184 -0.1534 -0.0600  0.2635
11711W        W26842   0.193   1.890  14.629  0.0168  0.2629 -0.2617
11712W        W26843   8.776  13.436   3.383 -0.1001  0.1324  0.0930
11713W        W26844   6.218   4.379  12.235  0.3488  0.5676 -0.1774
11714W        W26845  14.947  11.363   0.320 -0.0021 -0.1177 -0.0384
11715W        W26846  12.965   1.357   5.542 -0.4855  0.1092 -0.0308
11716W        W26847  12.225  14.427   3.834  0.1355  0.2203 -0.1476
11717W        W26848   8.667  14.735  12.839  0.2984  0.6406  0.0845
11718W        W26849  12.765  16.601  13.213 -0.1451 -0.1146 -0.0345
11719W        W26850   7.371  17.052   1.118  0.0892 -0.2835 -0.1375
11720W        W26851   5.727   3.095  12.349 -0.0602 -0.0576 -0.0968
11721W        W26852   8.135   7.518  13.869  0.2534  0.0992  0.1194
11722W        W26853  14.648   8.660  13.973 -0.3034  0.4318  0.2784
11723W        W26854   2.591  12.223  10.076  0.4690  0.1859 -0.2330
11724W        W26855  18.657   3.582  12.244  0.0148 -0.0879  0.0091
11725W        W26856  16.449   5.027   4.579  0.0126  0.0662  0.0365
11726W        W26857   5.795   2.129  12.745 -0.0875 -0.1290  0.0090
11727W        W26858   9.617   2.770  11.672  0.2523  0.2425 -0.0769
11728W        W26859   4.283   9.896  14.138  0.2399 -0.2979 -0.1973
11729W        W26860  13.438   9.587   4.442 -0.2385 -0.0979  0.0188
11730W        W26861   2.916  14.029  11.305  0.1492 -0.0602 -0.1839
11731W        W26862  12.259   7.313  12.798 -0.1964  0.2741 -0.0853
11732W        W26863  14.828  14.685  13.257  0.0171  0.0561  0.0076
11733W        W26864   8.907  16.639   1.542  0.0365 -0.1638  0.2252
11734W        W26865   3.345   7.364  10.898  0.2264  0.0443  0.2096
11735W        W26866  14.436   7.308   0.793  0.3190  0.0781 -0.1898
11736W        W26867  10.503  10.887  13.824  0.0184 -0.0019  0.0189
11737W        W26868   8.548   4.944  12.674  0.3420 -0.0099  0.3621
11738W        W26869  11.381  18.617   3.385 -0.2156  0.1283 -0.0922
11739W        W26870   6.826  12.612  12.887  0.0546  0.4507  0.0503
11740W        W26871  16.440   3.140  11.026 -0.2052 -0.0177 -0.1850
11741W        W26872   3.923  15.224  15.447 -0.3156  0.0865  0.1203
11742W        W26873  16.155  11.631  10.003 -0.1784 -0.1131  0.1889
11743W        W26874   3.139   4.087   1.974  0.0382 -0.0075 -0.1635
11744W        W26875   5.061  11.970  14.806 -0.0803  0.1593  0.2069
11745W        W26876  14.408   1.151   4.328 -0.4532 -0.0461  0.3302
11746W        W26877   4.261   6.390  11.336  0.0916  0.5216  0.1563
11747W        W26878  17.437  16.041   2.040  0.0667 -0.2072 -0.1417
11748W        W26879   3.826  18.585   1.196  0.1099  0.1120 -0.1375
11749W        W26880  15.027   4.017   2.030  0.3815 -0.0265 -0.0521
11750W        W26881  17.926   0.843   5.163  0.0567  0.0700 -0.0221
11751W        W26882  14.736  14.301  14.365 -0.3840  0.0374 -0.0599
11752W        W26883   2.092  16.080  11.280 -0.0588 -0.3331 -0.0488
11753W        W26884   1.544  16.007   2.038  0.1126  0.0198 -0.1609
11754W        W26885  16.298  17.551   3.452  0.1061 -0.5754 -0.0577
11755W        W26886   8.367  15.204   2.607  0.0587  0.0897 -0.2272
11756W        W26887  11.463  12.009   4.847 -0.0313 -0.0966  0.2290
11757W        W26888  14.908  15.604   4.630 -0.1840 -0.0470  0.2559
11758W        W26889   2.626   7.733   2.365  0.2036 -0.1953 -0.2154
11759W        W26890   8.166  16.431  15.737  0.1627  0.0661  0.2122
11760W        W26891  16.151   0.885  10.954 -0.0179  0.0727  0.2226
11761W        W26892  17.965  16.585  15.741 -0.1607  0.0527  0.0090
11762W        W26893   7.879  10.213   1.836 -0.1103 -0.0364 -0.1132
11763W        W26894  11.020  10.887  15.433  0.1367 -0.1005  0.1632
11764W        W26895  15.883  11.240  15.281 -0.0147 -0.0591  0.1285
11765W        W26896   1.216  14.792  13.537  0.3067  0.0998  0.2154
11766W        W26897   1.959   6.765   1.116 -0.3077 -0.1396  0.0659
11767W        W26898   2.716  13.202   4.056 -0.0821 -0.3255 -0.0987
11768W        W26899   9.334  10.793   3.711  0.3466 -0.1546 -0.1493
11769W        W26900  11.822  15.715   3.728 -0.1769  0.1767  0.3186
11770W        W26901  16.695   1.084   3.547 -0.4631 -0.0852  0.1246
11771W        W26902   4.241  10.992   4.176 -0.0671 -0.0851 -0.1402
11772W        W26903   1.464   8.338   3.939 -0.0773 -0.0030  0.1208
11773W        W26904  17.948  14.157  14.429 -0.2819  0.2519  0.1087
11774W        W26905  13.970   8.184   3.295 -0.2394 -0.2856  0.0637
11775W        W26906   9.879   2.731   9.452 -0.2367  0.0097  0.3224
11776W        W26907   5.149  14.726   0.756 -0.0202  0.1187  0.0347
11777W        W26908   7.296   7.487   2.768 -0.1850  0.1253 -0.1493
11778W        W26909   8.209   6.703  15.126  0.0638 -0.1610 -0.0605
11779W        W26910   6.262  14.077   4.267  0.1153  0.0449  0.0029
11780W        W26911  14.725   0.115   5.828 -0.0034  0.2170  0.1719
11781W        W26912  11.688   3.834   0.347 -0.0370  0.1388 -0.0739
11782W        W26913   4.460   2.413   3.744  0.2065  0.0494 -0.0103
11783W        W26914  10.592   9.910  12.766  0.0545  0.1942 -0.0332
11784W        W26915   3.395   2.849  11.000 -0.2529 -0.1940  0.0285
11785W        W26916  12.428  13.503  10.959  0.1561  0.0285  0.1697
11786W        W26917  11.322  17.986  14.798 -0.2635 -0.1584 -0.1060
11787W        W26918   8.216  14.398  10.827 -0.1146 -0.1205  0.0649
11788W        W26919   7.478   6.202  11.312 -0.1618 -0.0331  0.1069
11789W        W26920   8.495   8.445  12.029 -0.1609  0.0365  0.0042
11790W        W26921   8.925   9.906   4.054 -0.2585 -0.1086  0.0527
11791W        W26922   9.719  13.969  15.198  0.3382  0.3614  0.0081
11792W        W26923  12.057  17.816  13.702  0.0641 -0.3736  0.0859
11793W        W26924   7.130  10.844   0.987  0.0478 -0.0151  0.0226
11794W        W26925  17.518  18.691  14.098  0.1950  0.2530  0.3334
11795W        W26926  17.861   4.813  13.481  0.2377 -0.2210 -0.1124
11796W        W26927   7.233   4.952  12.403 -0.1969 -0.0664  0.2786
11797W        W26928  13.338  15.353   4.258 -0.2162  0.0294 -0.2746
11798W        W26929   4.437   5.279  13.451 -0.1772 -0.0460 -0.0521
11799W        W26930  10.265   2.839  13.612 -0.0570 -0.0391 -0.0512
11800W        W26931   5.277   2.852  12.447  0.4262  0.1316  0.1150
11801W        W26932  16.804   9.438  14.912 -0.1358  0.2209  0.1176
11802W        W26933  12.969  18.648   4.437  0.2553 -0.0588 -0.0209
11803W        W26934  10.159  16.047  13.794  0.0159  0.1650  0.3273
11804W        W26935   5.281   4.498   5.170 -0.2313 -0.2361  0.3587
11805W        W26936  12.903   6.778  13.701 -0.1851  0.0510 -0.1940
11806W        W26937  12.167   5.562  11.469  0.0267  0.2266 -0.0350
11807W        W26938  11.359   4.371  10.676 -0.3254 -0.1347 -0.0331
11808W        W26939   5.885  16.298   0.503 -0.0207  0.0196 -0.2778
11809W        W26940   2.037   3.449  13.264 -0.4039  0.0565  0.1524
11810W        W26941  12.641  12.440   5.414  0.0051 -0.1267  0.0341
11811W        W26942   1.394   2.531  12.439 -0.1003  0.2350 -0.1196
11812W        W26943  15.340  13.452   4.702 -0.0666 -0.0816 -0.0391
11813W        W26944   7.102  14.548   1.914 -0.1546  0.2753 -0.0753
11814W        W26945  10.933  11.035   2.530 -0.4242 -0.0114 -0.1661
11815W        W26946   2.715  13.957   0.787  0.0445 -0.2345 -0.0762
11816W        W26947   1.860   7.331   9.468  0.1373 -0.1109  0.0595
11817W        W26948  12.091   1.401   3.318  0.0551  0.0111 -0.0714
11818W        W26949  12.386   6.101  12.871  0.2772  0.0108  0.0679
11819W        W26950   2.288  14.908   0.973 -0.2189 -0.2968  0.0594
11820W        W26951  17.865  16.264   3.246  0.1193  0.1715 -0.2126
11821W        W26952   2.217  12.586  13.496  0.1456  0.3261 -0.0840
11822W        W26953  10.861   9.320  11.839 -0.1438 -0.2414 -0.0366
11823W        W26954   2.737  11.099   2.218 -0.0375  0.2832 -0.1702
11824W        W26955  10.196   8.365   5.246 -0.4383  0.2461  0.0963
11825W        W26956  18.716  15.118   0.241 -0.1073 -0.1015 -0.3226
11826W        W26957  12.100  18.005  14.830  0.0733  0.1705 -0.2883
11827W        W26958   8.836   7.697   2.318  0.0881 -0.1092  0.1169
11828W        W26959  12.255  15.724  10.698 -0.0613  0.2793  0.3454
11829W        W26960  15.983   5.743   3.519 -0.2669 -0.0727  0.1651
11830W        W26961  10.405  12.150  11.825 -0.0093  0.0838  0.1128
11831W        W26962   4.384   2.169   1.351  0.1510  0.1690  0.3992
11832W        W26963   7.737  15.004  10.923  0.0340  0.2585  0.0964
11833W        W26964  14.000   6.691  13.821  0.0154  0.3179  0.1921
11834W        W26965   9.388  14.466  15.598 -0.6673 -0.1584 -0.3650
11835W        W26966   3.849   8.949  14.260 -0.3001 -0.1209 -0.0407
11836W        W26967  16.929  12.464   3.533 -0.2414  0.1742 -0.0666
11837W        W26968  15.289   3.024  15.638 -0.5598  0.1404  0.1409
11838W        W26969   0.524   6.526  15.604  0.1772 -0.6330 -0.0554
11839W        W26970   8.595  11.821   1.938  0.0862 -0.0598 -0.2654
11840W        W26971  16.625  13.758  11.981 -0.2027 -0.2698  0.1126
11841W        W26972  13.589  11.658   3.426  0.2260  0.4296  0.0355
11842W        W26973   1.327   5.803  13.802  0.1057  0.0998 -0.1869
11843W        W26974   7.752  12.564   4.239  0.2934  0.2477 -0.0373
11844W        W26975  15.349   4.437  14.317 -0.0791  0.1360 -0.2046
11845W        W26976   3.507  18.352  14.429 -0.6390  0.0079 -0.1576
11846W        W26977   1.180   3.727   2.905 -0.0786  0.0700 -0.3153
11847W        W26978   7.316   9.413  12.606 -0.1012 -0.0767 -0.0831
11848W        W26979   2.684  12.228  14.677  0.2991 -0.3804 -0.3456
11849W        W26980   0.952  17.021  15.344 -0.1314 -0.0007 -0.2360
11850W        W26981   9.537  11.844  15.734 -0.1210  0.0038 -0.2113
11851W        W26982  10.203  14.143  11.563 -0.1622 -0.4940  0.0916
11852W        W26983   8.553  11.191   2.800  0.1363  0.0271 -0.0657
11853W        W26984  10.292   9.914  11.384  0.3505 -0.1309 -0.0845
11854W        W26985   5.036   7.100  14.423 -0.0530  0.0742 -0.1524
11855W        W26986   0.822  11.204   5.442  0.2272 -0.1021  0.1046
11856W        W26987   4.868  13.319  10.469 -0.1123 -0.0129 -0.1659
11857W        W26988   6.356   5.062  11.682 -0.0228  0.1418  0.0306
11858W        W26989   4.686  13.055   3.919 -0.0418  0.0654  0.1230
11859W        W26990  16.963  18.527  13.208 -0.0762  0.0405 -0.0222
11860W        W26991   2.430  10.897   4.663  0.1334 -0.4914  0.0838
11861W        W26992   9.724  15.588   5.366 -0.1662  0.1938 -0.1136
11862W        W26993   9.113   2.288  13.029 -0.2048 -0.1971 -0.1949
11863W        W26994  17.984  13.315   2.445  0.1561  0.1449  0.2931
11864W        W26995   1.993   0.921   4.780  0.2106  0.0777  0.2382
11865W        W26996  18.092  17.609   1.580 -0.2203 -0.1376 -0.0743
11866W        W26997   0.181   4.969   4.205  0.0893  0.0089  0.0620
11867W        W26998  18.160   3.700  14.828  0.0659 -0.2316  0.0474
11868W        W26999  13.031   2.418   3.983  0.0459 -0.3311  0.2152
11869W        W27000  14.800  12.940   3.304  0.0916  0.0682 -0.0566
11870W        W27001  13.366   2.793  14.305  0.2231  0.3505 -0.2045
11871W        W27002  15.269   8.918  11.142  0.0798  0.2432 -0.0411
11872W        W27003   6.366  16.321  15.373  0.1624 -0.1652 -0.2628
11873W        W27004   4.860  12.175  13.617 -0.2805 -0.0553  0.0703
11874W        W27005   4.320   0.902   3.116 -0.0344  0.0269 -0.0947
11875W        W27006  17.929   9.226   2.931 -0.0341 -0.0173 -0.3027
11876W        W27007  17.088   2.641   5.055  0.0196 -0.0795  0.2257
11877W        W27008   4.363   4.787  12.331 -0.2571  0.2629  0.1744
11878W        W27009   5.661   8.256   3.280 -0.0721  0.0689  0.1982
11879W        W27010   8.888   0.856   0.908  0.0478  0.0176 -0.4037
11880W        W27011  10.225  10.397   0.885  0.0514 -0.1490 -0.1162
11881W        W27012   4.171   0.613   2.096  0.2186  0.2067  0.2599
11882W        W27013  10.947  15.337   3.969  0.2525 -0.0537  0.0747
11883W        W27014  16.626   6.159   0.640  0.0973  0.1706 -0.0960
11884W        W27015  16.726  12.243   0.604  0.0599 -0.0007  0.0343
11885W        W27016  11.015   4.981   3.008 -0.0387  0.0738 -0.0303
11886W        W27017  14.214   5.439  12.072 -0.0067 -0.4291 -0.2265
11887W        W27018  10.975   3.765   4.815 -0.0212 -0.1477 -0.1284
11888W        W27019  12.473   8.846   4.045  0.0841 -0.2011 -0.0475
11889W        W27020  12.395   7.796   4.636 -0.2340 -0.1392  0.1526
11890W        W27021  10.952   5.428  11.428 -0.1892 -0.1940 -0.1281
11891W        W27022  16.839  13.062  14.419 -0.0398 -0.0299  0.0499
11892W        W27023   0.940  16.459   2.338 -0.0668 -0.1125  0.2963
11893W        W27024  12.630  10.366   2.693  0.0557 -0.0768 -0.0492
11894W        W27025  14.532   3.842   0.157  0.0093  0.3175 -0.2656
11895W        W27026   8.370  18.564   4.815  0.0447 -0.0507 -0.0969
11896W        W27027  17.815   0.884  12.488 -0.2205  0.1215  0.0383
11897W        W27028  12.093   2.375   5.705 -0.0065  0.2421 -0.0622
11898W        W27029   3.057   6.539  14.975  0.0179  0.1731  0.1201
11899W        W27030   2.282  11.531   1.431 -0.2022  0.0158 -0.1127
11900W        W27031   2.663   9.796  12.230  0.2992  0.0735  0.1983
11901W        W27032  15.393  15.435   4.405 -0.0640 -0.1136 -0.1089
11902W        W27033   4.350   6.233  12.773  0.1062 -0.0140  0.1801
11903W        W27034  16.008  15.631  12.790  0.1848  0.0565 -0.1253
11904W        W27035  12.952  17.185  12.695 -0.2226  0.1960  0.1086
11905W        W27036   2.984   3.705   3.648  0.3911 -0.1221 -0.2490
11906W        W27037   1.968  17.536  11.132  0.1282  0.0674 -0.0108
11907W        W27038  14.184  16.179   1.575  0.0706 -0.2548  0.1034
11908W        W27039   0.665   1.148  15.730  0.0996  0.1627  0.1427
11909W        W27040  12.721  17.905  15.197 -0.0517  0.0875  0.0468
11910W        W27041   8.077   9.441  12.115 -0.0542 -0.1012 -0.3851
11911W        W27042   4.303  11.641  12.621  0.0851 -0.1907  0.1522
11912W        W27043  18.090   9.779   2.230  0.0248 -0.2827  0.0921
11913W        W27044  12.427  14.598  13.327  0.2424 -0.1193 -0.0436
11914W        W27045  15.625   5.486   3.745  0.2771 -0.2703 -0.1372
11915W        W27046   0.210   4.190  10.985  0.0694 -0.2071 -0.0280
11916W        W27047   9.291   9.628  14.562  0.0676 -0.3129  0.0154
11917W        W27048  17.972  13.281   1.772  0.1409  0.1638 -0.0997
11918W        W27049  13.044  11.991  15.323  0.0252  0.0815  0.2197
11919W        W27050   8.028  12.322   5.112 -0.1121  0.3546  0.2087
11920W        W27051   9.050   2.713  14.058 -0.0860  0.2967  0.1827
11921W        W27052   1.024   1.762  10.727 -0.0957  0.1076  0.1160
11922W        W27053  16.480   9.425   3.087  0.2598 -0.0041  0.4119
11923W        W27054   7.238   3.402   0.432  0.0886 -0.1807 -0.1273
11924W        W27055   8.995   4.038  13.782 -0.3451  0.0890  0.0169
11925W        W27056  13.155   8.652   3.370  0.0900  0.1878  0.4079
11926W        W27057   5.536  10.478   5.779 -0.4328 -0.0463 -0.1892
11927W        W27058  15.284   8.846   1.271 -0.0686  0.0013  0.2157
11928W        W27059  18.439   3.474   5.108  0.6365 -0.1828 -0.0739
11929W        W27060  13.228   3.064   0.168  0.0710  0.0041 -0.0208
11930W        W27061  10.973   5.149  10.580 -0.2037  0.2971 -0.1318
11931W        W27062   7.975   3.278  13.500 -0.0616  0.0330  0.0493
11932W        W27063   5.558  10.400  12.254 -0.1281 -0.0197 -0.1091
11933W        W27064  15.500  14.190   3.306  0.0905 -0.2079 -0.0979
11934W        W27065   9.035  13.954   4.007 -0.0190  0.2129  0.2359
11935W        W27066   5.020  13.608  10.819 -0.0152 -0.0645  0.2579
11936W        W27067   3.989  14.844   1.629  0.3622 -0.2466 -0.3997
11937W        W27068   7.118   6.004   3.278 -0.1046  0.1580  0.1493
11938W        W27069   0.435   4.446   1.143  0.1857 -0.0471 -0.0880
11939W        W27070  10.073   2.906   4.461  0.0101  0.0997  0.1268
11940W        W27071   7.218   6.896  13.697  0.0480  0.2656  0.1510
11941W        W27072   6.328   2.342   5.900  0.0154 -0.4484 -0.1941
11942W        W27073   3.104   6.954   2.098  0.0440  0.1593 -0.2392
11943W        W27074   7.249   5.391  13.319 -0.2049 -0.0890  0.1082
11944W        W27075  18.668   6.517  14.930  0.2546  0.1144 -0.1683
11945W        W27076  15.213  12.623   6.147  0.2087 -0.0971  0.2062
11946W        W27077   6.251   2.090   1.532 -0.2004  0.0988 -0.0511
11947W        W27078   4.557  14.280   0.018 -0.2169  0.2228 -0.2613
11948W        W27079   7.153   6.504   5.882 -0.0136 -0.0479 -0.0521
11949W        W27080  10.086  14.010   2.509 -0.2547 -0.0486  0.2327
11950W        W27081  18.187  16.790   5.444 -0.1448 -0.1838  0.3581
11951W        W27082   0.858   7.910  12.988  0.0257 -0.1839 -0.1659
11952W        W27083  18.218  15.975   2.913  0.1796 -0.1131  0.0649
11953W        W27084  12.103   6.999  12.422 -0.0749 -0.1460  0.0764
11954W        W27085   3.075   6.828   3.185 -0.2192 -0.0649  0.0254
11955W        W27086  16.498   6.669  15.744 -0.1786 -0.0816  0.0733
11956W        W27087   2.388   9.655   5.958  0.0215 -0.3369  0.0854
11957W        W27088   9.226   1.074   3.313 -0.0435 -0.2413 -0.2109
11958W        W27089   0.151  14.902  10.932  0.4091  0.0101  0.0964
11959W        W27090   8.425   4.137   2.586 -0.0093 -0.2801 -0.0328
11960W        W27091  15.676   7.162  11.369  0.1426  0.0676  0.3189
11961W        W27092   9.441  15.489   0.970  0.0883 -0.0165 -0.2655
11962W        W27093   0.078   0.632   5.634 -0.2394 -0.4085  0.1505
11963W        W27094  16.832  16.655   3.481  0.1921  0.3185 -0.0252
11964W        W27095  18.347   9.107  10.858  0.0521  0.2003 -0.0923
11965W        W27096   3.137  17.019  10.806 -0.1585 -0.1045  0.3074
11966W        W27097   0.191   9.834  13.483 -0.2297  0.1063  0.2264
11967W        W27098   9.854   6.866   4.776  0.3129 -0.0793 -0.0616
11968W        W27099   8.760   9.847   2.884  0.0007  0.2144 -0.1369
11969W        W27100  11.103  16.227  12.757  0.2970 -0.4767  0.1319
11970W        W27101   4.452  14.829   2.629 -0.0032 -0.0548  0.1288
11971W        W27102  12.212  13.700  11.980  0.2090 -0.1611 -0.0657
11972W        W27103  11.426  16.934  15.505  0.1519  0.1273 -0.2102
11973W        W27104   9.623  17.710   4.253 -0.2465  0.0275 -0.0998
11974W        W27105   0.491   8.619   1.454  0.2512  0.4149 -0.1761
11975W        W27106   1.909   2.122  10.327 -0.0276  0.0087 -0.3187
11976W        W27107   4.238  11.426  11.979 -0.1187 -0.0207 -0.0695
11977W        W27108   4.781   1.080   2.352 -0.2635  0.4260  0.0061
11978W        W27109   8.462  12.558  13.840  0.3396  0.1053 -0.4138
11979W        W27110  14.697  10.211   1.963  0.1885 -0.2905  0.1489
11980W        W27111   6.348   4.354   0.656 -0.1453 -0.3784 -0.1173
11981W        W27112   0.905  16.457   0.322  0.1349  0.2309  0.2030
11982W        W27113  14.249  15.359   1.199 -0.1492  0.0157 -0.1409
11983W        W27114  13.499   0.062   0.914  0.1969 -0.0514  0.1384
11984W        W27115   7.660   3.919   1.122  0.0292  0.0724  0.1684
11985W        W27116   4.328  12.821  15.119  0.2190  0.1725  0.1780
11986W        W27117  17.243  12.773  14.287  0.3757 -0.0795 -0.2657
11987W        W27118   5.785  12.527  10.822  0.0010 -0.3390 -0.0744
11988W        W27119  12.130  14.240   0.199  0.2238  0.4506  0.1265
11989W        W27120   6.594   9.203   3.769 -0.1798  0.1237 -0.2653
11990W        W27121  12.822  16.965   2.588 -0.4061  0.1869  0.0197
11991W        W27122  17.927  17.987  13.703  0.1506 -0.0051  0.1354
11992W        W27123   2.221   2.873  10.128  0.0719  0.3162 -0.0549
11993W        W27124   8.995  14.929   2.247 -0.1919  0.1707 -0.0814
11994W        W27125   6.905   3.256   2.474 -0.2099 -0.2852  0.2037
11995W        W27126  14.220  16.883  14.483  0.0538 -0.3255 -0.1826
11996W        W27127   9.216   8.339  14.707 -0.0528 -0.1721  0.3113
11997W        W27128   7.561   9.984  14.300  0.1863 -0.2651  0.0252
11998W        W27129   4.343  13.787   2.560  0.0369 -0.1250  0.4103
11999W        W27130   4.506   1.398   0.994  0.0229 -0.1635 -0.1775
12000W        W27131  18.611   6.017   3.545  0.0267 -0.0379  0.0383
12001W        W27132  17.067   8.935  13.472  0.0023 -0.2208  0.3274
12002W        W27133  15.853  11.402  14.297 -0.2369  0.0591 -0.3001
12003W        W27134   2.132  11.245  11.092 -0.1952 -0.0047  0.2947
12004W        W27135  13.769  10.407  12.271  0.2882  0.1339 -0.2976
12005W        W27136   9.784  10.835   3.430 -0.2320 -0.0581 -0.1608
12006W        W27137  12.305  17.314  11.007 -0.1130 -0.0827 -0.1250
12007W        W27138  18.236   7.331   2.683 -0.0570 -0.1175 -0.4317
12008W        W27139  15.094   4.539   4.814 -0.1603 -0.1323 -0.1300
12009W        W27140  10.995  16.001   2.080 -0.2225  0.2655  0.0035
12010W        W27141   1.383   2.621  15.331  0.0956 -0.1274 -0.0722
12011W        W27142   6.339   0.886   0.934  0.0520 -0.0991 -0.2298
12012W        W27143  14.260  18.026   0.950  0.0332 -0.0225 -0.2611
12013W        W27144  14.561  14.964   5.044  0.0601  0.1552 -0.1803
12014W        W27145  11.346   0.062  11.677  0.0056  0.3015  0.0950
12015W        W27146   7.560  13.021  15.271 -0.1619  0.1061  0.3061
12016W        W27147   7.648   2.256   4.164  0.4319  0.0841  0.1718
12017W        W27148  16.011   9.929  15.058 -0.0367  0.0937  0.1283
12018W        W27149  13.853   0.668   2.535 -0.3533 -0.1534 -0.1696
12019W        W27150   9.032   4.644  11.603 -0.0154 -0.0004 -0.0038
12020W        W27151  12.098   6.616   3.179  0.0102  0.4106  0.1438
12021W        W27152   2.939  16.931  12.740  0.2356 -0.2365 -0.0020
12022W        W27153  10.049  13.855   5.519 -0.1305 -0.1738 -0.0799
12023W        W27154  18.576   3.205  11.154 -0.0578  0.3381  0.0608
12024W        W27155   1.171   4.053  12.507  0.0705 -0.1945  0.2195
12025W        W27156   6.284  10.347   0.731  0.1386  0.1746 -0.0478
12026W        W27157  16.733  16.895   5.413 -0.1095  0.0486 -0.2164
12027W        W27158   2.512  17.331   2.043 -0.3186  0.1279 -0.0962
12028W        W27159  11.476   1.185  12.759  0.0695 -0.1589 -0.2115
12029W        W27160   3.403   9.637  13.030 -0.1431 -0.1551  0.0342
12030W        W27161   9.307   4.016  12.530  0.3478 -0.0492 -0.0469
12031W        W27162   6.224  17.969  13.046 -0.1461 -0.0903  0.0381
12032W        W27163   4.300   9.626   3.588 -0.3050 -0.1405 -0.0668
12033W        W27164  14.366  15.114   3.251  0.0879 -0.1075 -0.4134
12034W        W27165   4.785  11.635   1.668 -0.0672 -0.0960 -0.2048
12035W        W27166  17.596  12.230   3.294 -0.0410  0.0609  0.3036
12036W        W27167   5.439   0.872   3.448  0.1809 -0.0238  0.5603
12037W        W27168   7.557   7.801  12.102 -0.1714  0.1432 -0.0416
12038W        W27169  13.576   8.182  11.425  0.0967 -0.1461  0.0786
12039W        W27170  17.449   6.677  10.156 -0.1405  0.1354  0.0535
12040W        W27171   5.764   4.311   2.346 -0.0540  0.2213 -0.0500
12041W        W27172   9.256   3.129  11.735 -0.2444  0.0575  0.1355
12042W        W27173  11.509  10.114  10.942 -0.1786  0.1213  0.0096
12043W        W27174   3.439   3.058  15.451  0.0805 -0.2342  0.2550
12044W        W27175  15.828   1.844   1.100 -0.2845  0.1646 -0.0450
12045W        W27176   6.062  15.759   2.400  0.0038 -0.0779 -0.0832
12046W        W27177   2.229   1.958  14.412 -0.1404  0.1309  0.0124
12047W        W27178   7.760  15.175   2.284 -0.5206 -0.0306 -0.0365
12048W        W27179  15.622   3.108   0.262  0.1979  0.1462 -0.2011
12049W        W27180   1.583   2.739  11.008  0.3334  0.3795  0.2330
12050W        W27181  14.006   0.844   4.177  0.2213  0.0045 -0.3410
12051W        W27182   7.713   3.787   3.579 -0.1820  0.0331  0.3216
12052W        W27183   4.125  16.449  15.201  0.0602  0.1544 -0.2482
12053W        W27184  12.254  10.469  14.141 -0.3650 -0.0484  0.0652
12054W        W27185   1.535   1.031  15.477  0.4070 -0.0979  0.3089
12055W        W27186  11.764   3.827   2.339  0.4849  0.0138  0.0915
12056W        W27187  15.313   9.276  11.496 -0.2029 -0.4253 -0.0651
12057W        W27188  17.291   5.334  11.798  0.0241  0.0197 -0.0592
12058W        W27189   1.024   9.658   5.472  0.1785  0.0738  0.3518
12059W        W27190   7.718   2.644   4.985 -0.3470  0.1023  0.0955
12060W        W27191  12.063   7.951   2.266 -0.3753 -0.1985 -0.2013
12061W        W27192   8.420  18.103   2.107  0.3473  0.1625 -0.4175
12062W        W27193   9.279  11.099   4.401  0.0901 -0.0065 -0.0878
12063W        W27194  10.740   6.691   3.762  0.2529  0.1202  0.2914
12064W        W27195   4.325  18.618   1.009 -0.2681 -0.3872 -0.1204
12065W        W27196   3.662  13.221   3.218  0.0581  0.2478  0.0623
12066W        W27197   1.879   4.361  15.044  0.2836  0.0172 -0.0074
12067W        W27198   9.494  11.664  13.077 -0.0561  0.1838 -0.0990
12068W        W27199  12.279   8.966   1.873 -0.1300 -0.0984  0.0751
12069W        W27200   4.428  15.263   3.965 -0.0313  0.2975 -0.0298
12070W        W27201  13.280   9.994   3.201 -0.1781  0.1544 -0.0717
12071W        W27202   8.808  12.750   1.455  0.0556  0.1823 -0.1063
12072W        W27203   3.546  17.351  12.341  0.1658  0.2271  0.1038
12073W        W27204   2.362   6.535   0.928 -0.2028  0.3259 -0.0423
12074W        W27205   2.266   1.694  11.658  0.2788  0.1982  0.4258
12075W        W27206  15.367  10.366  14.000  0.0547 -0.2250 -0.1624
12076W        W27207  16.237  17.026  14.482 -0.0536 -0.2583 -0.0482
12077W        W27208   1.966   6.718   4.136 -0.3828 -0.2208  0.2941
12078W        W27209   6.594  17.326   1.457  0.1797 -0.2334  0.1726
12079W        W27210  12.624   5.708  11.340 -0.2162  0.2040 -0.2098
12080W        W27211   5.393  17.246   3.235  0.0362 -0.0661 -0.3713
12081W        W27212  18.494   0.502   2.433  0.2449  0.1419  0.1699
12082W        W27213   2.797   0.151   2.146 -0.4682 -0.2895  0.0010
12083W        W27214  16.116  17.848   4.651 -0.0632 -0.0857 -0.3224
12084W        W27215   7.758   0.983  14.815  0.1798 -0.0502 -0.3409
12085W        W27216  17.674   8.306  15.151 -0.1292  0.3280  0.0157
12086W        W27217   1.107  14.243   0.924 -0.3829  0.0882  0.0989
12087W        W27218   4.785   8.312   3.741  0.0042 -0.0972 -0.3580
12088W        W27219  16.188   3.533  13.599 -0.1619  0.0370  0.0971
12089W        W27220  16.581   0.143   3.518 -0.0749  0.0448 -0.0568
12090W        W27221  17.111   9.484   9.535 -0.0702 -0.0108  0.3059
12091W        W27222   7.939   3.777  11.431  0.1523 -0.2488  0.5554
12092W        W27223   2.685   8.429   5.813  0.0403  0.1185  0.0737
12093W        W27224   0.664   0.590  13.371 -0.1193 -0.1921  0.4996
12094W        W27225  16.714  12.572  13.220 -0.1409  0.0802  0.1946
12095W        W27226   3.768  10.034  13.292  0.0933 -0.0483 -0.1600
12096W        W27227  14.777  10.621  15.653 -0.0145  0.0156  0.1956
12097W        W27228   4.273   0.473  13.683  0.0298  0.1246  0.3165
12098W        W27229  10.353   7.869  11.617 -0.1019 -0.1542 -0.0807
12099W        W27230   0.920   5.575   3.821  0.4062  0.1547  0.0927
12100W        W27231  16.233   7.864  13.303  0.1629 -0.1647  0.0607
12101W        W27232   3.776   8.225  14.057  0.0891 -0.2412 -0.2926
12102W        W27233  11.813  16.713  14.434 -0.2139 -0.0146  0.0475
12103W        W27234  12.437  10.353   5.188  0.1576  0.0749 -0.5022
12104W        W27235  10.471  16.087   5.873  0.3047 -0.0641 -0.3866
12105W        W27236   4.063   7.022  15.176  0.1108 -0.1905  0.3068
12106W        W27237   8.219   1.414  12.887  0.0382  0.2104 -0.1846
12107W        W27238  18.532   1.735  15.709 -0.1329  0.1803  0.0558
12108W        W27239   2.415   9.331   0.288 -0.0876  0.1981 -0.0698
12109W        W27240   3.304   4.033   1.318  0.2722 -0.1284  0.0673
12110W        W27241   8.275   8.691  14.962  0.1652  0.3520 -0.1597
12111W        W27242   6.560  10.918   1.113  0.2235 -0.1703  0.0213
12112W        W27243  15.387  15.874  10.189 -0.3015  0.1033 -0.0649
12113W        W27244  11.879   7.120  14.000  0.4339  0.0021  0.3510
12114W        W27245   1.222   5.732  12.327 -0.2864 -0.1513 -0.2027
12115W        W27246   0.274   8.055   3.842 -0.2121  0.1387  0.0480
12116W        W27247  12.100  15.032  13.441 -0.0524  0.1400 -0.0455
12117W        W27248  17.979   1.958   1.292 -0.1430  0.0358  0.0302
12118W        W27249   3.439   1.980   1.186 -0.0549  0.0524 -0.1608
12119W        W27250  14.643  12.478  15.228 -0.0117 -0.1552 -0.2381
12120W        W27251   7.494   3.547  12.560  0.0614 -0.3033  0.1356
12121W        W27252   3.939  16.982   3.148  0.1693  0.0612 -0.2593
12122W        W27253  15.626  10.221   1.955  0.1005  0.1615  0.0355
12123W        W27254  16.293  12.693   4.863 -0.0433  0.3003  0.2806
12124W        W27255   1.167  17.146  10.978  0.4106  0.0406 -0.0040
12125W        W27256   8.012   3.503   3.882  0.1306  0.1669  0.2591
12126W        W27257  17.109   2.532   0.244 -0.0120  0.2095 -0.1545
12127W        W27258  13.679   2.850   0.913  0.0042  0.0146 -0.1731
12128W        W27259  13.557   7.035  15.478 -0.3497 -0.0642 -0.0645
12129W        W27260   5.341  11.478  14.678 -0.1734 -0.0990 -0.0765
12130W        W27261   8.642   4.927   0.480 -0.1965  0.1815 -0.2042
12131W        W27262   0.462   2.392   4.374  0.0305  0.0195  0.1546
12132W        W27263  12.085   6.138   5.196  0.1808  0.0565  0.2971
12133W        W27264   6.165   7.857  12.941 -0.0130  0.2349  0.2030
12134W        W27265   4.272  10.472   1.530  0.1776 -0.0621  0.2258
12135W        W27266  11.093  11.602  12.311  0.1960 -0.0080  0.3022
12136W        W27267   7.444  18.092   1.703  0.0024 -0.3400 -0.0106
12137W        W27268  13.283  10.932  15.364  0.1489 -0.3486 -0.0621
12138W        W27269  11.419  10.993   2.618 -0.3390 -0.1868  0.0404
12139W        W27270   7.470  17.215   0.110  0.0919 -0.1784  0.1857
12140W        W27271   0.405  10.199  13.871 -0.2950 -0.1030 -0.0226
12141W        W27272  15.448   7.265  13.489 -0.2954  0.1648 -0.1300
12142W        W27273  14.788   0.900   2.377  0.0835 -0.2086 -0.0323
12143W        W27274  11.747  18.369  14.532  0.0770 -0.0508  0.2513
12144W        W27275  10.616   4.057  11.989  0.2128 -0.0002 -0.1084
12145W        W27276   7.892   8.049   5.088  0.1027 -0.0350  0.0304
12146W        W27277   6.664   1.225   3.546 -0.0374  0.3332  0.0284
12147W        W27278   6.747  17.021  14.515  0.1156  0.0033  0.1751
12148W        W27279   5.943  15.346   5.459 -0.2354 -0.0454 -0.2075
12149W        W27280   2.611   2.977   0.473  0.1465  0.4224 -0.0112
12150W        W27281  11.408   4.753   5.626 -0.0533 -0.4754  0.0183
12151W        W27282  10.868   3.835  12.391  0.0698  0.1923 -0.0347
12152W        W27283  14.957  18.394   4.224  0.1028  0.0716 -0.2363
12153W        W27284   9.266   2.500   3.431  0.0528  0.2109  0.0772
12154W        W27285  16.521   3.367   4.872  0.1545 -0.3250 -0.0126
12155W        W27286  13.699   4.453   1.099  0.4084 -0.0548  0.4199
12156W        W27287   4.866  14.080   1.477  0.1142 -0.0301 -0.1881
12157W        W27288  15.738   8.720   1.458 -0.1381  0.0613  0.0177
12158W        W27289   2.024  17.350  12.204  0.4487 -0.1580  0.3016
12159W        W27290   5.894   1.898   2.445  0.1046  0.0977 -0.0277
12160W        W27291  14.131   0.742   5.571  0.1952  0.1350  0.2048
12161W        W27292  11.837   3.674   3.163 -0.2051  0.0127 -0.3406
12162W        W27293   3.993   9.154   4.369  0.3529 -0.0917  0.3075
12163W        W27294  13.286   9.786   0.255 -0.0137 -0.2201 -0.0463
12164W        W27295   7.227   3.677  14.931 -0.2139 -0.3603  0.3190
12165W        W27296   3.550   1.772  12.450  0.3903  0.0308 -0.0165
12166W        W27297   1.761   4.785   0.549  0.2003  0.1056 -0.0101
12167W        W27298   5.498   1.130  10.163  0.0572 -0.0459 -0.0150
12168W        W27299   9.307   6.703   2.708  0.1106 -0.1828  0.2443
12169W        W27300  17.304   7.300   4.787  0.1695  0.0973  0.1881
12170W        W27301   7.677   2.826   2.557 -0.0181 -0.2386 -0.2273
12171W        W27302   9.117  15.008   0.367 -0.0513 -0.2279  0.1389
12172W        W27303  17.129  16.070  10.801  0.1039 -0.3390 -0.1763
12173W        W27304  17.100   8.032  13.019  0.4074  0.0994  0.1164
12174W        W27305   4.824  17.851  14.571 -0.2945 -0.1238  0.1757
12175W        W27306   0.084   5.218  12.044 -0.0561 -0.0275  0.1470
12176W        W27307   7.547   2.317  14.441  0.2009  0.0440  0.0894
12177W        W27308   1.445   0.887  13.213  0.0304  0.0891 -0.1225
12178W        W27309   2.105   1.701   0.328 -0.0607  0.2242 -0.3136
12179W        W27310   5.154   7.604   2.726  0.2433  0.0260  0.1032
12180W        W27311   4.974   9.383   2.215 -0.4242  0.0294 -0.0857
12181W        W27312  17.797   4.469   2.219  0.0863  0.2193  0.0508
12182W        W27313   0.376   1.926   5.142 -0.2797  0.1802 -0.1604
12183W        W27314  11.716   1.508   1.422 -0.5299 -0.1768 -0.0080
12184W        W27315  10.650  15.303  14.836 -0.0493  0.1194  0.1348
12185W        W27316   5.363   0.572  14.274 -0.1102  0.1838  0.1826
12186W        W27317   2.977   7.843  14.271  0.0600  0.4309 -0.1670
12187W        W27318  17.724  14.308   4.371 -0.1339  0.1083  0.1032
12188W        W27319  15.246   6.668   2.048  0.0261  0.0017 -0.3803
12189W        W27320  15.583  16.115  14.606 -0.2633  0.1410  0.3894
12190W        W27321  15.737  13.648   4.513  0.1625  0.2189 -0.0108
12191W        W27322  18.593  14.531   0.804 -0.0455  0.0617 -0.0455
12192W        W27323  10.243  15.447  14.564 -0.4596 -0.1445 -0.0625
12193W        W27324  15.512  13.714  14.834 -0.2091  0.1302  0.1027
12194W        W27325  17.676  14.560  14.756  0.2118 -0.0868  0.3083
12195W        W27326  10.876  12.517   2.209 -0.1463 -0.0832 -0.2632
12196W        W27327   8.600  17.261  12.818 -0.1574  0.0054  0.1226
12197W        W27328   3.681  17.982  11.335  0.1785  0.0198 -0.1473
12198W        W27329  16.152   5.832  10.838  0.3823 -0.3080 -0.0316
12199W        W27330   8.504  13.787  14.818  0.0965  0.0455 -0.1689
12200W        W27331   5.803   2.761   2.190  0.0679 -0.1139  0.0150
12201W        W27332  11.560  12.514  15.587  0.1067 -0.1324 -0.1290
12202W        W27333  17.286   2.739  11.812 -0.0354  0.1621  0.3477
12203W        W27334  13.007  10.213   2.306 -0.1395 -0.0184  0.0208
12204W        W27335  14.523   3.635   3.762  0.1756  0.1480  0.1086
12205W        W27336   7.357   0.659  11.560 -0.1216 -0.2086  0.1231
12206W        W27337  14.964  13.479   3.651  0.1748 -0.2211 -0.1170
12207W        W27338  11.848   9.431  10.287  0.0138 -0.2643  0.0154
12208W        W27339   2.434  16.298  13.955 -0.2469  0.1557  0.0621
12209W        W27340  18.086  12.987  12.116  0.1008 -0.2247 -0.1607
12210W        W27341   6.654   9.027  13.806  0.0365 -0.0808  0.0971
12211W        W27342   1.095   2.330  11.534  0.0671 -0.1772 -0.3776
12212W        W27343  18.573  13.956   1.388  0.2146  0.0786 -0.0342
12213W        W27344   7.313  15.339   2.552  0.0728 -0.1997 -0.1770
12214W        W27345   2.066   1.455  12.888  0.0204 -0.0289 -0.1278
12215W        W27346  12.327  17.770   0.635 -0.0817  0.0705 -0.0139
12216W        W27347   2.170   2.397  14.161  0.0418  0.2782  0.1392
12217W        W27348  15.321  10.721  14.334  0.0643  0.1717  0.2055
12218W        W27349  17.752   3.381   3.926 -0.0606  0.1187  0.0287
12219W        W27350  15.616  12.809   5.883  0.3844 -0.0217  0.0203
12220W        W27351  11.130  17.004   4.697  0.2504 -0.1849  0.0544
12221W        W27352   0.414  16.851  14.091  0.3583 -0.1456 -0.0538
12222W        W27353   6.158  16.022   4.349 -0.3407 -0.1183  0.0730
12223W        W27354   8.977   9.193   0.145  0.0162  0.1340 -0.0151
12224W        W27355  17.491  15.537  12.356 -0.0563 -0.1675 -0.2037
12225W        W27356   4.288   6.100  10.823 -0.1470 -0.1296  0.0083
12226W        W27357   7.870  17.829   1.444 -0.1729  0.0106 -0.0816
12227W        W27358  12.210  14.018  14.708  0.1000  0.0253  0.2323
12228W        W27359  17.472   0.085  15.410 -0.0358 -0.3973  0.4912
12229W        W27360   8.956  18.269  12.151 -0.2068 -0.0734 -0.0951
12230W        W27361   0.244   5.748  14.946  0.1764  0.1455  0.0407
12231W        W27362  15.928   4.962  13.425 -0.3187 -0.0669 -0.2816
12232W        W27363   7.532   5.347  10.459  0.2922  0.3016 -0.4542
12233W        W27364   6.810  14.469   2.308 -0.1538  0.2970 -0.2852
12234W        W27365   4.258  16.052   3.832  0.2456 -0.3561  0.1925
12235W        W27366   7.941  14.421  11.282 -0.1010 -0.2627  0.0681
12236W        W27367  13.808   7.705  12.334 -0.2733  0.1456 -0.0248
12237W        W27368   3.937  18.278  15.730 -0.3557  0.0156 -0.1472
12238W        W27369   1.923   3.437  10.926 -0.2197  0.0269  0.0175
12239W        W27370  15.821  11.632  15.666 -0.2009  0.1519 -0.1771
12240W        W27371   0.907  11.226   1.837  0.0026 -0.0286 -0.1615
12241W        W27372   3.063  13.068  12.821  0.0647 -0.0242  0.0716
12242W        W27373   7.011   4.530  12.243  0.1457 -0.0666 -0.0458
12243W        W27374  10.426   6.923   0.471 -0.3295 -0.0284 -0.0300
12244W        W27375  18.097  11.716  15.739  0.0435  0.1450 -0.2112
12245W        W27376   4.451   8.987  12.064  0.4303 -0.0490 -0.0931
12246W        W27377   3.678  10.767  14.460 -0.2867 -0.1510 -0.2649
12247W        W27378  10.149  11.227  12.506 -0.3691  0.1046 -0.3858
12248W        W27379  18.131  16.151   4.712 -0.2358  0.1196 -0.1097
12249W        W27380   6.703  13.996   2.126 -0.1098  0.0213 -0.0129
12250W        W27381   0.554   7.415  13.986 -0.3403  0.0253 -0.0841
12251W        W27382  17.030   7.252  13.575  0.3806  0.0552 -0.4764
12252W        W27383   9.031  18.078  15.374  0.1844 -0.2305  0.1561
12253W        W27384  15.167   0.464  11.806  0.1625 -0.0144 -0.1368
12254W        W27385  14.536  14.729  10.529 -0.0870  0.3053  0.2605
12255W        W27386   3.207   4.894  15.228  0.1149 -0.1391 -0.0256
12256W        W27387   0.625  15.405   4.769 -0.0524  0.1987  0.2499
12257W        W27388   3.325   2.543  10.553 -0.0330  0.2419 -0.3730
12258W        W27389   0.415   4.031   5.424 -0.0362  0.0167 -0.0861
12259W        W27390   6.578   1.091  10.049  0.2234  0.1664 -0.1057
12260W        W27391   0.207  16.778   5.979  0.1812  0.0896 -0.4197
12261W        W27392   0.406   4.547   0.203 -0.1645  0.1800  0.0893
12262W        W27393   1.428  13.361   4.334 -0.0948 -0.0638  0.3166
12263W        W27394  11.782  14.018   0.851 -0.4061  0.0238  0.2482
12264W        W27395   9.546  12.847   3.121  0.1277 -0.4487 -0.0625
12265W        W27396   8.743   3.823  13.307  0.0123 -0.0314  0.2033
12266W        W27397   6.533   0.325  15.131  0.0028 -0.1191 -0.0425
12267W        W27398   4.019  12.544  11.044  0.1273 -0.0090 -0.3581
12268W        W27399   2.534   4.697   1.604 -0.1464  0.1132  0.2490
12269W        W27400  15.797   9.021   0.497 -0.0185  0.3864  0.0919
12270W        W27401   3.253   3.377  15.109 -0.0671  0.1167 -0.0194
12271W        W27402  14.603  10.133   1.014  0.0518 -0.0256  0.1638
12272W        W27403   0.561   6.666   1.663  0.1644 -0.1131  0.3119
12273W        W27404   6.545   6.768   0.601  0.3157 -0.0976 -0.2470
12274W        W27405   7.167   3.441  14.283  0.2944  0.0495  0.1962
12275W        W27406   8.201  13.494   4.726 -0.1169  0.0801 -0.0679
12276W        W27407   7.050  10.221   1.238 -0.1730 -0.2224  0.1933
12277W        W27408   7.179  16.592  15.624  0.2498 -0.1270  0.2830
12278W        W27409   4.421   0.809  12.818  0.0966 -0.1482 -0.1917
12279W        W27410  18.534  11.649  14.948 -0.2711 -0.1491  0.0204
12280W        W27411   7.373   8.065  13.389 -0.1078  0.0013 -0.0211
12281W        W27412  16.038   6.219  12.921 -0.2147 -0.0845 -0.4438
12282W        W27413   9.296   8.860   4.196 -0.1488 -0.2286 -0.3664
12283W        W27414   3.307  10.257   4.847  0.2027 -0.1132  0.0562
12284W        W27415   2.387   9.619  15.165  0.0634  0.0643  0.0424
12285W        W27416   9.826   7.824   2.171 -0.3955 -0.0123  0.0241
12286W        W27417   7.412  18.712   3.036 -0.0804 -0.3180 -0.0050
12287W        W27418   6.406  15.189  10.949 -0.0627 -0.0181 -0.0945
12288W        W27419   5.889  11.072   1.809 -0.0475 -0.0475 -0.0340
12289W        W27420   1.808  17.735  12.481 -0.1133 -0.0490  0.1202
12290W        W27421   8.614   3.918  14.590 -0.2360 -0.0840 -0.0882
12291W        W27422   6.353   3.090  11.860  0.0604  0.1348  0.1220
12292W        W27423  16.671   2.420   3.310 -0.3287  0.1808  0.4469
12293W        W27424   0.146   9.900   4.969  0.0917  0.1278 -0.0986
12294W        W27425   7.905  10.817  11.130  0.2474  0.1029  0.0405
12295W        W27426  15.085   6.716   9.395  0.1115  0.0209 -0.0105
12296W        W27427  18.366   2.796   1.924 -0.0543 -0.2572 -0.1166
12297W        W27428  16.057   1.142   5.342  0.4476  0.1182 -0.1210
12298W        W27429  11.130   5.052   0.259  0.2067  0.4221  0.2460
12299W        W27430  15.489  13.270   5.987 -0.0834  0.1172  0.0503
12300W        W27431  12.983   2.595  13.596  0.1631  0.2325  0.2327
12301W        W27432   9.002   1.263   9.639  0.0661 -0.0436 -0.0342
12302W        W27433   9.651  17.035   4.854 -0.2846  0.0931  0.0181
12303W        W27434   9.435  16.736   0.242 -0.4900  0.2521 -0.3003
12304W        W27435   1.113   6.421   3.855  0.1059 -0.1680  0.1209
12305W        W27436   8.755   6.170  13.162 -0.3164  0.0514 -0.1731
12306W        W27437   9.306  10.203   3.485 -0.1081  0.0408 -0.2103
12307W        W27438   7.800  15.598  13.428 -0.2672 -0.2588 -0.1881
12308W        W27439  15.328  11.058  12.762 -0.0128 -0.1662  0.2488
12309W        W27440  15.099  18.095   1.184  0.1835 -0.2190 -0.0100
12310W        W27441   4.364  15.513  13.837 -0.2010  0.1162  0.0970
12311W        W27442   9.519   5.611   4.999  0.1654  0.0842 -0.0488
12312W        W27443   3.434   2.142   4.794  0.1086 -0.0352  0.0935
12313W        W27444   6.706   7.792   2.086 -0.0462  0.1683  0.1661
12314W        W27445   1.420   4.715   1.884  0.0238 -0.5885  0.1195
12315W        W27446  14.090   0.530  15.173  0.1920 -0.0388  0.1147
12316W        W27447  15.894   0.378  12.294 -0.1950  0.0518  0.1731
12317W        W27448   8.500   6.676  13.067 -0.3158  0.0486 -0.2810
12318W        W27449   6.135  16.841  15.556 -0.0142 -0.2184 -0.2950
12319W        W27450   1.111   9.506  11.817 -0.2309 -0.0615  0.3500
12320W        W27451   1.581  13.939   2.723  0.0649 -0.0773 -0.0448
12321W        W27452  14.957   9.449   5.734  0.2979 -0.3488 -0.3090
12322W        W27453   4.049  14.432   1.909 -0.2722  0.3909  0.2765
12323W        W27454  13.439  18.003  14.267 -0.2349  0.0468 -0.4276
12324W        W27455   2.385   4.749   0.179  0.2019  0.1913  0.2197
12325W        W27456  12.322  17.749   2.774 -0.0510  0.2512  0.2223
12326W        W27457  10.284  17.378  14.258 -0.0214  0.1296 -0.0589
12327W        W27458  15.397   4.968   0.040 -0.0015  0.1807  0.2811
12328W        W27459   6.200   6.359   1.529 -0.2140 -0.0964  0.0420
12329W        W27460   6.257  15.405   0.686 -0.2966 -0.1533  0.0148
12330W        W27461   7.922   2.303   0.069  0.3498  0.0226  0.1957
12331W        W27462  12.200   2.340   1.583  0.1270  0.0066 -0.1986
12332W        W27463  16.991   5.167  11.327 -0.3356  0.0130 -0.3595
12333W        W27464  13.074  15.864  14.359 -0.1246 -0.0143 -0.1312
12334W        W27465  15.351   9.696   4.970 -0.0885  0.1818  0.1879
12335W        W27466   1.248  17.092   2.127 -0.0367 -0.4939  0.0714
12336W        W27467  13.375  11.207  14.457  0.0963  0.3639 -0.1853
12337W        W27468   2.680   3.978  14.416  0.2352 -0.0832 -0.3480
12338W        W27469   9.170  12.009   0.841  0.0266  0.1157  0.0728
12339W        W27470  16.823   0.306  13.516  0.1042 -0.2200 -0.1262
12340W        W27471  15.642   9.943  14.095  0.1472  0.3336 -0.2079
12341W        W27472   1.373   5.839   5.108  0.1494  0.0452  0.2195
12342W        W27473  10.439  12.023  13.033 -0.1019  0.0762 -0.0632
12343W        W27474  13.791  17.473  11.938 -0.1333  0.2661  0.1147
12344W        W27475  15.091  12.013   1.076  0.0293 -0.0650 -0.1046
12345W        W27476  13.029  14.321   3.259 -0.1373  0.0600  0.0737
12346W        W27477  18.071  10.153  13.685 -0.0863  0.2000 -0.3202
12347W        W27478  10.752   2.336   2.681 -0.5966 -0.1363  0.1236
12348W        W27479   0.448  11.381   2.186 -0.2503 -0.2612 -0.1751
12349W        W27480  15.495   3.816  13.196  0.2661 -0.1988  0.3336
12350W        W27481  17.218   4.056  10.027 -0.0365  0.0044  0.1418
12351W        W27482  17.113   7.715   4.488  0.3763  0.0816 -0.1130
12352W        W27483   9.351   6.637  10.620 -0.0720 -0.1120 -0.3920
12353W        W27484   8.064  11.132   2.519 -0.1169 -0.3820  0.0983
12354W        W27485   1.514   3.781   4.705 -0.2803 -0.1253 -0.2036
12355W        W27486  14.899   7.003   1.229 -0.1643  0.0660 -0.3078
12356W        W27487   8.187  13.907   2.621 -0.0417 -0.0667  0.5381
12357W        W27488  11.639  10.527   2.708  0.3435 -0.0956  0.2199
12358W        W27489   0.863   6.191  12.107  0.1874  0.0234  0.1876
12359W        W27490   0.090  13.899   1.845 -0.0674 -0.1100  0.0279
12360W        W27491  15.182   1.184  15.258 -0.2342  0.0811 -0.0936
12361W        W27492  13.222   7.571  12.229 -0.3001 -0.1364  0.1946
12362W        W27493   7.177  14.198  10.792  0.5271 -0.4284  0.3396
12363W        W27494  15.932   5.431  12.466  0.1686 -0.2455  0.2068
12364W        W27495   3.579   7.772  12.237  0.0594 -0.1903  0.1139
12365W        W27496  16.875  10.209   0.382 -0.0968 -0.2780  0.0286
12366W        W27497  16.157   0.549   1.100 -0.1071 -0.0632  0.2377
12367W        W27498   1.085  18.279   1.580 -0.0581  0.0326 -0.2335
12368W        W27499   5.872   0.367   4.802 -0.1461  0.2597  0.1733
12369W        W27500   4.257   4.789   0.254 -0.0251 -0.0789 -0.1659
12370W        W27501   1.141   3.519   0.242 -0.0117  0.1204 -0.0538
12371W        W27502   2.181   0.782  14.629 -0.4706  0.1986  0.0499
12372W        W27503  18.535  17.814  11.742 -0.0352 -0.1126  0.0165
12373W        W27504   1.125  11.554  14.257  0.3450  0.0637 -0.0220
12374W        W27505   1.120   9.929  12.189 -0.2172 -0.1428  0.1880
12375W        W27506  13.815  10.949   3.308 -0.2310 -0.0709 -0.3627
12376W        W27507   5.232   8.156  11.227  0.0862 -0.0072  0.0195
12377W        W27508   5.540   3.066  14.566 -0.0123 -0.1644  0.0526
12378W        W27509   8.028  14.853   4.159 -0.0581  0.2111 -0.0111
12379W        W27510   6.175   1.430   3.840  0.2690  0.2979 -0.1569
12380W        W27511   7.699   9.048   2.411 -0.2132 -0.2462 -0.1652
12381W        W27512  16.051  18.668  12.131  0.0108  0.0288 -0.3308
12382W        W27513   5.503  17.814   2.637  0.0044 -0.2375  0.1227
12383W        W27514  15.455  16.808   3.108  0.1007  0.2039  0.1095
12384W        W27515   8.515   1.738  12.503 -0.2068 -0.0685  0.1637
12385W        W27516   2.979   7.406  12.332  0.3439 -0.2514  0.0076
12386W        W27517  16.302   7.932   1.841  0.1321 -0.1738 -0.2404
12387W        W27518   1.510   7.628   1.710 -0.1832 -0.0584  0.0310
12388W        W27519  10.221  16.309   4.893 -0.0791 -0.0117 -0.1128
12389W        W27520  11.406   2.092  10.296  0.0068 -0.2011 -0.0465
12390W        W27521  18.578   2.782   5.682  0.0378 -0.0133 -0.0718
12391W        W27522   6.134   5.710   2.320 -0.0475 -0.0218  0.2353
12392W        W27523   1.817  12.397  15.201  0.0210 -0.1551  0.0126
12393W        W27524  18.525  12.111  15.452  0.2390 -0.0786 -0.0880
12394W        W27525  13.008  15.649   2.332  0.2624 -0.3615  0.1688
12395W        W27526   3.353   2.806  13.310 -0.0587 -0.0541  0.2704
12396W        W27527  16.644   4.013   1.320  0.4377 -0.0112 -0.0317
12397W        W27528  12.714  18.373  11.808 -0.2263  0.0794  0.2222
12398W        W27529   2.452  18.503  10.586 -0.0318  0.2455  0.1832
12399W        W27530  12.236   0.583  14.473  0.0506  0.1728  0.0793
12400W        W27531   8.563  13.121   4.926 -0.1190  0.3015 -0.1649
12401W        W27532   1.119  17.691   5.154  0.2389 -0.0727  0.1336
12402W        W27533   3.353  16.895  15.270  0.0818 -0.0657 -0.0339
12403W        W27534   4.012   3.905   1.983 -0.1245 -0.1365  0.2662
12404W        W27535  11.534   0.625   4.227 -0.2030 -0.3110  0.1564
12405W        W27536   4.478   9.012   1.048  0.0932 -0.0071  0.1348
12406W        W27537   5.260   8.483   9.579 -0.0321 -0.1102  0.2173
12407W        W27538   7.849  16.997   3.823  0.0732 -0.1413  0.2546
12408W        W27539   9.290   7.774  14.378 -0.3631  0.1560 -0.2151
12409W        W27540   3.342   5.155  12.404 -0.1895  0.0037 -0.0560
12410W        W27541  16.581   5.941  14.812  0.3029  0.1263 -0.4651
12411W        W27542   1.771   9.523  12.844  0.0996 -0.0234 -0.0410
12412W        W27543   6.487   2.238  15.759 -0.1688  0.0942 -0.1561
12413W        W27544  15.207  14.752  11.210  0.1115  0.1824  0.1083
12414W        W27545  18.661  13.665  10.917  0.1171 -0.0160  0.2344
12415W        W27546   2.819  13.595   3.706  0.4037 -0.0936  0.0073
12416W        W27547  16.867   9.844   3.252 -0.1008  0.0369 -0.2285
12417W        W27548   3.616  12.727   0.103 -0.1968 -0.0134 -0.1644
12418W        W27549   6.010  13.614  14.563  0.1670 -0.3684 -0.2055
12419W        W27550   6.083   9.189  15.577 -0.3874  0.3768  0.3932
12420W        W27551  17.097  17.268  13.023 -0.3044  0.2692  0.1126
12421W        W27552  17.062  16.170   3.923 -0.2016  0.0296 -0.1026
12422W        W27553   7.357  16.268  10.405 -0.1641  0.2643  0.2189
12423W        W27554  17.269   9.956   0.392  0.2718 -0.3511 -0.5585
12424W        W27555   8.847   5.279   3.689 -0.0687  0.1277  0.3927
12425W        W27556  14.166   2.904  13.401 -0.2594 -0.0686  0.2250
12426W        W27557   9.036   8.137  15.184  0.1118  0.0431 -0.2902
12427W        W27558   8.119   2.239  13.913  0.2772  0.1405  0.0173
12428W        W27559   1.480  13.798  12.605  0.1222 -0.0762  0.1338
12429W        W27560  15.900   0.110   3.490  0.3539  0.1181 -0.0755
12430W        W27561   3.653  11.446   1.465  0.0483  0.0915  0.1962
12431W        W27562   5.975  16.836  14.078  0.1553 -0.2631 -0.1311
12432W        W27563   3.852   4.866   1.779 -0.3875 -0.1530  0.1600
12433W        W27564  16.029   1.455   0.808  0.1991  0.1842  0.0313
12434W        W27565  16.033   6.774  12.007 -0.0302  0.3101  0.0653
12435W        W27566  13.480  15.278  10.772 -0.0556 -0.2999  0.3187
12436W        W27567  16.086   6.231  12.286  0.1021 -0.3595 -0.3154
12437W        W27568   2.266   7.932  11.408 -0.0471 -0.2713  0.0194
12438W        W27569   5.167   1.479   3.002 -0.0010  0.1981 -0.3645
12439W        W27570   1.933   0.726   2.837 -0.0177  0.1087 -0.2255
12440W        W27571  12.032   3.187   5.612 -0.2458  0.0553 -0.0018
12441W        W27572  11.413  15.631  13.242 -0.1247  0.3123  0.4270
12442W        W27573   6.696  12.379   5.809 -0.5538  0.0546  0.0398
12443W        W27574  13.466  12.637   3.645 -0.4926  0.3408  0.0745
12444W        W27575  13.384   7.874   5.318 -0.2332 -0.0499  0.2382
12445W        W27576   4.007   7.330  11.429  0.1141  0.2528 -0.0668
12446W        W27577  12.106   8.745   4.758 -0.2315  0.0952  0.3028
12447W        W27578   0.774   5.612  12.543 -0.1676  0.0336 -0.3949
12448W        W27579   9.142   0.670  12.606  0.0858 -0.1019  0.1320
12449W        W27580   5.581  13.760   9.606  0.2597  0.1336 -0.0447
12450W        W27581   2.551   7.606  11.196 -0.0353 -0.2249  0.0424
12451W        W27582  14.915  12.673   5.741 -0.1442 -0.0867 -0.4403
12452W        W27583   8.040  13.448  11.034 -0.1047 -0.2884  0.0505
12453W        W27584  10.035  14.877  12.600  0.1254  0.0287 -0.2920
12454W        W27585   2.109  11.777   2.343 -0.3499 -0.0454 -0.2680
12455W        W27586   9.273   3.257   0.575  0.4174  0.1052  0.4714
12456W        W27587   2.141   3.188   2.714  0.1123 -0.1252  0.0589
12457W        W27588  10.955   8.028   0.255  0.3481  0.3274  0.0204
12458W        W27589  12.058   9.821   0.529 -0.1374 -0.1915  0.0052
12459W        W27590   4.361   5.824  14.886  0.3769 -0.0669 -0.0266
12460W        W27591  15.119  14.232  12.072 -0.0770 -0.0124  0.2310
12461W        W27592  18.669  15.072  14.605 -0.1083  0.3177  0.0290
12462W        W27593   7.959   5.996   4.543  0.1633 -0.1361  0.0202
12463W        W27594  16.336  13.457  13.105  0.0924  0.3001 -0.0802
12464W        W27595   5.957   0.567  12.235  0.0212 -0.1704  0.2794
12465W        W27596   3.123   0.600   4.980  0.1449 -0.0472 -0.4170
12466W        W27597  18.209  12.272   1.410 -0.4975 -0.1580 -0.2594
12467W        W27598   5.179  15.409   2.314 -0.2798 -0.1309 -0.1134
12468W        W27599  17.902   5.867  13.567  0.1234 -0.1868 -0.0220
12469W        W27600   7.040   6.110  12.287  0.4808  0.2127  0.2667
12470W        W27601  14.375  13.068   4.867 -0.1563  0.0366 -0.4104
12471W        W27602   9.901   8.017   3.450  0.4600  0.0269  0.2799
12472W        W27603   7.032   9.855  10.853 -0.1553  0.0334  0.0095
12473W        W27604  15.937  10.559  12.907  0.0034 -0.1396  0.2368
12474W        W27605  13.284   1.009   4.733  0.1295  0.1947 -0.1915
12475W        W27606  13.157   6.535   4.129 -0.1379 -0.1045  0.0181
12476W        W27607  15.757   9.320  12.341 -0.3052 -0.2793 -0.1466
12477W        W27608   3.968  15.112   3.538  0.0776  0.1015  0.3585
12478W        W27609   8.217  17.304  13.644  0.0617 -0.1502  0.1404
12479W        W27610   7.180  18.391  11.407 -0.4139  0.1698 -0.0773
12480W        W27611   5.351   9.153  12.315 -0.0362  0.2701 -0.0498
12481W        W27612  14.341   9.133  13.615 -0.2806 -0.1726 -0.3243
12482W        W27613  18.290   8.517   1.090  0.3398  0.2995 -0.0586
12483W        W27614  12.664  16.189   1.560  0.0777 -0.5309  0.5134
12484W        W27615   2.660  11.650  13.289  0.0368 -0.0149 -0.0306
12485W        W27616   5.819   6.483  15.012  0.0038 -0.2929 -0.0560
12486W        W27617  18.077   1.577  11.638  0.1185 -0.1699 -0.1804
12487W        W27618  13.645  13.361   2.897  0.0772 -0.2370  0.2361
12488W        W27619   3.714   6.760   4.124 -0.0064 -0.2215 -0.1550
12489W        W27620   5.755   6.461  10.539 -0.1911  0.2099  0.0566
12490W        W27621  12.930   2.207  13.875 -0.1079  0.3670  0.1044
12491W        W27622   3.487   7.127   3.251 -0.3097 -0.0492 -0.4093
12492W        W27623   1.192  16.990   5.796 -0.1190  0.1395 -0.2786
12493W        W27624  12.646   7.147   0.042 -0.0077  0.2112 -0.2326
12494W        W27625   7.654   5.435   4.709 -0.0931 -0.1489  0.0319
12495W        W27626   7.092  17.570  15.739 -0.2206 -0.3883  0.4185
12496W        W27627  13.367  18.202  13.792 -0.0646 -0.0737  0.0827
12497W        W27628  14.387  13.453   5.347 -0.1038 -0.1171  0.0093
12498W        W27629  18.437  10.894  11.708 -0.1982 -0.0880 -0.1385
12499W        W27630   5.473  13.185   3.778  0.1039 -0.3212  0.1348
12500W        W27631   2.681  10.257  15.750  0.1780  0.0697 -0.1779
12501W        W27632   0.890   4.763   0.546 -0.2355 -0.0178 -0.0570
12502W        W27633   1.669  15.622  10.862  0.1342 -0.2445 -0.1003
12503W        W27634  14.497  13.875  13.687 -0.0370  0.1298 -0.2426
12504W        W27635   0.483   7.009  10.352  0.2194 -0.1040 -0.2311
12505W        W27636   8.140  10.095  15.183 -0.1777  0.1265 -0.1406
12506W        W27637  14.674  15.929   2.824  0.1192 -0.3367 -0.0796
12507W        W27638   7.566  14.837   3.944 -0.2309  0.3060 -0.0547
12508W        W27639  16.119  15.203   1.172 -0.2170  0.0594 -0.0291
12509W        W27640  17.659  18.600   4.538 -0.0429 -0.0435  0.1327
12510W        W27641  16.410  15.358   4.932  0.0997  0.2687  0.2178
12511W        W27642  12.416   9.464  14.985 -0.0571  0.0495 -0.0428
12512W        W27643   8.912   9.781  12.887 -0.2474 -0.0900 -0.1887
12513W        W27644   7.989   1.863  12.678 -0.3119 -0.3435  0.2371
12514W        W27645  10.973   0.096  14.159  0.3342  0.2355  0.0168
12515W        W27646   8.688  10.434   6.359 -0.0016  0.0992  0.1403
12516W        W27647  16.729  16.503  13.558  0.1085 -0.1552  0.3267
12517W        W27648  12.334  18.383  14.541 -0.0136 -0.0555  0.1502
12518W        W27649  13.948  17.548  15.243 -0.1626  0.0133 -0.1541
12519W        W27650   2.537  12.002   2.069  0.0717 -0.4872  0.0741
12520W        W27651   3.633   3.440   1.396 -0.1346 -0.0043  0.2278
12521W        W27652   0.857  12.048  14.301 -0.0685 -0.0096 -0.0195
12522W        W27653  17.071  11.294   4.916  0.0322 -0.2120 -0.1140
12523W        W27654   3.573  18.707   5.307 -0.1618  0.1038  0.0367
12524W        W27655   0.472   1.056   0.529  0.0156  0.0270 -0.3409
12525W        W27656   5.253  13.357   1.081 -0.0391  0.2357 -0.3948
12526W        W27657   7.456   6.550   3.594  0.1141 -0.0087 -0.3047
12527W        W27658   1.049   8.034  14.636 -0.3686  0.2605  0.1112
12528W        W27659   9.205  16.540   9.814 -0.0810  0.1049  0.3271
12529W        W27660   6.566   1.271   4.233  0.3454 -0.2152 -0.0569
12530W        W27661  15.260  16.280  11.094 -0.1565 -0.2198  0.0118
12531W        W27662  14.807   9.145  13.857  0.0426  0.1568  0.0487
12532W        W27663   7.723   0.775  13.370  0.2039  0.0462  0.2364
12533W        W27664  11.680   4.791   2.322 -0.0471  0.2902 -0.0829
12534W        W27665   1.443   9.007  12.053 -0.1785  0.5374  0.2186
12535W        W27666   8.460   8.559   0.900  0.1020  0.2361  0.3001
12536W        W27667   1.787  13.061   1.400 -0.1543  0.1522  0.0929
12537W        W27668   5.858   7.035  13.917 -0.0028  0.2359  0.0071
12538W        W27669   8.961   7.089   2.950  0.0990 -0.2793  0.1438
12539W        W27670  18.737   9.000  14.683 -0.0278 -0.0090 -0.0542
12540W        W27671   0.594   2.954  12.054 -0.0332 -0.1772  0.0206
12541W        W27672  14.137   0.873   1.445 -0.1130  0.1236  0.1416
12542W        W27673  11.766   6.983  13.515  0.0335  0.1434 -0.0910
12543W        W27674   3.800   6.826   3.603 -0.0015  0.1051  0.1995
12544W        W27675   4.862  10.465  12.863 -0.1280 -0.2618  0.0582
12545W        W27676   0.025  14.763   3.552 -0.0215 -0.0435  0.0858
12546W        W27677  15.191   0.439  14.390  0.1561  0.5537  0.1807
12547W        W27678   7.889  14.531  12.605  0.1963  0.0078  0.1769
12548W        W27679  11.712  13.846   6.285 -0.2145 -0.1128  0.2459
12549W        W27680  12.245  13.545  14.063 -0.1446 -0.1114 -0.4117
12550W        W27681   6.936  17.918   4.378  0.1493  0.0163 -0.0189
12551W        W27682  12.946  10.521  13.422  0.2173 -0.0038  0.1800
12552W        W27683  13.015  12.051  14.030  0.0044 -0.1542  0.0294
12553W        W27684   7.706   7.892  11.093 -0.0795  0.1581 -0.1452
12554W        W27685   5.137  18.315  13.092  0.0922  0.0473  0.0477
12555W        W27686   5.097  16.766   3.724  0.2242 -0.1408  0.1090
12556W        W27687   6.138   8.136  11.721  0.1987  0.2610  0.3065
12557W        W27688   0.983   1.912  11.199 -0.0089  0.3142  0.3347
12558W        W27689   5.052  16.464   0.603 -0.0958 -0.0885  0.0431
12559W        W27690   6.758  10.480  14.544  0.3462 -0.0247 -0.1753
12560W        W27691   4.363   6.713   2.866 -0.3766 -0.3062 -0.2498
12561W        W27692   0.826   9.345  15.247  0.2221  0.0594  0.0313
12562W        W27693  16.600  16.257  15.493  0.0258 -0.0043  0.2535
12563W        W27694   0.585   9.481   2.940  0.1266  0.0108 -0.0760
12564W        W27695  11.899  10.971   0.139  0.0657  0.3129 -0.1078
12565W        W27696   1.784   7.233   1.375 -0.0145 -0.0710 -0.2113
12566W        W27697  16.844  18.389   0.693 -0.0272 -0.1952 -0.1918
12567W        W27698   6.756  11.129   0.687 -0.2005 -0.1855  0.0626
12568W        W27699  10.772  10.378  14.521 -0.2057  0.1976  0.3732
12569W        W27700   5.202  13.075   2.553 -0.0032  0.1666 -0.1154
12570W        W27701   0.895  15.780  13.280  0.2851 -0.3504  0.2212
12571W        W27702  17.228   3.420   3.969 -0.2134 -0.0386 -0.1193
12572W        W27703   2.893   1.385  15.477 -0.2437  0.0956 -0.1513
12573W        W27704   6.014  12.726   0.959  0.0788 -0.1089 -0.0158
12574W        W27705  16.633  14.624   4.397 -0.0115 -0.3074  0.0146
12575W        W27706  15.785  12.421  14.572  0.0149 -0.0939 -0.0137
12576W        W27707   5.515   5.614   0.824 -0.0730  0.0394 -0.3412
12577W        W27708   9.315   6.663   0.180  0.2267 -0.1924  0.0061
12578W        W27709  18.214   4.245   2.349  0.0278  0.0724 -0.2649
12579W        W27710  11.640   1.356   0.185 -0.1403  0.0580 -0.0692
12580W        W27711  12.186  17.673  10.704  0.1811 -0.0397  0.0744
12581W        W27712   7.199   4.816   5.218  0.1257  0.1608 -0.1456
12582W        W27713   0.984  14.641  13.952  0.0085 -0.0170 -0.0679
12583W        W27714   0.214   5.642  12.656  0.0943  0.2214  0.0085
12584W        W27715  15.871   0.029   1.144  0.2655  0.1239  0.0825
12585W        W27716  14.900   4.505   3.509 -0.3183  0.1039 -0.0511
12586W        W27717   2.086   2.907   4.884  0.1028 -0.2398 -0.1420
12587W        W27718   5.171   8.777  14.195  0.1364 -0.2251 -0.0891
12588W        W27719   9.281   9.459  12.746  0.0913  0.0375  0.2705
12589W        W27720   8.721   0.051  14.229  0.0096  0.2852  0.0171
12590W        W27721  13.651  18.218   1.707 -0.1081 -0.3173  0.0651
12591W        W27722  11.710  16.161  15.189  0.1728  0.1787  0.1468
12592W        W27723  17.681   9.378  15.371  0.1746  0.0852 -0.2974
12593W        W27724   0.651  14.312  10.662 -0.0822 -0.0547  0.2767
12594W        W27725  18.207   8.927   0.843 -0.1069  0.0205  0.0180
12595W        W27726   9.278  15.137  10.562  0.0210  0.0310  0.0968
12596W        W27727   6.836   8.068  13.451 -0.0316  0.0128 -0.0608
12597W        W27728  16.370  18.734  15.565  0.0169  0.0059 -0.0993
12598W        W27729   5.168   4.505   1.641  0.0554  0.1677  0.0075
12599W        W27730  13.503  18.190  12.204 -0.0507  0.3018 -0.0602
12600W        W27731  14.053   8.897  15.294  0.2868 -0.0057  0.2341
12601W        W27732   3.129  16.934   1.028  0.0480 -0.0023  0.2511
12602W        W27733   3.281   7.272   4.580  0.3624 -0.3504 -0.0877
12603W        W27734   9.175   3.240  14.906  0.0129  0.1170  0.0493
12604W        W27735  12.227   7.800  14.451  0.1425 -0.0228  0.1258
12605W        W27736  11.571   8.926  11.738 -0.0522 -0.3081  0.1968
12606W        W27737  16.679   9.080   3.822  0.1075  0.1638  0.3459
12607W        W27738   4.485   8.455  11.227  0.0464 -0.2419 -0.2690
12608W        W27739  10.594   4.304   2.015  0.0236  0.0331 -0.1264
12609W        W27740   3.449  15.037  11.129 -0.2203  0.1446  0.2181
12610W        W27741   1.195  17.908   1.922 -0.0664  0.0933  0.4527
12611W        W27742   4.868  11.049   0.445 -0.0629 -0.0863 -0.2880
12612W        W27743   2.726   1.833  12.815  0.3177  0.1364  0.2452
12613W        W27744  15.528   0.933   1.418 -0.3279 -0.4334 -0.1606
12614W        W27745   5.620   9.609  12.135 -0.0761  0.2328  0.0687
12615W        W27746   7.097   3.421   3.990 -0.0034 -0.3786  0.0499
12616W        W27747  18.265  13.076   2.147  0.0245 -0.3777  0.3365
12617W        W27748  15.222  10.451  14.950 -0.1729  0.0437 -0.0632
12618W        W27749   2.939  11.713   3.971 -0.1209  0.3567 -0.1054
12619W        W27750   7.232   1.310  13.275 -0.1289 -0.2341  0.1589
12620W        W27751  12.164   2.568   3.653 -0.2312 -0.0145 -0.1745
12621W        W27752  14.917   6.388   4.294 -0.2112 -0.0489 -0.2909
12622W        W27753   9.719  16.495   1.073  0.5119 -0.2383 -0.0545
12623W        W27754  15.213   3.793   0.795  0.0718 -0.4214 -0.1377
12624W        W27755   0.813  11.711  15.541 -0.2580  0.0257 -0.0384
12625W        W27756   1.178   3.165   0.592  0.3414  0.0928  0.2663
12626W        W27757  10.012  18.333  12.689  0.2003  0.3428 -0.1113
12627W        W27758   3.164   2.171   5.343  0.3016  0.1215 -0.0971
12628W        W27759   5.564  10.037  12.574 -0.1975  0.0212 -0.0968
12629W        W27760  10.574  17.526   4.229  0.2323 -0.0512  0.1752
12630W        W27761  10.194  11.387   2.225 -0.0688  0.1253  0.2386
12631W        W27762  13.152  16.686   0.491 -0.1122  0.2135  0.1576
12632W        W27763   6.220   4.588  11.708  0.0171 -0.1819 -0.0737
12633W        W27764   6.173   8.083   3.307  0.1296 -0.0545  0.1035
12634W        W27765   3.862   6.138   0.024  0.0803  0.3323 -0.0523
12635W        W27766   0.087   1.401  15.465 -0.2878 -0.3266 -0.3458
12636W        W27767   6.146  10.628   5.210 -0.1425  0.1177 -0.0150
12637W        W27768  12.036  17.313   5.590  0.2025 -0.7086  0.2516
12638W        W27769   3.903   7.391  15.738 -0.0203  0.2693 -0.0492
12639W        W27770  13.093   2.693   1.894  0.2399 -0.0823 -0.2523
12640W        W27771   5.144  17.467   4.644 -0.2441  0.1024 -0.2594
12641W        W27772  10.763  14.412   4.356 -0.1776 -0.3066 -0.1436
12642W        W27773   5.594  17.807  14.117  0.0049 -0.0669  0.0857
12643W        W27774   9.601   2.047   3.392 -0.1707  0.0558 -0.1469
12644W        W27775   8.174  13.510   6.093  0.1828  0.2326  0.0923
12645W        W27776   6.560  10.150   1.738 -0.1191 -0.3862  0.2603
12646W        W27777   4.907  11.538  10.724  0.0951 -0.2534 -0.1751
12647W        W27778  10.753  17.417   1.281 -0.1659 -0.0137 -0.3615
12648W        W27779   4.405   4.931   1.929  0.0297 -0.0533 -0.0507
12649W        W27780  11.148   6.571  10.889  0.2111 -0.0109 -0.2697
12650W        W27781   3.066  13.535  11.039 -0.4092 -0.2577  0.1790
12651W        W27782  13.455   3.652   0.844  0.0811  0.2337 -0.1440
12652W        W27783   8.928  17.636   1.008  0.2401 -0.0225 -0.3825
12653W        W27784   1.100  15.028  11.014 -0.2700  0.2677 -0.1702
12654W        W27785   5.551   3.360  12.777 -0.1708  0.0657  0.1173
12655W        W27786   4.518  17.008  13.929 -0.0080 -0.0722  0.2833
12656W        W27787   4.173   7.835  13.880 -0.0650 -0.2272  0.0083
12657W        W27788  17.059  13.717   1.721 -0.0845  0.0244 -0.1978
12658W        W27789  12.126  10.849  10.386 -0.0919  0.0832  0.3936
12659W        W27790   8.950  11.779   6.031  0.1204 -0.0485  0.0814
12660W        W27791   8.712   7.253  11.964 -0.2008 -0.2738  0.2663
12661W        W27792  16.410   4.652  13.522  0.2013  0.2383  0.0486
12662W        W27793  12.363   3.948   0.866 -0.0995  0.2707 -0.1802
12663W        W27794   7.508   1.827  11.971 -0.0172  0.1639  0.3012
12664W        W27795   8.624   1.687   4.010  0.0078  0.1241  0.0973
12665W        W27796  12.363  17.592  14.999  0.1956  0.0600  0.1975
12666W        W27797  11.391  15.906  11.935 -0.0989 -0.1295 -0.3693
12667W        W27798  13.417   3.649   1.431  0.1865 -0.0613  0.1042
12668W        W27799   7.261  13.986  15.187 -0.1009 -0.1121 -0.1967
12669W        W27800  14.276   7.630   0.423 -0.0485  0.2674  0.4944
12670W        W27801  11.205   9.787  13.782 -0.2889  0.1346  0.0396
12671W        W27802  10.349  13.050   1.429 -0.1103 -0.1045 -0.2575
12672W        W27803  16.529   9.580   5.113  0.0421  0.2597 -0.1270
12673W        W27804   5.166  18.012   1.276 -0.1502 -0.1101 -0.1326
12674W        W27805  11.681   2.004  14.148  0.1927  0.1012  0.4068
12675W        W27806   3.187  18.384   0.479  0.2003 -0.1472 -0.1029
12676W        W27807   7.164   9.636   3.062  0.4066 -0.2942 -0.2213
12677W        W27808   3.148  17.880   4.420  0.0717 -0.1787  0.3063
12678W        W27809  11.907   4.917  10.793 -0.0356 -0.0938 -0.3025
12679W        W27810  16.182   8.896  13.656  0.4113 -0.1257 -0.0549
12680W        W27811   8.388   6.533  14.199  0.0213  0.1411  0.0966
12681W        W27812   0.297  12.696   4.259  0.0881  0.0764  0.0702
12682W        W27813   7.244  14.163   3.529 -0.0653  0.0990  0.0131
12683W        W27814   7.352   0.877   1.097 -0.1402  0.1332 -0.0023
12684W        W27815   4.226  11.323   1.103  0.2484  0.0045  0.0350
12685W        W27816  16.986  17.912  15.269 -0.1717  0.1551  0.0399
12686W        W27817   0.974   8.380   2.150  0.2312  0.0147 -0.0119
12687W        W27818   6.880   0.126  14.234  0.1622 -0.0586 -0.1321
12688W        W27819   5.633  16.623  13.728  0.2397  0.0141  0.1393
12689W        W27820   3.848   5.456   1.202 -0.1398  0.2274 -0.2526
12690W        W27821   3.267  14.724  12.075  0.0649  0.2203 -0.1858
12691W        W27822  10.717   4.856   5.090 -0.2585 -0.0555  0.2688
12692W        W27823   6.904  16.098   0.584  0.0303 -0.1978  0.0179
12693W        W27824  15.235  15.908   5.857 -0.0288 -0.2463 -0.3929
12694W        W27825  17.670   2.449   4.720 -0.3512 -0.4342 -0.0779
12695W        W27826   9.805   3.321   0.353 -0.1040 -0.0990 -0.1831
12696W        W27827   4.557   7.684  11.825 -0.1098  0.0439  0.3032
12697W        W27828   0.780   1.212   5.536  0.1199  0.2812  0.0176
12698W        W27829   4.830  15.250  10.587 -0.1161 -0.1696  0.0059
12699W        W27830   8.727   0.245   2.006 -0.0688 -0.2489 -0.0286
12700W        W27831   6.897   6.040  14.428  0.2093 -0.2626 -0.1235
12701W        W27832  14.197  17.882  14.479  0.0581  0.1169 -0.1104
12702W        W27833   8.570   5.105  13.145  0.1534  0.0903  0.1872
12703W        W27834   8.568   2.886  10.629  0.0674 -0.0173 -0.0096
12704W        W27835   1.997  10.833  11.325  0.1196  0.1218 -0.0481
12705W        W27836   7.598   6.160   2.093 -0.4612  0.1359  0.0586
12706W        W27837   2.418   7.623   1.265  0.1331 -0.0882 -0.1001
12707W        W27838  13.383   2.456  11.175  0.1908  0.1240 -0.1110
12708W        W27839  10.820  13.404   6.590 -0.0396  0.0767 -0.2405
12709W        W27840  13.207   3.970   4.656  0.3742  0.0681  0.0119
12710W        W27841  17.406  13.238  15.311 -0.2746 -0.0756  0.3072
12711W        W27842  10.025  16.420   2.822  0.0422  0.1588  0.1291
12712W        W27843   3.339   8.303  10.851  0.3038 -0.0610  0.3354
12713W        W27844  10.900  13.583  12.389 -0.1524  0.0632 -0.2954
12714W        W27845  17.449   2.094  11.880  0.2691 -0.0325  0.0008
12715W        W27846   8.189   9.445  11.632 -0.1198  0.2304 -0.0980
12716W        W27847  14.592  16.391   4.474  0.5525  0.1240 -0.2046
12717W        W27848   6.919  12.956   1.262 -0.1210  0.2257 -0.0792
12718W        W27849  13.795  18.222   2.847  0.1611 -0.1009  0.1648
12719W        W27850   4.537  13.866   3.264 -0.1682 -0.0571  0.0969
12720W        W27851   6.959  15.324   0.208 -0.2048  0.3492  0.0898
12721W        W27852  13.217  15.324   4.762  0.0021 -0.2219 -0.1043
12722W        W27853  12.400   2.320  14.201  0.2955  0.0046 -0.1916
12723W        W27854  15.998  14.368   2.550  0.1834  0.0712 -0.0247
12724W        W27855  16.382  16.329   0.696  0.0020 -0.0801 -0.1846
12725W        W27856   4.416  13.772   3.773 -0.1807  0.0932  0.0901
12726W        W27857  17.581   1.363  12.622  0.1846  0.2830  0.1247
12727W        W27858   9.563   4.481   2.100 -0.0772  0.3199 -0.2232
12728W        W27859  15.759   4.963  12.727 -0.0905 -0.3853 -0.0662
12729W        W27860  14.699   5.596   0.194  0.1276  0.1501 -0.2029
12730W        W27861   5.501   3.227   3.887 -0.0909  0.2256 -0.3766
12731W        W27862   8.233   3.318  10.038 -0.0136  0.1112  0.1239
12732W        W27863   1.394  10.157   5.361 -0.2112 -0.3012  0.0070
12733W        W27864  13.686  15.185   2.090 -0.1970  0.2670 -0.2422
12734W        W27865   1.083   9.185  13.958 -0.1717  0.2749  0.0303
12735W        W27866  12.464   6.343   4.130  0.0587 -0.0055 -0.1576
12736W        W27867   6.252   8.858   3.421 -0.1272 -0.0433 -0.2817
12737W        W27868  16.127   9.943   1.833 -0.0122  0.1669 -0.2273
12738W        W27869  15.998   3.863   3.702 -0.4528  0.0773 -0.2088
12739W        W27870   1.867   7.159   0.305 -0.0032 -0.1637  0.0929
12740W        W27871  14.515   5.270  13.706  0.0225  0.0767 -0.0558
12741W        W27872  17.923   5.326   2.234 -0.1301  0.2383 -0.2712
12742W        W27873   5.412  12.225   5.226  0.3276  0.0037  0.2610
12743W        W27874  13.896  15.597   4.564 -0.0755 -0.0899  0.0114
12744W        W27875   4.801   4.211  12.043 -0.1043 -0.0083  0.1360
12745W        W27876   8.933   3.354   1.427 -0.1602 -0.3854  0.0196
12746W        W27877   5.073  18.162   2.688  0.0982  0.0007  0.0863
12747W        W27878   9.411  16.706   2.531 -0.0960  0.1463 -0.3234
12748W        W27879  13.521  16.928   4.361  0.1239 -0.2356  0.0931
12749W        W27880  13.961   4.026   2.765  0.0533 -0.0865  0.1382
12750W        W27881  13.368  17.270   1.710  0.0954  0.1292  0.0852
12751W        W27882  17.697  14.663  13.945  0.1545  0.0147 -0.0287
12752W        W27883  16.422   6.510  10.162  0.3213  0.1122 -0.1098
12753W        W27884   0.364  13.426   0.455 -0.0283  0.1609  0.0938
12754W        W27885  14.971   8.242   2.453 -0.1002 -0.0855 -0.2978
12755W        W27886   5.874  13.086   2.828  0.1446 -0.1867 -0.3369
12756W        W27887   3.170  12.608  12.588  0.0367 -0.5175 -0.3094
12757W        W27888   3.352   7.599   3.367  0.2222  0.0231  0.1911
12758W        W27889  11.382  13.116  11.707 -0.0812  0.1836 -0.2336
12759W        W27890   6.494   4.616  13.070  0.0998 -0.1364  0.0749
12760W        W27891   3.933   6.564  15.255 -0.1808 -0.3229 -0.2199
12761W        W27892   8.249   4.166   3.082 -0.1657  0.2777  0.0808
12762W        W27893   6.698  17.992  12.507 -0.0905 -0.0925 -0.0595
12763W        W27894  13.731   9.054   4.443 -0.0795  0.0707 -0.0618
12764W        W27895   9.335  18.742   3.419  0.0540  0.2269 -0.0114
12765W        W27896   8.803  11.858  10.887  0.0817 -0.2539 -0.0032
12766W        W27897   8.679   7.780   4.656 -0.3458 -0.0814  0.3137
12767W        W27898   8.792   5.687  13.363 -0.0205  0.0325  0.0357
12768W        W27899  14.917   7.748   4.869 -0.0483  0.0125 -0.0558
12769W        W27900   8.801  13.519   5.066  0.0385 -0.0759  0.0017
12770W        W27901  11.594   5.074   4.481 -0.2017  0.1399  0.1421
12771W        W27902   7.973  14.883   1.610  0.1484  0.3502  0.1015
12772W        W27903   2.803   2.439  15.073  0.2046 -0.0642  0.1912
12773W        W27904   6.208   6.774  14.798 -0.1409  0.1220  0.0254
12774W        W27905   9.200   2.089   3.706 -0.1787  0.1089  0.0889
12775W        W27906   4.244  11.217   5.097  0.2245  0.1934  0.2320
12776W        W27907   8.805   2.872   1.220 -0.2275 -0.1790 -0.2564
12777W        W27908  17.296  16.765   4.383 -0.0067  0.1314 -0.0583
12778W        W27909  17.704   2.513  11.643 -0.1565  0.0732  0.2302
12779W        W27910   4.406   9.068  14.227 -0.2977 -0.3886 -0.1585
12780W        W27911   5.093   3.628   2.817  0.0277 -0.0688 -0.0412
12781W        W27912   7.209   9.958  13.765 -0.1171 -0.2591  0.0311
12782W        W27913   9.493   9.408  11.425  0.0960  0.0051  0.1356
12783W        W27914   5.123  10.988  14.760 -0.0984  0.0903  0.3393
12784W        W27915  14.385   2.036   0.080 -0.2470  0.3279 -0.0394
12785W        W27916  12.621   5.167   0.820  0.3022  0.0725  0.1972
12786W        W27917   9.789   2.948   1.488  0.1133 -0.1710 -0.0006
12787W        W27918   2.470  13.134  14.934  0.0984  0.2883 -0.2284
12788W        W27919  15.345  13.038   1.046  0.0979  0.1520  0.1052
12789W        W27920  17.896  13.990   5.337  0.2780  0.2586  0.0540
12790W        W27921   4.218  12.400  12.576 -0.3176 -0.0034  0.3531
12791W        W27922  16.727   8.839  12.355  0.2008 -0.0884 -0.1808
12792W        W27923  17.011  16.064  11.727  0.1110 -0.0427  0.1102
12793W        W27924  15.675  11.727  15.221 -0.0674  0.0636 -0.0871
12794W        W27925  16.107   3.730   4.527  0.1392  0.1675  0.0273
12795W        W27926  17.023  16.183  13.758 -0.0929 -0.2536 -0.0112
12796W        W27927  17.658   6.508  12.394 -0.2039 -0.0284  0.1385
12797W        W27928  15.109  11.442  11.159  0.1813 -0.0098  0.3094
12798W        W27929  11.510  12.106   4.354  0.0647  0.0056  0.1162
12799W        W27930  10.466   7.475   4.174  0.1395  0.0583  0.1187
12800W        W27931   7.863   2.965  15.136 -0.1489 -0.0122 -0.3659
12801W        W27932   3.247   7.669   1.275 -0.5425 -0.1127 -0.1307
12802W        W27933  12.990   0.348   1.987  0.3822  0.0345  0.0572
12803W        W27934   7.608  15.012   0.839 -0.2663  0.1676 -0.1160
12804W        W27935   2.564  14.640  10.895  0.0688  0.2865 -0.0017
12805W        W27936  11.721  17.791   4.835  0.2175 -0.3574  0.1235
12806W        W27937   3.187   1.576  13.921 -0.0099 -0.1521 -0.0548
12807W        W27938   5.631   1.811   0.201 -0.4304 -0.2203 -0.1925
12808W        W27939  17.059   8.370  14.701 -0.1160  0.0513 -0.3596
12809W        W27940  10.534  10.292  13.992  0.2209 -0.2286  0.1782
12810W        W27941   7.453  13.713  14.383  0.0521  0.4485  0.0058
12811W        W27942   6.135   3.074  14.140 -0.3236 -0.0725 -0.0035
12812W        W27943  14.507   6.937   0.363  0.2133  0.0997  0.2298
12813W        W27944   6.312  10.594   2.480 -0.0130  0.0098  0.0779
12814W        W27945   4.713   5.870   2.206 -0.1404  0.1783 -0.1893
12815W        W27946  12.921  10.491   1.633 -0.1073  0.0956 -0.1823
12816W        W27947  16.483  15.803  13.012  0.1183 -0.0982 -0.2008
12817W        W27948  12.622  13.752   2.006 -0.0620 -0.1820  0.3829
12818W        W27949  12.785   7.446  11.977 -0.1462  0.2399  0.0446
12819W        W27950  15.318   0.288   5.985  0.2695 -0.3880  0.1043
12820W        W27951   4.039   2.730  13.134 -0.0380 -0.1160  0.2370
12821W        W27952   3.722  18.027   2.494 -0.1111 -0.2374  0.2823
12822W        W27953  13.133  13.000   4.614 -0.2568  0.0518 -0.2339
12823W        W27954  13.702  16.678  13.603 -0.0628  0.2094 -0.1537
12824W        W27955  18.143  14.945   1.293  0.0919  0.0865 -0.0686
12825W        W27956  14.858  13.047   0.191 -0.1066 -0.3766 -0.3410
12826W        W27957   5.404  10.915  15.224  0.0876  0.2190 -0.1259
12827W        W27958   5.763   0.428  13.955 -0.0211  0.0202 -0.0075
12828W        W27959   3.262  11.929   4.843 -0.1131  0.0194  0.0726
12829W        W27960  13.168   8.593  12.332  0.1148 -0.2332 -0.0982
12830W        W27961  18.653  16.240  14.416  0.2084 -0.1668 -0.1702
12831W        W27962  17.048   8.717   1.570  0.0088 -0.1496 -0.2656
12832W        W27963   2.694  14.896  11.325  0.0411  0.0688 -0.2455
12833W        W27964  10.544  14.985  12.826 -0.0289 -0.2116  0.0889
12834W        W27965  15.935  12.142  12.216  0.1879  0.1418 -0.0528
12835W        W27966  11.580  13.333  12.606 -0.2834  0.0085 -0.0103
12836W        W27967  13.623   7.574   2.102 -0.0103 -0.0539  0.2057
12837W        W27968   2.516   2.812  14.888 -0.0146  0.0531  0.0976
12838W        W27969   7.805   8.539  15.143  0.0891 -0.1484 -0.0950
12839W        W27970   4.666   4.968  15.169  0.0343 -0.4296 -0.1928
12840W        W27971   0.565   2.956  11.436 -0.0552 -0.1911 -0.1443
12841W        W27972  13.799   8.903   2.896  0.1564 -0.0433 -0.1586
12842W        W27973  10.563   1.459  12.446  0.2733 -0.0318 -0.1017
12843W        W27974   6.845  13.979   1.234 -0.0649 -0.0487  0.1383
12844W        W27975  14.740  14.507   0.914  0.1515 -0.1163  0.2262
12845W        W27976  14.321   2.485  13.959  0.0002 -0.4482  0.0431
12846W        W27977   8.159  14.039   4.751 -0.1985  0.0387 -0.2291
12847W        W27978  17.386   9.893   2.242 -0.4446  0.0207 -0.4443
12848W        W27979   8.778   6.464   1.537  0.0887 -0.2284  0.1109
12849W        W27980  15.151   0.679   1.286 -0.0805  0.1731 -0.0706
12850W        W27981   1.124   9.602   0.678 -0.3107  0.3489  0.0622
12851W        W27982   7.431   4.036  12.914  0.1262 -0.1211 -0.0820
12852W        W27983  11.854  10.626   1.672 -0.1110  0.0299  0.1349
12853W        W27984  17.568   3.348   4.450  0.3046 -0.2119  0.1553
12854W        W27985  13.436  11.048   9.975 -0.2334  0.0328  0.0796
12855W        W27986  13.475   7.651   0.978  0.1160 -0.3716  0.1569
12856W        W27987  18.511   5.987  12.413  0.0008 -0.1854  0.4560
12857W        W27988   8.335  10.520   1.609  0.1454  0.0008 -0.0416
12858W        W27989   8.672   4.177  10.884 -0.1724 -0.0412 -0.0804
12859W        W27990  12.032   9.921  11.141 -0.0152  0.1785  0.0342
12860W        W27991  18.659  12.698  15.665  0.3392  0.2979 -0.2882
12861W        W27992  15.080   7.780  11.773  0.4563 -0.0407  0.0984
12862W        W27993  11.904  14.447  14.740  0.3825 -0.0834  0.1332
12863W        W27994   8.380  16.712  15.312 -0.1871  0.2413 -0.1352
12864W        W27995   3.365  10.718  10.479 -0.0572 -0.1603  0.2489
12865W        W27996  10.641   1.099  13.644  0.0703 -0.0120 -0.3741
12866W        W27997  17.635   5.197   4.184  0.2293  0.0516  0.1034
12867W        W27998   1.703  15.044   1.831 -0.2512 -0.0438 -0.1674
12868W        W27999  11.275  10.103   0.458 -0.3050 -0.0563  0.1482
12869W        W28000   6.264  13.548  11.955  0.4505 -0.2573 -0.0833
12870W        W28001   1.658   1.415   1.020  0.0938 -0.3216  0.0765
12871W        W28002  17.632  18.440   1.202  0.0071 -0.1491  0.1971
12872W        W28003  14.817   6.519   2.296  0.0050  0.0416  0.1350
12873W        W28004  14.382   7.033   1.721 -0.3102 -0.1758 -0.0229
12874W        W28005   3.425  11.692   3.876 -0.2915  0.1709  0.1501
12875W        W28006  16.114  13.221   4.291  0.2260  0.3276 -0.0986
12876W        W28007   0.045   3.162   4.871 -0.1620  0.1038  0.0036
12877W        W28008   6.792  12.608  11.310  0.2145  0.0032  0.1618
12878W        W28009   8.885   0.015   4.915  0.5472  0.3690 -0.0241
12879W        W28010   9.459   9.238   4.465  0.1609 -0.1097 -0.1141
12880W        W28011   2.159  11.250  12.549 -0.0285 -0.1762 -0.0080
12881W        W28012   0.934  13.829  12.575  0.1989 -0.1841  0.0168
12882W        W28013   5.151   3.253   1.484  0.0525  0.0030 -0.0266
12883W        W28014   0.005   2.508   1.397  0.0922 -0.2724  0.0541
12884W        W28015   1.566  15.389   5.069 -0.0677 -0.0190 -0.2813
12885W        W28016  18.602   2.930  12.031 -0.2410  0.0811 -0.1801
12886W        W28017   5.973   8.156  10.713  0.1021 -0.0286 -0.1630
12887W        W28018   1.760  13.566  12.064  0.0147  0.2524  0.1341
12888W        W28019   5.283  18.743   1.721 -0.0242  0.1090  0.0786
12889W        W28020  13.384   4.345   3.945  0.0736 -0.3506  0.1054
12890W        W28021  15.855  14.787   3.784 -0.1722  0.1897 -0.2313
12891W        W28022   0.717   7.809   4.090 -0.3308 -0.0294 -0.1401
12892W        W28023   1.223   4.803  11.770 -0.2202 -0.0937  0.0225
12893W        W28024   1.304   5.898   3.924 -0.5866  0.1022 -0.3333
12894W        W28025   3.237   6.608   3.734  0.1215  0.0611 -0.0524
12895W        W28026   6.888   6.318   0.110 -0.1087 -0.1781  0.1970
12896W        W28027  16.293   3.209  15.593 -0.1384 -0.2160  0.1093
12897W        W28028  11.322   7.380  13.923  0.3524 -0.0557  0.1845
12898W        W28029   0.204   2.492   5.779  0.0249  0.1941  0.1761
12899W        W28030  11.756  15.026  10.710  0.1059 -0.1809  0.1297
12900W        W28031  10.392   1.055  14.724 -0.0581  0.0749  0.2042
12901W        W28032  14.655   8.222  11.162 -0.0431 -0.1017  0.3889
12902W        W28033   3.415   5.489   3.494 -0.0168  0.0783  0.1777
12903W        W28034   6.621  13.109  15.344 -0.3917  0.2153 -0.1416
12904W        W28035  11.373   6.890   4.564 -0.0427  0.0533 -0.1142
12905W        W28036   4.282   0.428  12.268 -0.0565  0.0388 -0.3441
12906W        W28037   6.579   6.073   1.385 -0.0426 -0.0058 -0.0349
12907W        W28038   1.714  16.271   4.233  0.0206  0.2016 -0.0091
12908W        W28039   9.531  16.106   1.293 -0.3046  0.3324  0.0963
12909W        W28040   6.290   2.859   5.049 -0.1268 -0.3052  0.1350
12910W        W28041   4.463   3.856  11.802 -0.0651  0.0680  0.0745
12911W        W28042  18.258   3.485  11.385  0.5971  0.0254  0.3182
12912W        W28043  11.970  12.533   0.823 -0.2627 -0.0439 -0.0689
12913W        W28044   9.532  15.668  14.479 -0.1801 -0.2512 -0.0979
12914W        W28045  12.884   1.466  13.994 -0.2687  0.0597  0.0719
12915W        W28046   8.943  15.287  13.742 -0.2588 -0.0838  0.1831
12916W        W28047   0.623   3.356   0.378  0.0868  0.0629  0.4343
12917W        W28048  17.525   7.724  11.829  0.0818  0.2292 -0.0368
12918W        W28049   9.154   4.964   4.515 -0.0484 -0.0461 -0.0454
12919W        W28050   1.086   2.979   9.883  0.3253  0.2699 -0.1733
12920W        W28051  11.064   2.998   1.084 -0.3466  0.3288  0.1827
12921W        W28052   3.738  15.487  10.852  0.0421  0.0464  0.3332
12922W        W28053  11.128   8.930   4.843  0.2286  0.0299 -0.2795
12923W        W28054  16.881  15.163  11.522  0.0611  0.2199  0.1448
12924W        W28055   0.409  16.771  11.049  0.1551  0.0692 -0.2218
12925W        W28056   9.939  15.417  12.012  0.0326  0.0441 -0.2016
12926W        W28057   0.868  14.471   3.401  0.1506 -0.0248  0.2462
12927W        W28058   9.770  12.248  10.139 -0.1153  0.0780 -0.0780
12928W        W28059  13.648  18.581  13.976  0.1671  0.2325 -0.1235
12929W        W28060   1.470   1.475   1.473  0.1407  0.1604 -0.0489
12930W        W28061  18.230   4.965   1.949  0.0845  0.1499 -0.4000
12931W        W28062   4.327   3.406   2.868 -0.1363  0.0459 -0.0299
12932W        W28063   7.408   4.515   2.871  0.2671  0.1779 -0.0024
12933W        W28064   9.717   5.934  11.726  0.0860 -0.2141  0.1640
12934W        W28065   8.213   8.227   3.285  0.0148  0.0818 -0.2032
12935W        W28066   3.142   8.866   0.206 -0.1191 -0.0763 -0.1992
12936W        W28067  10.652   7.128  11.058 -0.3810 -0.0676  0.0259
12937W        W28068   9.559   6.397  15.557 -0.1663 -0.1796 -0.0857
12938W        W28069   3.519   5.824  11.085  0.3740 -0.1439 -0.0038
12939W        W28070  14.257  14.102  11.851 -0.2671  0.0458  0.0569
12940W        W28071   1.516  14.513   0.125 -0.0604 -0.0983  0.0156
12941W        W28072   6.937   1.288   0.913  0.0389 -0.2105  0.1851
12942W        W28073  10.678   6.220  12.917  0.0558  0.0101  0.2011
12943W        W28074   3.345   2.304   3.765 -0.0448  0.0157 -0.0505
12944W        W28075  13.728   2.107   0.690 -0.1084 -0.0657  0.1063
12945W        W28076  16.483  14.467   1.672  0.0360 -0.0501 -0.0603
12946W        W28077   7.899   6.271  15.383 -0.2167  0.3411 -0.1461
12947W        W28078  13.758   0.842   4.875  0.2242 -0.1114 -0.0840
12948W        W28079   4.432  14.051  13.387  0.3786 -0.2871 -0.2803
12949W        W28080  16.536   0.569   4.376  0.4149 -0.0964  0.1503
12950W        W28081   9.532  13.131   4.442 -0.3093  0.0174 -0.0037
12951W        W28082  12.124   0.128  15.367  0.0221 -0.1815 -0.0676
12952W        W28083   8.652   2.788   2.221 -0.0607  0.3899  0.0759
12953W        W28084  13.762   0.019  14.885  0.1155  0.1111  0.2701
12954W        W28085   6.139  12.362   1.462  0.1333 -0.1163  0.0102
12955W        W28086  15.244   3.522  15.452 -0.3394  0.2270 -0.0267
12956W        W28087  13.000   5.479  15.292  0.3272  0.0032  0.2732
12957W        W28088  14.779   9.389  15.059  0.1960 -0.0870  0.1869
12958W        W28089  14.317   8.712   1.421  0.0690  0.3760 -0.0915
12959W        W28090   6.724   0.184   4.689  0.1612 -0.1084  0.1608
12960W        W28091  11.028   9.416  13.441  0.2475  0.0659  0.0914
12961W        W28092   8.804   5.810  12.275 -0.2538  0.3041 -0.0689
12962W        W28093  17.203   4.204   0.321 -0.1620  0.0538  0.1796
12963W        W28094   5.556   8.261   0.696  0.0303  0.1165 -0.2398
12964W        W28095   3.965   3.208  10.661  0.2142  0.0684 -0.5198
12965W        W28096  11.812   3.826  12.867  0.0650 -0.3593  0.2016
12966W        W28097  10.374  18.283   4.872 -0.1063 -0.0443  0.2674
12967W        W28098  13.380  17.493   2.201  0.0410  0.0106 -0.1882
12968W        W28099  14.756  10.422  12.250 -0.2133 -0.1234 -0.0827
12969W        W28100  15.775   3.660  10.723 -0.1664 -0.0583  0.2114
12970W        W28101   8.521   2.472  13.934 -0.1369  0.1658 -0.0462
12971W        W28102  17.354   8.377   1.231  0.1262  0.0690 -0.1203
12972W        W28103   1.272   8.759   4.388  0.1386 -0.2765  0.0539
12973W        W28104   9.418  11.276   3.519 -0.2820 -0.0316  0.0189
12974W        W28105  14.535  13.233   2.093  0.2392  0.1564 -0.2543
12975W        W28106  18.542   1.964   3.786 -0.1849 -0.1756  0.1192
12976W        W28107  10.072  14.606   3.036 -0.2081  0.0069  0.4061
12977W        W28108  13.071  18.385  15.304  0.0354  0.0989 -0.0519
12978W        W28109  16.923  17.653  14.839 -0.0704  0.0798  0.0164
12979W        W28110  14.992  14.786  12.151  0.1932 -0.0945 -0.2254
12980W        W28111  18.185  10.807   2.567 -0.2493  0.3325 -0.1248
12981W        W28112  15.140   7.963   0.895  0.1376  0.0648 -0.2666
12982W        W28113  15.954  13.867   0.115 -0.3318  0.2667  0.0482
12983W        W28114   0.779  18.645  12.003  0.4634 -0.2351  0.5064
12984W        W28115  12.856   2.250  12.538  0.1524 -0.5731  0.1301
12985W        W28116   6.138   3.356  13.668  0.1955  0.4565  0.2715
12986W        W28117   0.443  10.985   0.982 -0.0175  0.0064 -0.1197
12987W        W28118  16.341  17.732  11.740  0.5537  0.2792 -0.1762
12988W        W28119   0.885  17.916  12.426 -0.0595 -0.0951 -0.2886
12989W        W28120   2.668   4.372   4.176 -0.3245 -0.1809  0.0069
12990W        W28121  18.726   2.418   0.927 -0.1477 -0.0951  0.0465
12991W        W28122  15.385  12.337   5.606  0.2042  0.0257 -0.1828
12992W        W28123  18.465   3.270   0.800 -0.2037 -0.0316 -0.0040
12993W        W28124  11.576  16.128  14.337 -0.2324 -0.3851 -0.0179
12994W        W28125  14.151  10.493   1.606 -0.2943 -0.2661  0.1327
12995W        W28126  11.260  16.854  12.647  0.1749  0.5487 -0.1360
12996W        W28127   3.575  16.747   1.225  0.1308  0.0253 -0.1401
12997W        W28128   8.415   9.913   1.473  0.1085 -0.2113 -0.0298
12998W        W28129  10.087  14.700   3.785  0.1296 -0.0153  0.0403
12999W        W28130  16.816   6.329   2.199 -0.0689  0.3926 -0.4124
13000W        W28131   2.123   5.295  11.411  0.0132  0.1721  0.0160
13001W        W28132  10.259  18.411  15.685  0.0553  0.0465 -0.0741
13002W        W28133   7.739   5.789  10.552 -0.1219 -0.3330  0.0523
13003W        W28134   2.485  10.282   3.049 -0.1353 -0.0539 -0.1554
13004W        W28135  13.925   8.077  12.834 -0.0838 -0.3987  0.4032
13005W        W28136   3.402  18.708  11.112  0.0137  0.2561 -0.1378
13006W        W28137   9.682   9.658  12.599 -0.0462 -0.2093  0.0334
13007W        W28138  18.033  11.421  14.731  0.1040 -0.0392 -0.0892
13008W        W28139  11.583  16.612   1.695  0.1461  0.1306  0.0200
13009W        W28140  10.170  14.474   2.006 -0.2164 -0.0717 -0.0282
13010W        W28141   2.839  17.838   3.409 -0.0720  0.3679  0.2941
13011W        W28142   8.921  14.775   2.686 -0.0436  0.0804 -0.0848
13012W        W28143  17.084   3.817  13.893  0.2882  0.2935  0.0086
13013W        W28144  12.778  17.593   4.089  0.0541 -0.0751  0.2038
13014W        W28145   8.635   6.986   5.165  0.0588 -0.1234  0.1268
13015W        W28146  15.092   8.983  13.084  0.0486 -0.1007  0.0640
13016W        W28147  12.311  12.652   3.285  0.1499 -0.1595 -0.1816
13017W        W28148   2.398   5.402   2.794 -0.1092  0.1287  0.0006
13018W        W28149  12.481  17.923  13.200  0.2908 -0.0715 -0.2574
13019W        W28150  17.234  14.019   1.374 -0.0206  0.1119 -0.4990
13020W        W28151  18.732   9.066  14.125  0.1218  0.0981  0.1962
13021W        W28152  17.360  17.954  12.511 -0.1243  0.3259  0.4861
13022W        W28153   0.513  10.723  11.631 -0.0809 -0.1274  0.2596
13023W        W28154  12.930  14.404  11.149 -0.2354  0.0861 -0.2569
13024W        W28155   5.688   7.838  12.643  0.2020 -0.2044  0.1325
13025W        W28156   9.168   0.550  10.882  0.0711  0.1109  0.1442
13026W        W28157   6.923   7.560  12.665  0.1458 -0.0846 -0.0965
13027W        W28158   9.857   4.938   3.280 -0.1802 -0.0388 -0.2477
13028W        W28159  16.194  14.267   5.242  0.0009 -0.2083  0.0049
13029W        W28160   1.423   3.952  11.545  0.0021 -0.1140 -0.1088
13030W        W28161   7.629  14.329   9.890 -0.0223  0.0425  0.0139
13031W        W28162   8.883  11.011  11.177  0.1413 -0.3588  0.3570
13032W        W28163  14.331   3.863   4.688  0.1321 -0.2075  0.1419
13033W        W28164   7.270   3.061  10.511 -0.0379  0.4407  0.0779
13034W        W28165   6.923   0.515  13.892  0.0093 -0.4277  0.0148
13035W        W28166   8.093   4.971   3.240 -0.1177 -0.1156 -0.0769
13036W        W28167  17.413  13.877   3.885  0.0783 -0.2236  0.0311
13037W        W28168   4.045  13.851  15.147  0.0296 -0.1477 -0.0947
13038W        W28169  11.560  18.103  13.242  0.3221  0.1441 -0.1055
13039W        W28170  11.328  16.584  10.563 -0.1277  0.0587 -0.0716
13040W        W28171   7.009   8.085   4.105 -0.3964  0.0622 -0.0842
13041W        W28172  16.583   4.894   5.060 -0.2255 -0.3256 -0.0206
13042W        W28173  11.500   4.588   4.855  0.0652  0.0379 -0.0525
13043W        W28174  16.811   6.415   2.733 -0.2542 -0.2807 -0.1499
13044W        W28175   7.203  10.810  13.674  0.2598  0.3821  0.0807
13045W        W28176   3.422   2.348  11.582  0.1081 -0.1112 -0.1834
13046W        W28177  16.934  18.491   1.313 -0.0208  0.0567 -0.1975
13047W        W28178   9.441   8.190  12.371  0.0916  0.4242 -0.0900
13048W        W28179   6.985  12.210   0.680  0.1648  0.0613  0.0708
13049W        W28180   0.280  18.495   1.076 -0.0860 -0.2020 -0.1900
13050W        W28181   5.389  12.251  15.661  0.2546 -0.0423 -0.3126
13051W        W28182  12.595   7.594  13.454 -0.1052 -0.0173  0.0909
13052W        W28183   3.710   9.799  11.390 -0.0715 -0.0185  0.1513
13053W        W28184   9.966  13.862   3.920  0.1246  0.3948 -0.1556
13054W        W28185  10.721   3.721  10.565  0.0139  0.1174  0.3442
13055W        W28186  14.253  17.410   0.231 -0.1814 -0.3401 -0.2185
13056W        W28187  14.281  14.466   1.898 -0.1900  0.0090 -0.0613
13057W        W28188   5.442  15.225  13.061 -0.0948 -0.2816 -0.0948
13058W        W28189  12.022   6.042   0.359  0.1215  0.0110 -0.2731
13059W        W28190   4.256   5.073  10.490  0.0056 -0.0823 -0.0675
13060W        W28191   0.746   3.798  15.723  0.2571  0.1229  0.0029
13061W        W28192  12.899   3.080  14.394 -0.2397  0.0119 -0.1088
13062W        W28193  15.440  16.855  14.988 -0.1870  0.0339  0.1257
13063W        W28194   5.596  15.240   3.165  0.2165 -0.0632 -0.1320
13064W        W28195   0.457   9.133   0.481  0.0745 -0.3382  0.4746
13065W        W28196  15.352  15.023  14.524  0.2199 -0.2360  0.1961
13066W        W28197   0.279   4.377  12.516  0.1203 -0.1934  0.1360
13067W        W28198  16.758   2.075  14.196 -0.0398 -0.1631 -0.3352
13068W        W28199  14.404   1.019  11.400 -0.0134 -0.0331  0.2339
13069W        W28200  15.189  16.514  11.504 -0.1226  0.3295 -0.1443
13070W        W28201  17.240  14.846  13.852  0.4646 -0.1112 -0.0105
13071W        W28202  18.548   7.069   2.271 -0.1591 -0.0609  0.0947
13072W        W28203   0.712   3.206  13.812 -0.0370  0.2863 -0.0063
13073W        W28204  16.868  10.143  11.132  0.2486 -0.0106  0.2379
13074W        W28205  16.465   0.723   3.809  0.0085 -0.2066 -0.1195
13075W        W28206   2.240   2.074   1.578  0.1765 -0.3844 -0.0593
13076W        W28207   5.645  11.702  12.044 -0.0632  0.2365 -0.3104
13077W        W28208   2.192  13.315   3.083 -0.3302 -0.0477 -0.0041
13078W        W28209   1.443  10.814  15.104  0.3662 -0.3853  0.1383
13079W        W28210  11.934  15.810   2.177 -0.0386 -0.0639  0.2706
13080W        W28211  13.201   5.026   2.723 -0.1029 -0.3022 -0.2261
13081W        W28212   7.110  12.497  10.975  0.0314  0.1970  0.2118
13082W        W28213   6.509   0.038  13.857 -0.1474  0.1688 -0.0554
13083W        W28214  11.284   6.906  11.433  0.0952  0.1734  0.0524
13084W        W28215  13.161   8.220  13.052 -0.1100  0.1081 -0.0872
13085W        W28216   7.116   8.336   0.421  0.1106 -0.0008  0.0334
13086W        W28217  17.019   8.159  13.506 -0.3804 -0.0747 -0.1223
13087W        W28218  13.428  14.194   2.306  0.0973  0.0607 -0.0541
13088W        W28219  10.172   7.882  13.610  0.0227 -0.1507  0.0489
13089W        W28220  14.131  15.406  12.409  0.1755 -0.0371  0.1142
13090W        W28221  15.909   9.365   3.108 -0.0452 -0.2248 -0.2660
13091W        W28222   7.986  13.730  11.932 -0.0723 -0.2226 -0.0119
13092W        W28223   6.873  15.963  11.638 -0.4746 -0.3521 -0.0572
13093W        W28224   9.951   3.179  14.038 -0.1907 -0.3009  0.4899
13094W        W28225   0.664   5.036   9.287  0.2753  0.3926 -0.0491
13095W        W28226  17.283   3.403  13.689  0.1067 -0.1340  0.0905
13096W        W28227  12.571   4.649  15.573 -0.1362  0.1341 -0.1275
13097W        W28228   3.939   9.361   3.321  0.0420  0.0291 -0.2871
13098W        W28229  16.032  15.998  13.242  0.0269  0.1324  0.0297
13099W        W28230  16.309   5.740  13.897 -0.0042  0.0955  0.2484
13100W        W28231   9.776  17.460   1.611 -0.2148 -0.1187 -0.0715
13101W        W28232  16.665  17.342  14.511  0.0490  0.1581 -0.2282
13102W        W28233  16.561  10.217   4.063 -0.2425 -0.1473  0.0391
13103W        W28234  10.228  17.324   4.605  0.3237  0.1773  0.0665
13104W        W28235  16.070  13.490  11.816 -0.0010 -0.2653  0.0026
13105W        W28236   8.419   3.311   1.459 -0.1759  0.1312  0.1140
13106W        W28237   2.658   7.071  12.164  0.3107 -0.4916  0.2075
13107W        W28238  18.073  10.306   4.534  0.0512  0.1122 -0.2648
13108W        W28239   2.239   8.778  13.833  0.3387  0.3963 -0.1101
13109W        W28240  16.264   6.498   4.343 -0.0731  0.3834 -0.2237
13110W        W28241  16.392   3.957   4.920 -0.1579 -0.1550 -0.1365
13111W        W28242  15.045  13.296  14.650 -0.3129 -0.0672 -0.0060
13112W        W28243   1.725  17.575  14.119  0.2792 -0.1145 -0.2624
13113W        W28244  13.113  16.921   3.998  0.0541 -0.0613  0.0405
13114W        W28245  16.488  17.475  10.737  0.1810  0.0420 -0.0172
13115W        W28246   4.781  12.555  12.656  0.1585 -0.2589  0.0613
13116W        W28247  14.657   7.430  12.777  0.3355 -0.4270 -0.1676
13117W        W28248   8.554   0.187   1.436 -0.0595 -0.3116 -0.2108
13118W        W28249  11.481   5.360   1.268  0.2288 -0.1558 -0.2510
13119W        W28250   6.996   4.415  10.772  0.1029 -0.0337  0.3643
13120W        W28251  11.362  10.614   0.075  0.0160  0.1728  0.2219
13121W        W28252  14.050  14.002   1.132  0.1655  0.4399 -0.1288
13122W        W28253   8.098   5.231  12.622  0.3803  0.1396 -0.2786
13123W        W28254   8.437   0.903  11.441  0.0242 -0.0542 -0.1399
13124W        W28255   6.693  18.456   5.672 -0.0331  0.3650  0.1711
13125W        W28256   0.145   6.167   4.508  0.0650 -0.0779 -0.1840
13126W        W28257  10.975  18.152  14.503  0.2917  0.1254 -0.2872
13127W        W28258   7.177  12.193   5.622  0.0154 -0.1180 -0.0646
13128W        W28259   0.364   4.776   0.771  0.2678 -0.0732 -0.0087
13129W        W28260   1.981   4.277  12.355 -0.2437 -0.1451 -0.3185
13130W        W28261   1.370  13.869  15.216 -0.3095  0.1639  0.4375
13131W        W28262  15.389   4.016  12.707 -0.0048 -0.3131  0.1149
13132W        W28263  12.662  11.419   4.619 -0.2041  0.0071  0.0771
13133W        W28264   4.979   3.230   5.156 -0.0057  0.0931 -0.1658
13134W        W28265  17.453  14.912  13.109 -0.0087 -0.0546  0.2347
13135W        W28266  10.939  18.519  11.726  0.0025  0.0430  0.1484
13136W        W28267  13.045   7.346  15.368 -0.0074  0.1299  0.1815
13137W        W28268   0.480  10.950  10.317 -0.0063  0.0309 -0.3661
13138W        W28269   9.411   6.893  14.295  0.1350  0.1373 -0.0679
13139W        W28270   7.384   7.488  12.818 -0.1836  0.1216 -0.0613
13140W        W28271   0.583   4.518  11.128 -0.1711  0.0510 -0.1799
13141W        W28272  10.663  12.977   0.136  0.3705  0.1787  0.0043
13142W        W28273  16.310  17.877   2.635 -0.2349  0.1673 -0.1778
13143W        W28274  16.673  14.026   2.399  0.1071  0.3042 -0.1149
13144W        W28275   4.905  18.355  11.383  0.1246 -0.1254  0.1468
13145W        W28276   6.076  11.494   4.801 -0.0421 -0.0433  0.1142
13146W        W28277  18.013   4.090  11.068 -0.1023  0.2541 -0.0902
13147W        W28278  15.452   7.509   4.185  0.1916  0.1697  0.2218
13148W        W28279   8.440  12.080  15.033 -0.1294  0.1000  0.1522
13149W        W28280   1.045   8.905  12.596 -0.0348 -0.0019  0.1591
13150W        W28281   4.538   6.995   0.676  0.0276 -0.2089 -0.0997
13151W        W28282   0.885   1.671  12.397 -0.1791  0.0567 -0.2403
13152W        W28283   7.944   3.667  10.938  0.1484 -0.0980 -0.2805
13153W        W28284  16.095   7.673   3.344  0.0183  0.1901  0.1856
13154W        W28285  17.362  18.436   0.324 -0.3705  0.1880  0.0146
13155W        W28286   8.591  18.145  10.994 -0.0785  0.0167 -0.0094
13156W        W28287  13.457   0.507  12.320  0.1125 -0.0402  0.1624
13157W        W28288   5.729  16.202  13.951  0.2925  0.0135 -0.0996
13158W        W28289  15.410  15.040   5.446  0.0207 -0.0588  0.1852
13159W        W28290   0.164   7.995   4.904  0.4518 -0.2841 -0.2627
13160W        W28291  18.210  13.541  15.598 -0.3357 -0.2692  0.0837
13161W        W28292  13.501   2.510  12.353  0.0042 -0.1961  0.6581
13162W        W28293  14.808  16.991   6.394  0.1320  0.1316  0.3377
13163W        W28294   4.000   6.691  12.763  0.0500  0.1189 -0.1697
13164W        W28295   3.136  17.051  12.192  0.5721 -0.0117 -0.1856
13165W        W28296   0.358   7.708   0.834 -0.0206  0.0401 -0.2239
13166W        W28297   0.109  15.772   3.417 -0.4563 -0.0714 -0.0827
13167W        W28298  10.587   0.831   3.566 -0.0130  0.2084  0.1835
13168W        W28299  13.647   9.740   5.812  0.0837 -0.1100  0.1352
13169W        W28300   9.808  12.390  14.685  0.3984  0.0790  0.2367
13170W        W28301   0.268   3.675  10.800  0.1099 -0.1377 -0.0164
13171W        W28302   5.426  18.699  12.777 -0.0096  0.3015  0.0273
13172W        W28303   1.746   3.111  12.844  0.1127  0.1323 -0.1725
13173W        W28304  16.178  18.234  15.684  0.0365  0.0522  0.0699
13174W        W28305  14.145   3.779   1.486  0.0622 -0.0010 -0.4648
13175W        W28306  12.066  14.848  11.097  0.2034 -0.0693  0.1327
13176W        W28307  18.230  18.593   0.680  0.1725  0.1027 -0.2609
13177W        W28308  13.832  14.306  13.596 -0.1288 -0.0437 -0.0597
13178W        W28309  14.734   8.191   5.138 -0.2877  0.1293 -0.1795
13179W        W28310  16.387  10.137   0.580  0.0806  0.1912  0.0525
13180W        W28311  10.985   8.091  13.334  0.2010 -0.2509 -0.0031
13181W        W28312  18.517  15.657   5.196 -0.3149  0.2928 -0.1771
13182W        W28313  11.953   5.102   4.784 -0.1470 -0.0404 -0.0579
13183W        W28314   8.991  18.075  11.254 -0.1549 -0.1359  0.0890
13184W        W28315   0.097  12.532  12.356  0.2207  0.1177  0.1297
13185W        W28316  10.038  15.004   3.413 -0.2937  0.0435 -0.0704
13186W        W28317  16.913   8.890  12.918 -0.3214  0.0750 -0.2931
13187W        W28318  16.936   5.972   0.286 -0.1869 -0.0681  0.0179
13188W        W28319  18.450   9.130   3.236  0.0995 -0.4944 -0.1035
13189W        W28320  16.826  18.395   6.008  0.0463 -0.1420  0.1112
13190W        W28321  10.892  18.499  12.673 -0.1503  0.1434  0.3479
13191W        W28322   2.786   4.509  13.624  0.0035 -0.2592 -0.1085
13192W        W28323  11.625  10.765  13.004 -0.0737  0.0098 -0.1649
13193W        W28324  13.161  11.732  11.563  0.1931  0.0095 -0.2620
13194W        W28325   6.520  13.454   2.044 -0.0262 -0.1834  0.4089
13195W        W28326   3.253  15.292   2.735  0.1122 -0.1894  0.1757
13196W        W28327  10.024  11.597  12.951 -0.1031 -0.0850 -0.0403
13197W        W28328   8.879   3.160  12.257  0.1733 -0.2163  0.1779
13198W        W28329   2.886   2.555  13.712  0.3746 -0.1788 -0.2253
13199W        W28330   1.245   6.472   2.492 -0.4023  0.2152 -0.2162
13200W        W28331  17.381   0.395  12.467  0.2433  0.1088 -0.2820
13201W        W28332   1.045  15.127   2.804  0.2852 -0.2457 -0.2470
13202W        W28333   7.273  12.840   3.228 -0.1558 -0.0569 -0.6534
13203W        W28334  10.566   1.583  15.497  0.2524  0.1597  0.1538
13204W        W28335  12.452   3.311  12.028 -0.1282 -0.0816 -0.0463
13205W        W28336  18.354   0.829   4.873  0.1656  0.0992  0.2439
13206W        W28337   5.182  16.780   1.818  0.0184  0.0356  0.0732
13207W        W28338   0.481  14.649   5.422 -0.0142 -0.0551 -0.0637
13208W        W28339  16.081  18.748  14.623 -0.0929  0.1183  0.0386
13209W        W28340  15.348   1.359  12.271 -0.2953 -0.1003  0.0195
13210W        W28341  11.500  12.134   3.384 -0.1467  0.2052 -0.0202
13211W        W28342  13.946   4.238   3.214 -0.1347  0.1185  0.1771
13212W        W28343   7.571  10.348   1.146  0.1484  0.1358 -0.1135
13213W        W28344   7.163   9.635  15.239  0.0956 -0.2095 -0.3699
13214W        W28345   1.781  15.610   0.684  0.0360  0.4440  0.0209
13215W        W28346  10.202   2.652   4.934  0.0467 -0.1865  0.1391
13216W        W28347  14.325   0.424   1.735 -0.0802  0.1553 -0.0080
13217W        W28348  11.674   9.515   5.185 -0.2155 -0.0610 -0.1580
13218W        W28349  12.092  12.990   2.243  0.1580  0.3640 -0.2686
13219W        W28350  15.937   5.450  13.683 -0.0853  0.1286  0.0880
13220W        W28351  11.714  14.141  12.722  0.1995 -0.0608  0.2050
13221W        W28352  17.251  16.851   0.610 -0.2409  0.0438 -0.1432
13222W        W28353   0.746   0.153   3.800  0.1316 -0.0737 -0.0102
13223W        W28354  15.314   9.029   0.784 -0.0397 -0.0625 -0.0051
13224W        W28355  14.989  10.294   0.239  0.2506 -0.0948  0.1397
13225W        W28356  17.396   0.659   4.044 -0.0476 -0.0681  0.2338
13226W        W28357   3.439  15.742   1.339  0.3541 -0.0475  0.1903
13227W        W28358  13.113   3.751  11.250  0.0438  0.1488 -0.0235
13228W        W28359  13.934   6.678   4.583 -0.2020  0.0288  0.0941
13229W        W28360  10.902   8.099  11.686  0.0551  0.0248  0.3452
13230W        W28361   6.256  14.158   2.349 -0.0714  0.1128 -0.0123
13231W        W28362   0.036   8.438  13.402  0.0559  0.0754  0.1192
13232W        W28363   7.325   9.239   5.132  0.2468 -0.1290 -0.0375
13233W        W28364   5.791   5.757   1.458  0.3001  0.3308  0.3706
13234W        W28365   8.288  12.989  14.177  0.0928  0.0265  0.1006
13235W        W28366  10.592  16.526   2.058 -0.0889  0.0114  0.0606
13236W        W28367  12.398   5.551  13.619  0.0763  0.0211 -0.0563
13237W        W28368   2.867  12.345   1.292 -0.0293  0.1267  0.2985
13238W        W28369   1.656   6.857   2.797  0.0192  0.3680 -0.0340
13239W        W28370   9.770   8.142  12.887  0.2843 -0.3476 -0.0544
13240W        W28371   9.911   6.732   2.936 -0.1005  0.0355  0.0651
13241W        W28372  17.323   3.266  15.086 -0.3378  0.1508 -0.1626
13242W        W28373   0.764   8.578   3.434  0.0879 -0.2726 -0.1381
13243W        W28374  10.762  16.620  11.898  0.1093  0.1817  0.4812
13244W        W28375  13.322   0.534   4.954  0.0350 -0.2354 -0.3037
13245W        W28376  13.719   0.594  12.747 -0.1164 -0.0557  0.2819
13246W        W28377   2.593   1.466   5.220 -0.3482  0.0832  0.0329
13247W        W28378   6.347  18.573  14.916 -0.2158 -0.0612  0.0588
13248W        W28379  15.465  12.201   0.446 -0.6449  0.2822  0.1198
13249W        W28380   6.607  11.997   3.105  0.2683 -0.4137  0.0143
13250W        W28381   4.948   5.797  14.687  0.1967  0.0354 -0.1643
13251W        W28382   0.333  16.891   3.345 -0.0725  0.2913 -0.0120
13252W        W28383  11.185   2.454   4.860 -0.2144  0.0568 -0.1738
13253W        W28384  12.180   8.074  13.124  0.1433 -0.1175 -0.1297
13254W        W28385   0.086  10.983   2.321  0.0690  0.1626 -0.0879
13255W        W28386  18.689   6.036   2.286 -0.2703  0.1980 -0.4502
13256W        W28387   4.142   3.382  13.393 -0.2331  0.1171  0.1002
13257W        W28388  11.146  10.280  11.879 -0.0352  0.4105  0.3773
13258W        W28389  11.257  13.582  11.885  0.2228  0.0170 -0.0993
13259W        W28390  15.179   6.204   2.434  0.0837 -0.0532  0.1262
13260W        W28391  13.679   3.343  12.575  0.0475 -0.1454 -0.2196
13261W        W28392  14.204  15.358   5.886  0.0047  0.1241  0.1633
13262W        W28393   8.424   6.903   0.969  0.4712  0.0354  0.0057
13263W        W28394   4.741   7.204   1.093  0.1280  0.0534 -0.0593
13264W        W28395  13.463  15.879  14.023 -0.0011 -0.1212  0.0968
13265W        W28396   1.075   0.017   4.530 -0.2428  0.0022  0.0600
13266W        W28397   8.097   8.354   4.709  0.1013  0.2314  0.1035
13267W        W28398   6.350  15.685  10.815  0.0448 -0.2485  0.1529
13268W        W28399  15.716   9.983   4.271  0.5297  0.0189 -0.0955
13269W        W28400   9.195   9.831   6.679 -0.2571  0.0070 -0.1152
13270W        W28401   3.693   2.740   4.723  0.5135  0.2029  0.4137
13271W        W28402   9.092  16.347   0.589  0.0032 -0.1261 -0.0727
13272W        W28403   7.397   5.410   1.290 -0.0602  0.1723 -0.0204
13273W        W28404  16.079   3.878  10.357  0.4397 -0.3462 -0.3899
13274W        W28405   0.349   0.219   5.093  0.0139 -0.1479 -0.1397
13275W        W28406   9.425  14.791  12.539  0.2240 -0.1837 -0.0941
13276W        W28407   0.100   3.157   3.765  0.4048  0.1183  0.0695
13277W        W28408  17.359   1.384  13.157 -0.2225  0.1007  0.0132
13278W        W28409   6.194   6.365  14.509  0.0873  0.3038 -0.4877
13279W        W28410   4.494   0.769   4.441  0.1683 -0.2944  0.1852
13280W        W28411   3.824   9.507  15.737  0.4218  0.0850 -0.0153
13281W        W28412   0.845   1.666   4.076 -0.0705  0.2494  0.0752
13282W        W28413   9.187  11.458   1.122 -0.0925  0.0413 -0.2409
13283W        W28414  12.300  12.138  12.478  0.4179  0.0097  0.1631
13284W        W28415  11.185  15.036   4.729 -0.2354  0.2348 -0.1796
13285W        W28416   2.451   5.340  12.266  0.2208  0.0211  0.3806
13286W        W28417   3.698  13.033   3.836 -0.0736  0.1797  0.0241
13287W        W28418   8.040  12.923   2.603 -0.4931 -0.1145 -0.1084
13288W        W28419  13.667  13.906   3.077 -0.2198 -0.0326 -0.0369
13289W        W28420   7.663   8.828  15.584  0.1083  0.1323 -0.0563
13290W        W28421   5.568  12.510  11.583 -0.2735  0.1675  0.2359
13291W        W28422  18.365   6.905   3.415  0.2068  0.3898  0.3165
13292W        W28423  12.588  12.422   4.652 -0.1711 -0.2065 -0.0051
13293W        W28424  16.137   6.156   0.757 -0.4807  0.2287  0.1541
13294W        W28425  16.143  16.002  15.555  0.0965  0.0985 -0.0876
13295W        W28426  10.401   5.619   4.159 -0.1885 -0.0081  0.1328
13296W        W28427   4.696  12.948   4.401 -0.1723  0.0977  0.2833
13297W        W28428  13.981  16.427  12.560  0.1143 -0.4345 -0.0088
13298W        W28429  18.347   8.494  13.274 -0.0938  0.0282  0.0635
13299W        W28430  16.072   9.027  10.570 -0.1420  0.1579  0.0799
13300W        W28431   7.889  13.311  13.487  0.0187  0.0421  0.2238
13301W        W28432  10.046  11.610  13.490 -0.2282 -0.0280  0.0732
13302W        W28433   6.503   8.475  14.349  0.0846  0.1955 -0.2224
13303W        W28434  13.900  15.518  15.008  0.1765  0.0525  0.2469
13304W        W28435  16.919  13.519  14.092 -0.3105  0.1940 -0.0295
13305W        W28436  13.803  14.454   3.204 -0.0845 -0.0203 -0.0835
13306W        W28437   7.168   5.702   0.489  0.1824  0.0724 -0.2006
13307W        W28438   2.370  14.427   1.217  0.0250  0.1842  0.2251
13308W        W28439   8.791  10.384  14.681  0.0377 -0.1622 -0.1707
13309W        W28440  15.228  10.949  13.285 -0.2073 -0.1282  0.3075
13310W        W28441   4.888   8.998   3.058  0.0494  0.2092 -0.1459
13311W        W28442   3.039  14.480  12.819 -0.0107  0.2464  0.1229
13312W        W28443   5.075  14.638  13.974  0.0856 -0.0132 -0.0545
13313W        W28444  10.416  18.332  11.777 -0.0781  0.1822 -0.1226
13314W        W28445   8.537  16.514   1.146  0.1207  0.0558 -0.0580
13315W        W28446  12.842   8.247  14.765 -0.3467 -0.0322 -0.0507
13316W        W28447  10.897   0.623  13.976  0.1492 -0.0761  0.0235
13317W        W28448  14.316   3.640   0.949 -0.1967 -0.0021  0.0671
13318W        W28449   8.979   1.567  15.521 -0.0993 -0.1120  0.0756
13319W        W28450  15.089  11.260  11.708  0.0538 -0.1368  0.0249
13320W        W28451   7.991  18.663  13.136  0.1650  0.2245  0.1190
13321W        W28452  13.061   7.834   0.762  0.1172 -0.1905 -0.0380
13322W        W28453   4.170  10.376  12.046 -0.1448  0.1210 -0.2577
13323W        W28454  10.329   4.447  11.912  0.0901 -0.0276 -0.1068
13324W        W28455  17.952   1.651  15.061  0.3731  0.0430 -0.0309
13325W        W28456  12.439   8.317  14.416  0.4078  0.1958 -0.1517
13326W        W28457  13.003  11.270  12.742  0.1801 -0.0049  0.0291
13327W        W28458   4.942  16.659  10.406 -0.0522 -0.1450 -0.0557
13328W        W28459   9.114  14.035   4.459  0.1184 -0.2018 -0.2151
13329W        W28460  17.486   1.184  15.406  0.3551 -0.1707 -0.0870
13330W        W28461  18.707   9.875   9.279  0.2288 -0.0681 -0.1654
13331W        W28462   0.649   1.710   1.125  0.0041 -0.2136  0.0628
13332W        W28463   9.674   8.677  12.504 -0.1228  0.0233 -0.3095
13333W        W28464   3.736   9.826   3.859 -0.1868  0.3215  0.1355
13334W        W28465  16.545   6.895   3.484 -0.1521 -0.0782 -0.1877
13335W        W28466   3.789   4.570   0.756  0.0704 -0.0798 -0.0464
13336W        W28467   9.350  17.376   0.153  0.3045 -0.0073  0.0316
13337W        W28468   9.464  16.984   3.034  0.0273  0.1255  0.1429
13338W        W28469   9.664   4.122   2.743 -0.1967 -0.3880 -0.2023
13339W        W28470   8.602  13.099   3.856  0.2720 -0.2175  0.0491
13340W        W28471   4.900  17.653  11.431 -0.4474  0.1262  0.2339
13341W        W28472   0.283  18.241   4.269 -0.0185  0.1199  0.2279
13342W        W28473  11.393  17.433  15.094  0.0359 -0.2077  0.1583
13343W        W28474  18.749  17.742   1.744 -0.2205 -0.0093 -0.1055
13344W        W28475  12.878  10.155   5.455 -0.0088 -0.2182 -0.0228
13345W        W28476   9.412  10.086  11.636 -0.2074  0.3241  0.0618
13346W        W28477   8.695  17.580   0.515  0.3128  0.2159  0.0597
13347W        W28478  15.868  14.081  11.770  0.0549  0.2227  0.0345
13348W        W28479   6.421  17.192   5.102 -0.0075  0.0731 -0.0167
13349W        W28480  10.913  16.276  10.637  0.0542 -0.1403 -0.2670
13350W        W28481   9.259   2.131  13.560 -0.0798 -0.3397 -0.4031
13351W        W28482   0.568   2.029   2.524 -0.0113 -0.0902 -0.0479
13352W        W28483   0.779   9.296   0.885  0.1574 -0.2347 -0.1375
13353W        W28484   3.397  14.340  11.345 -0.1705 -0.0929  0.0749
13354W        W28485  18.487  10.053  10.683 -0.5100 -0.0358 -0.0423
13355W        W28486  14.887   6.905  12.728  0.0755 -0.1956  0.1912
13356W        W28487  13.723  15.635   4.044  0.4124 -0.3243  0.1052
13357W        W28488   1.756   9.039   1.918  0.1763 -0.0389  0.3370
13358W        W28489  13.774  11.215   0.933  0.0125 -0.0392 -0.0737
13359W        W28490  10.969   5.721   0.090  0.3510  0.1888 -0.1299
13360W        W28491  10.330   9.601  11.834  0.0484 -0.1904 -0.3472
13361W        W28492  12.263   7.339   0.712  0.1853  0.2968 -0.2108
13362W        W28493  10.082   2.492   3.961 -0.0018  0.1136  0.0290
13363W        W28494  18.128   8.225  13.603  0.0302  0.2134  0.1685
13364W        W28495   4.090  14.271   0.820 -0.0081  0.5712 -0.0625
13365W        W28496  18.576   6.630   0.999  0.1508 -0.1661  0.2392
13366W        W28497   3.427   0.373   0.412  0.0832  0.1519 -0.1524
13367W        W28498   3.504   2.458   0.803 -0.0174 -0.1035  0.2321
13368W        W28499  10.408   3.529   2.892  0.4987 -0.0420  0.1091
13369W        W28500  11.108  11.697  14.831 -0.0857  0.2972  0.0867
13370W        W28501   8.243   3.270  10.747  0.0809  0.0192  0.0121
13371W        W28502   0.746   2.108   3.052  0.3923 -0.1583  0.0237
13372W        W28503  11.718   2.797  15.127 -0.1671  0.0873 -0.2842
13373W        W28504   9.776  14.061  12.039  0.2565  0.0737 -0.0526
13374W        W28505   7.691  15.802   2.607  0.0314  0.2989 -0.0443
13375W        W28506   2.154   4.360   2.952 -0.2357 -0.0972  0.0845
13376W        W28507  11.837  15.386  13.227 -0.1211  0.2058  0.0740
13377W        W28508   6.505   3.873  11.496  0.1288 -0.0861  0.2169
13378W        W28509   2.002  15.084   0.546  0.4482 -0.2268  0.0014
13379W        W28510  14.888   8.934  11.460  0.1795  0.3743  0.2229
13380W        W28511  15.366  10.477  13.414 -0.0780 -0.2079  0.1334
13381W        W28512   1.566  14.721   2.177  0.0338 -0.1733  0.1961
13382W        W28513   9.897  16.497  10.233  0.1843  0.1196  0.0593
13383W        W28514  15.526  10.248   0.432 -0.0534  0.1713  0.2839
13384W        W28515  18.360   6.520   2.823  0.0398  0.0430  0.1468
13385W        W28516   1.159  14.800  12.884 -0.3160  0.0828  0.0436
13386W        W28517   8.579   0.148  14.725  0.0191  0.0723 -0.3071
13387W        W28518   8.157   8.788   3.277 -0.0386 -0.2508  0.1385
13388W        W28519   4.873   4.619   2.555  0.0457 -0.1738 -0.2050
13389W        W28520   7.186  16.323  14.379 -0.0867 -0.0407 -0.1697
13390W        W28521  11.553   9.972   4.132 -0.0451 -0.2579  0.0247
13391W        W28522   6.691   5.558  14.673 -0.0295  0.0271 -0.2365
13392W        W28523   7.375  11.774   2.526  0.1013  0.0558  0.0967
13393W        W28524  17.062   9.685  11.004 -0.1771  0.2477 -0.0123
13394W        W28525  13.985  16.959  12.632 -0.2294 -0.1614  0.0222
13395W        W28526   3.698   6.461   2.411  0.2260 -0.0366  0.0558
13396W        W28527  15.371  12.552   1.248 -0.1611 -0.0722 -0.0981
13397W        W28528   9.741   3.031   0.767 -0.0150  0.0181 -0.0321
13398W        W28529   5.036   2.697   0.691  0.0068 -0.0960 -0.1484
13399W        W28530  17.395   4.274   0.785  0.2294  0.1198  0.0648
13400W        W28531   4.594  14.843   4.295 -0.1539  0.0437 -0.0247
13401W        W28532   9.621   6.547   0.635  0.0909  0.4840  0.0336
13402W        W28533   3.899   2.611   2.439 -0.2484  0.0559 -0.1759
13403W        W28534  12.796  10.933   0.699 -0.4283 -0.1240 -0.0145
13404W        W28535  14.811  12.461   3.423  0.1928 -0.0066 -0.0710
13405W        W28536   2.628  16.834  15.610  0.3405 -0.1277 -0.3507
13406W        W28537  11.566   0.419   0.935  0.1232 -0.1069 -0.2403
13407W        W28538  11.919   0.401   3.743  0.0366 -0.3289  0.0134
13408W        W28539   2.986   4.648   3.106  0.1545 -0.0931 -0.1200
13409W        W28540  10.217   7.263  14.881  0.1944 -0.0685  0.0725
13410W        W28541  17.711  12.785  12.441  0.1591  0.1192  0.5084
13411W        W28542   2.982   3.396  10.189  0.1629  0.0856  0.0028
13412W        W28543   3.029   1.338   3.712 -0.3657  0.0631  0.0908
13413W        W28544   2.806   2.973  12.025  0.1669  0.4164 -0.0473
13414W        W28545   2.461  16.443   5.280  0.0524 -0.1150 -0.1240
13415W        W28546  14.773  11.950   3.372 -0.1923  0.1139 -0.1725
13416W        W28547   2.988   7.422  11.355 -0.0920  0.2181 -0.0868
13417W        W28548  11.140   4.566  14.501  0.2576  0.1100 -0.2176
13418W        W28549   4.741   0.653  12.455  0.1376  0.0453 -0.0513
13419W        W28550  14.906   2.447  11.884 -0.0988 -0.1197 -0.1081
13420W        W28551   8.858   8.809   5.677  0.0597  0.0445 -0.0075
13421W        W28552  12.886   0.035  12.022  0.1459  0.0083 -0.2970
13422W        W28553  14.108   0.777  11.118  0.1305 -0.1221 -0.2444
13423W        W28554  13.979   2.463   4.417  0.0518 -0.1443  0.2455
13424W        W28555   6.736   2.956  12.142 -0.0988 -0.0519  0.1621
13425W        W28556   4.771   3.024  15.080  0.1785  0.0890 -0.2583
13426W        W28557   8.661   3.025   4.826  0.0184 -0.1242  0.0443
13427W        W28558  17.348   3.220  12.990 -0.1655 -0.2404 -0.1054
13428W        W28559  12.804  17.815   1.242  0.1759 -0.1975 -0.1760
13429W        W28560   0.623  11.003   3.276 -0.2915  0.0720  0.0213
13430W        W28561   9.168   3.267   4.691  0.0512  0.0436  0.3730
13431W        W28562  15.834  12.026  13.289 -0.1833 -0.0385  0.2053
13432W        W28563   4.118   5.217   3.840 -0.0075 -0.1463  0.1138
13433W        W28564  16.192   9.558  12.079  0.2513 -0.2347 -0.1215
13434W        W28565  17.806   1.964  14.426 -0.0353 -0.2735 -0.2026
13435W        W28566  10.128   9.988   1.826 -0.0019 -0.0916 -0.2332
13436W        W28567   8.757   4.673   4.469  0.1175  0.1020 -0.2298
13437W        W28568  16.443  17.924   0.793  0.1255 -0.2224 -0.0185
13438W        W28569   2.638   0.578  10.179 -0.2532  0.0140  0.2241
13439W        W28570  15.633   5.871   0.154 -0.1838  0.3940 -0.0440
13440W        W28571   7.067  17.156   0.532 -0.1228 -0.2847  0.0747
13441W        W28572   8.880   3.145  14.138 -0.2983  0.0952 -0.1052
13442W        W28573  18.043  14.849   2.719  0.3434 -0.3881 -0.3034
13443W        W28574   9.773   8.323   2.296 -0.3350 -0.0148  0.3212
13444W        W28575   6.915   2.243  13.295  0.0993  0.3435 -0.0928
13445W        W28576  15.998  13.376  12.605 -0.0467  0.1473 -0.0013
13446W        W28577   3.024  15.354  10.970  0.3120 -0.0069  0.0796
13447W        W28578  16.611  14.259   4.995 -0.3544  0.3459  0.3281
13448W        W28579  10.340   0.024  14.797  0.4414  0.0124  0.0034
13449W        W28580  10.248   4.485   9.726  0.2714  0.1418  0.0722
13450W        W28581   3.565  13.515   0.548  0.2210 -0.5791 -0.0352
13451W        W28582  16.821   0.535   0.335 -0.1352  0.2982  0.1184
13452W        W28583  10.719   3.271  12.304  0.0270  0.1380 -0.1842
13453W        W28584   6.248   3.254  12.353  0.0465  0.1459  0.0490
13454W        W28585  16.288   1.495   0.341 -0.0595 -0.0241 -0.2515
13455W        W28586   3.573  18.657   2.468  0.1755 -0.0209  0.0161
13456W        W28587   6.131  11.999   2.245  0.0026  0.1270  0.2472
13457W        W28588   1.065  13.537  14.959  0.0374  0.0286  0.0308
13458W        W28589  18.682  16.435   2.308  0.1812  0.4514 -0.1710
13459W        W28590   8.845   0.424   0.184  0.1108  0.0079 -0.2054
13460W        W28591   9.665   4.044   2.264 -0.1036 -0.0973  0.2157
13461W        W28592  10.760  18.589   5.029 -0.2434 -0.0060  0.0957
13462W        W28593  12.673  17.156   1.348  0.1540  0.1117  0.1672
13463W        W28594   9.185   8.132  13.500 -0.0662 -0.1374 -0.0378
13464W        W28595   7.684  14.708   2.275 -0.0069 -0.1937 -0.1683
13465W        W28596  14.847   1.464   0.149  0.1692 -0.6670 -0.4129
13466W        W28597   0.138   2.594   0.243  0.1348 -0.1513 -0.1271
13467W        W28598  12.616   5.499  14.393 -0.0079  0.0873  0.0140
13468W        W28599   2.857   1.110   1.977  0.0175 -0.3425 -0.3999
13469W        W28600  14.385   8.422  15.350  0.1009 -0.2814 -0.1214
13470W        W28601   4.510   4.488   2.286 -0.0285  0.1723 -0.2553
13471W        W28602  16.275   7.778  13.799  0.2339 -0.0715  0.0126
13472W        W28603  12.784  12.387   1.093 -0.1552  0.5472  0.3011
13473W        W28604   9.526   6.654  12.731  0.1767  0.1152  0.2246
13474W        W28605  13.952  14.659  11.274  0.3274  0.1565 -0.2510
13475W        W28606  13.303  17.064   0.183 -0.1778 -0.0108 -0.1838
13476W        W28607   2.490  13.420  11.989 -0.0056 -0.2413  0.0738
13477W        W28608  15.915   6.247  10.913  0.3452  0.1746  0.4392
13478W        W28609   1.052   7.214  14.026 -0.0546 -0.1221  0.1377
13479W        W28610   8.077  18.563   1.345  0.0540 -0.3528  0.0993
13480W        W28611   7.287   1.867  13.183 -0.0195 -0.1329  0.0980
13481W        W28612  17.299   9.200   9.958 -0.0634 -0.0054  0.2293
13482W        W28613   5.653   0.122  10.541 -0.0341 -0.0965  0.0601
13483W        W28614   4.533  10.082  10.330 -0.1357  0.1272 -0.0698
13484W        W28615  17.788   0.700  13.426  0.1372 -0.1712  0.2112
13485W        W28616   8.458   0.111  11.481 -0.0865 -0.1451 -0.2491
13486W        W28617  10.454  10.118   5.313 -0.0151 -0.0947  0.3656
13487W        W28618   4.025  16.208   0.551  0.1089  0.3313 -0.1131
13488W        W28619  15.293   2.310  13.228 -0.1163  0.1733 -0.0266
13489W        W28620  17.678   6.199   1.762  0.1263 -0.0256 -0.0064
13490W        W28621  15.064  12.527   5.238 -0.0605  0.0439 -0.1385
13491W        W28622  11.084  11.492  15.764 -0.2264 -0.4340  0.1720
13492W        W28623  11.932   5.318  11.822 -0.0578  0.1712 -0.0572
13493W        W28624  14.642   3.935  13.164  0.0481  0.3010 -0.4383
13494W        W28625  14.609   0.977   5.556  0.2105 -0.0121 -0.4425
13495W        W28626  11.548  11.415   2.388  0.4139  0.0546  0.3265
13496W        W28627   1.224   4.476   5.621 -0.3743 -0.2449  0.0892
13497W        W28628  16.590  13.863  13.146 -0.0435 -0.0640 -0.3657
13498W        W28629  18.267   9.497  15.531  0.0802  0.3602 -0.2545
13499W        W28630  13.442  16.234  14.455 -0.1697 -0.2312  0.1769
13500W        W28631   3.889  10.002  12.332  0.0159  0.0080  0.1808
13501W        W28632   2.502  11.501   3.527 -0.1159 -0.1953 -0.0537
13502W        W28633  16.887  11.822  13.144  0.1559 -0.3027  0.0147
13503W        W28634   0.742  17.236  10.369 -0.1016  0.1229 -0.1097
13504W        W28635  10.417  10.986   1.678  0.2315  0.2213 -0.1273
13505W        W28636  11.024   6.708   2.996  0.2660  0.4072 -0.1331
13506W        W28637   4.806   2.333   1.495 -0.1731  0.2441 -0.2030
13507W        W28638   0.313   9.470  12.729  0.0926 -0.1823  0.1584
13508W        W28639   7.088   9.097   2.249  0.0513  0.0322 -0.0820
13509W        W28640  17.486  11.342  14.920 -0.1192 -0.1440 -0.0124
13510W        W28641   1.804  12.649   2.315  0.2853 -0.1262 -0.1728
13511W        W28642   3.534   1.127  12.795  0.2040  0.0672 -0.3550
13512W        W28643  11.535   2.364  11.574 -0.0578 -0.2855 -0.1059
13513W        W28644   5.640  16.383  11.393  0.0611 -0.1891  0.3562
13514W        W28645  17.208   8.310   0.367  0.0171  0.1019 -0.2644
13515W        W28646   6.413   1.621  14.354 -0.0007  0.1136  0.1228
13516W        W28647   2.331   5.114   3.752 -0.0626 -0.0710 -0.1300
13517W        W28648   6.946  13.047   4.347 -0.0090  0.1914  0.0684
13518W        W28649  18.460   8.352   3.651 -0.3364  0.0198 -0.3838
13519W        W28650  18.060  17.527  14.522 -0.3331  0.1172  0.0173
13520W        W28651  13.088  13.132  13.919  0.2194 -0.0103  0.0033
13521W        W28652  10.029  12.799   0.163 -0.2208 -0.0867 -0.1019
13522W        W28653  14.633   2.746  13.582 -0.2311  0.3175  0.0128
13523W        W28654  10.989   0.633  12.285  0.2094 -0.0964  0.0126
13524W        W28655   6.702   4.005   0.943 -0.2838 -0.2961 -0.1080
13525W        W28656  16.482   0.616  12.395 -0.5308 -0.2675 -0.1559
13526W        W28657   4.103   5.019  13.761  0.0091 -0.1980 -0.2771
13527W        W28658   5.609   3.681   4.205 -0.1613  0.2660 -0.1853
13528W        W28659  10.051   8.969   2.798 -0.1803 -0.1190 -0.0643
13529W        W28660   4.651   9.972  13.744 -0.4018 -0.1904  0.0106
13530W        W28661   6.990   2.910  11.306 -0.0697  0.0452 -0.2193
13531W        W28662  16.505   7.615   2.290 -0.5008 -0.2039  0.2993
13532W        W28663  14.373   4.280   2.891  0.0966  0.2309 -0.1361
13533W        W28664  17.175   7.026   4.309  0.1438  0.4450  0.5592
13534W        W28665  12.972   6.193  13.477  0.4015 -0.0633 -0.5152
13535W        W28666  17.123  12.080   3.320 -0.4137  0.0575 -0.2509
13536W        W28667   7.378   9.292   3.800 -0.0777 -0.0362  0.2222
13537W        W28668  11.697  12.315   6.120  0.0909  0.3454 -0.3127
13538W        W28669  12.212  15.222   9.977 -0.2072 -0.3224 -0.2101
13539W        W28670   8.555  10.075  11.292  0.1453  0.2419  0.0206
13540W        W28671   6.083   4.056   4.764 -0.1540 -0.1709  0.2877
13541W        W28672  15.713   9.400   4.152 -0.3519 -0.1557 -0.0153
13542W        W28673   6.535  14.247  15.229 -0.1224  0.0465  0.1673
13543W        W28674   9.151   9.106   2.817  0.0822  0.0833  0.1370
13544W        W28675  18.650   5.607  13.563  0.3102  0.0012  0.0896
13545W        W28676   2.507  16.623   4.258  0.6685  0.1998  0.1714
13546W        W28677   2.578   1.849  12.216 -0.0145  0.1558  0.2558
13547W        W28678   5.430   7.200  13.214  0.2150 -0.1502  0.1006
13548W        W28679  11.848  10.965   1.288 -0.1627 -0.3647 -0.0208
13549W        W28680   8.999  15.627  14.558  0.1345  0.1607 -0.0464
13550W        W28681   2.636  16.299   0.517 -0.1453 -0.1355  0.0156
13551W        W28682   9.957  16.905   5.278  0.1075  0.2045 -0.0904
13552W        W28683  11.297  15.548   3.609  0.0703  0.1606 -0.0465
13553W        W28684   0.062  14.081   5.909  0.1420  0.1463  0.1925
13554W        W28685  15.737   6.793   1.186  0.1833 -0.0274 -0.1518
13555W        W28686   1.014  12.387  10.403  0.1261 -0.0164  0.2134
13556W        W28687  17.235  10.125  15.235 -0.1721  0.1795  0.1839
13557W        W28688  17.360  13.902   4.442 -0.4760 -0.2882 -0.0474
13558W        W28689  12.193   8.156  11.560  0.1158  0.1526  0.0350
13559W        W28690  16.463  15.877   1.598  0.2114 -0.3540  0.1561
13560W        W28691  16.774  11.693   4.693  0.3684 -0.0496 -0.0490
13561W        W28692  11.102   9.092   0.430 -0.0099 -0.0470  0.0059
13562W        W28693   1.001  12.283   0.637  0.3337 -0.0387  0.4140
13563W        W28694   1.784   6.905  14.374 -0.0382 -0.2478 -0.1989
13564W        W28695   7.206   1.107  11.937  0.0906 -0.2123 -0.3981
13565W        W28696   1.896  11.308   0.144  0.1238  0.2327  0.2689
13566W        W28697   2.090   8.283  13.739 -0.2768 -0.0950  0.0165
13567W        W28698   4.024   8.942   2.323  0.0710 -0.1479  0.1807
13568W        W28699  16.187   6.231  14.902 -0.0629  0.1163 -0.0477
13569W        W28700  12.952   7.267  13.361 -0.2942 -0.0146  0.1409
13570W        W28701  16.936   8.944  10.702 -0.0557  0.1537  0.2092
13571W        W28702   5.449  13.724  15.144  0.0031  0.3138 -0.1347
13572W        W28703  14.446   7.823   5.142 -0.0288  0.1628 -0.0100
13573W        W28704   8.289  17.515  11.425  0.1158 -0.0970 -0.0727
13574W        W28705   8.802  13.699  12.979  0.0480  0.2385 -0.0273
13575W        W28706   8.902   4.680  10.045  0.0849  0.0792 -0.1288
13576W        W28707  11.617   8.360   0.025 -0.1915  0.0327 -0.3534
13577W        W28708  10.310  16.675  12.516 -0.2105  0.1048 -0.3546
13578W        W28709   4.886   5.828   4.348  0.1695  0.0381 -0.0911
13579W        W28710   5.919   7.434  12.447 -0.0583 -0.2615 -0.0481
13580W        W28711  17.668   9.728  14.468  0.1513 -0.1570 -0.1036
13581W        W28712   0.788  11.921  11.652 -0.2394  0.2617 -0.0155
13582W        W28713  17.448  15.551  14.724  0.0299 -0.0516  0.1344
13583W        W28714   4.343  18.472   3.687  0.1697  0.0679 -0.0973
13584W        W28715   4.681  11.546   5.104 -0.4465 -0.0096 -0.0282
13585W        W28716   9.627  14.627  11.426  0.0272 -0.2394  0.1052
13586W        W28717  11.263   2.751   6.001  0.1546  0.5402 -0.0970
13587W        W28718  11.825  10.682   5.940  0.1232 -0.1519 -0.1432
13588W        W28719  14.308   0.914   3.808 -0.2611  0.0051 -0.0070
13589W        W28720  16.669  18.629   2.136  0.1186  0.0511 -0.1017
13590W        W28721   0.510   7.614   9.704 -0.4414 -0.0300 -0.1156
13591W        W28722   8.614   4.993  13.889  0.2657  0.3075  0.1362
13592W        W28723  15.549   2.435  15.343 -0.1673 -0.1587  0.1027
13593W        W28724  17.226   7.719  13.641 -0.4155  0.2627  0.2393
13594W        W28725  11.295   8.181   0.827  0.1817 -0.2047  0.0412
13595W        W28726   1.860   6.488   3.124 -0.0064  0.2291 -0.3976
13596W        W28727  16.277   9.434   1.416  0.1346 -0.3871 -0.1101
13597W        W28728  11.902  13.564  10.890 -0.0448 -0.1418  0.2073
13598W        W28729  17.911  12.406   1.923  0.0736  0.1868  0.0166
13599W        W28730  15.891  14.446  10.732 -0.0797 -0.0031 -0.0975
13600W        W28731   0.147   5.923  13.141  0.1655  0.1139  0.2809
13601W        W28732   4.138  15.565  11.678 -0.0356 -0.2343 -0.1355
13602W        W28733  17.644   4.021   2.457 -0.1531  0.0462  0.0006
13603W        W28734   8.513  10.959   4.108 -0.0579 -0.1720  0.2501
13604W        W28735  14.242   5.929  15.278 -0.0158 -0.2106  0.1333
13605W        W28736   5.989  12.181   4.159 -0.2438 -0.0579 -0.2850
13606W        W28737  13.279  16.570   4.820 -0.3032  0.1536  0.4105
13607W        W28738  16.592   9.471   3.520  0.0655 -0.1119 -0.4726
13608W        W28739   6.021  11.689  12.698  0.3694  0.2810  0.1130
13609W        W28740  11.186   5.824  11.612  0.0400 -0.2812 -0.0160
13610W        W28741   9.481   0.016   2.457  0.1589  0.1176 -0.0004
13611W        W28742   6.322   3.490   0.783  0.0457  0.0762  0.2392
13612W        W28743   6.970  13.602  14.271  0.0804 -0.1361  0.1909
13613W        W28744  18.583   1.351   4.510 -0.0053 -0.0721 -0.2665
13614W        W28745  16.777  10.780   3.355  0.2824 -0.1710 -0.1080
13615W        W28746  13.848   5.224   4.049  0.1842  0.0284  0.3612
13616W        W28747  13.090   7.746  13.886  0.2306 -0.1875 -0.1710
13617W        W28748   2.183   4.186   4.142 -0.0095 -0.5515  0.0736
13618W        W28749  15.349  16.154  13.702  0.3132 -0.2237 -0.0498
13619W        W28750   2.541  14.851  15.120  0.0226  0.0414 -0.5064
13620W        W28751  12.642   5.907   2.592 -0.0913 -0.1213  0.1071
13621W        W28752  13.563   7.179   1.782  0.0654 -0.0215 -0.0612
13622W        W28753  15.935  15.799   2.964  0.1729 -0.1131  0.2417
13623W        W28754  16.648  18.171  15.546 -0.0024 -0.1941 -0.0228
13624W        W28755   6.611   3.240  11.463 -0.0599 -0.2620 -0.1721
13625W        W28756   8.101   1.496   3.167 -0.1310  0.5865 -0.2036
13626W        W28757   0.822   1.497   3.593  0.0470  0.0330 -0.2165
13627W        W28758  17.103  15.332  11.094 -0.3533  0.2627  0.0052
13628W        W28759  11.552  14.696   5.385 -0.1394  0.3249  0.1197
13629W        W28760  12.792  16.703  14.344  0.0078  0.0641 -0.2903
13630W        W28761   7.580   7.083   0.951  0.0714 -0.4602 -0.0500
13631W        W28762  14.813  18.714  14.552  0.0785  0.1115  0.3704
13632W        W28763  17.773  17.919   1.870 -0.3344 -0.0545  0.1289
13633W        W28764   5.292   6.751  11.222  0.3900  0.2397 -0.1988
13634W        W28765   7.920   6.535   3.896  0.0328 -0.1186  0.1230
13635W        W28766   5.189  16.196  10.228  0.0210 -0.0754  0.1194
13636W        W28767  17.912   8.817  13.013 -0.1063  0.4058 -0.1593
13637W        W28768  18.504   1.029  11.772  0.1550 -0.0673 -0.1223
13638W        W28769  15.574   6.320  11.299  0.3362 -0.1914  0.0538
13639W        W28770   7.686   3.661  15.706  0.2413 -0.2178  0.1125
13640W        W28771  11.166  14.138   2.854 -0.0828 -0.0124  0.1843
13641W        W28772   3.552  12.931  12.623 -0.3201 -0.1912  0.1783
13642W        W28773   4.530  11.889  13.451 -0.0682  0.0893 -0.0744
13643W        W28774   2.555   7.909  14.030  0.0180 -0.2264 -0.2048
13644W        W28775   9.122  16.998   9.928 -0.2620  0.0260 -0.0109
13645W        W28776   9.745  13.574   0.069  0.0745  0.2618  0.0092
13646W        W28777   2.928  11.691   2.896  0.1396  0.2206 -0.1602
13647W        W28778   2.995  18.198  10.480  0.1764  0.1642  0.2225
13648W        W28779   2.053  10.249  14.462 -0.0323  0.1736 -0.1257
13649W        W28780   2.525   9.582   4.815 -0.0490  0.0053  0.3828
13650W        W28781  18.314   8.898  11.720 -0.2197 -0.4012  0.2531
13651W        W28782   7.253  12.700   4.070 -0.3459  0.1881 -0.0234
13652W        W28783  15.152   0.264  13.053 -0.0070  0.2379  0.2683
13653W        W28784  10.808   6.957  13.317 -0.1481  0.0323  0.2119
13654W        W28785  14.735   4.070  15.238  0.3686 -0.2523  0.1363
13655W        W28786  15.817  18.228   4.740  0.0924 -0.0994 -0.0907
13656W        W28787   5.191  11.770  13.886  0.0591  0.1546  0.1327
13657W        W28788   5.411   1.882   0.707  0.0837 -0.0167  0.0391
13658W        W28789   6.303  13.303  14.814  0.2032  0.1581  0.2201
13659W        W28790   3.050  13.493   0.670 -0.2773  0.0310  0.0699
13660W        W28791   1.504  11.873  14.360 -0.0289  0.1393 -0.1437
13661W        W28792   2.722   1.712   4.146 -0.0776 -0.1354  0.2848
13662W        W28793  10.832  10.364  12.485  0.1379 -0.0038 -0.0554
13663W        W28794   7.595   6.966  14.660 -0.2900  0.0772  0.5012
13664W        W28795   4.724   6.279   4.252 -0.1290  0.0132 -0.0667
13665W        W28796  18.488   0.961   2.096  0.0980 -0.1747 -0.0787
13666W        W28797  10.249  17.535  12.390 -0.2997 -0.1171 -0.1464
13667W        W28798   3.076  12.348  14.960 -0.0943 -0.2538 -0.1810
13668W        W28799   8.418  14.420   4.658 -0.0628 -0.0444  0.0066
13669W        W28800   7.224   7.105   6.004 -0.0426  0.2556  0.0152
13670W        W28801  13.510  14.805  14.919  0.0557 -0.1251 -0.1462
13671W        W28802  18.014   4.815   4.828  0.1582  0.0294  0.0547
13672W        W28803   5.103   1.851   1.797 -0.0767  0.1488 -0.0157
13673W        W28804   1.652  16.478  11.385 -0.0844  0.1875 -0.1296
13674W        W28805  11.856  18.506  15.476  0.0732  0.0746 -0.1570
13675W        W28806  16.325  15.314  14.422  0.2129  0.0924  0.2950
13676W        W28807   0.161  17.541   4.940  0.0405 -0.4935 -0.2579
13677W        W28808   6.732   9.851  15.447  0.0729 -0.1734 -0.2432
13678W        W28809   0.180  14.133  12.258  0.0400  0.2149 -0.4281
13679W        W28810   5.454   8.814   4.998 -0.0786 -0.0474  0.0792
13680W        W28811   5.379  11.643  12.449 -0.1976 -0.3245  0.1786
13681W        W28812   6.615   0.033  12.088 -0.2486  0.2508  0.0809
13682W        W28813   2.450  13.981  15.685 -0.3313  0.2977  0.0973
13683W        W28814  14.207  11.599   2.675 -0.1803  0.5131 -0.4115
13684W        W28815  11.714  10.981  15.131  0.1306 -0.0840 -0.1746
13685W        W28816  17.372  17.663  12.089 -0.0053 -0.0560 -0.3236
13686W        W28817   4.255   1.792  12.458 -0.2920 -0.0214 -0.1185
13687W        W28818   1.100   0.935   5.853  0.0632  0.2027  0.1760
13688W        W28819   8.532  16.167  11.280  0.0863 -0.1920  0.0231
13689W        W28820   9.900   7.714   1.280  0.1285 -0.0714  0.0540
13690W        W28821  11.670   2.883  11.771  0.0156 -0.1200 -0.2149
13691W        W28822   7.411  15.266  15.406 -0.0420  0.1563 -0.1772
13692W        W28823   4.557   5.131   3.456 -0.1120  0.1799  0.0332
13693W        W28824   1.499   3.291   4.895  0.0839  0.4982 -0.0615
13694W        W28825  16.044  17.465  15.095  0.1329  0.1125 -0.1977
13695W        W28826   0.940   9.566   3.557  0.0708 -0.1343  0.0497
13696W        W28827  14.798  14.762   4.643  0.0611  0.0219  0.0173
13697W        W28828   4.053   8.668  13.930 -0.0401 -0.0410  0.0695
13698W        W28829  15.867   1.221  12.123  0.4673 -0.0178  0.0427
13699W        W28830   3.228  11.140  12.694  0.0608 -0.0642  0.1797
13700W        W28831   7.175   6.978  11.819 -0.1372  0.0430  0.2471
13701W        W28832  15.629  12.671  13.826 -0.2148 -0.0087 -0.0470
13702W        W28833   3.825   1.824  12.848  0.1665 -0.1674  0.1572
13703W        W28834  14.552  13.323  12.373  0.0719 -0.0351 -0.3296
13704W        W28835  10.131   9.295  14.088 -0.2985 -0.0374  0.1396
13705W        W28836  11.097   0.741   1.811  0.0970  0.0863  0.0678
13706W        W28837  11.115   1.249   3.654 -0.1834  0.0227  0.1736
13707W        W28838  13.358   5.476  14.789 -0.4217 -0.1677 -0.3634
13708W        W28839   9.788  12.413  13.958 -0.2249 -0.1933  0.5208
13709W        W28840   4.958  15.812  15.700  0.0485 -0.2391 -0.2241
13710W        W28841  10.467   1.571   3.085  0.0246 -0.0114  0.3308
13711W        W28842   0.547  10.418   1.831  0.0216 -0.1717  0.0377
13712W        W28843   0.727   5.669  12.077 -0.1825 -0.0030  0.1789
13713W        W28844   7.823  11.034   4.909  0.1413  0.1575 -0.0065
13714W        W28845   2.253  16.179  14.866 -0.3350 -0.0834  0.1990
13715W        W28846   7.147   5.759  14.796 -0.1463  0.1834  0.2064
13716W        W28847  11.946  18.708   3.363 -0.0049 -0.2192  0.4759
13717W        W28848  11.020  17.569  11.567  0.0683  0.1372  0.0448
13718W        W28849  10.606  15.635   4.160 -0.1764  0.0929 -0.2595
13719W        W28850   3.801  17.773   1.148  0.3288  0.0536  0.2726
13720W        W28851   8.134   2.032   0.505  0.0648 -0.1455 -0.3719
13721W        W28852  16.425  13.896   5.654  0.0725 -0.0070 -0.2044
13722W        W28853   2.567  17.051  12.388  0.0106  0.1890 -0.0648
13723W        W28854  11.298   9.937   5.964 -0.0110 -0.0814  0.1043
13724W        W28855  17.432   8.982   4.477 -0.0499  0.1747 -0.1362
13725W        W28856   1.857   0.297   4.809  0.3276 -0.1750  0.2103
13726W        W28857   6.211   8.097   9.656 -0.2579  0.1977  0.0623
13727W        W28858   5.600   9.566  12.889  0.0451 -0.1251  0.1063
13728W        W28859  12.960  10.870  12.392 -0.0286 -0.2554 -0.1214
13729W        W28860   9.684   9.353   4.028  0.1985  0.3450 -0.1376
13730W        W28861   9.429  16.243   4.805  0.2595  0.1039 -0.0318
13731W        W28862   5.281   6.508  15.265 -0.0946  0.0163 -0.2844
13732W        W28863   2.186  16.347  13.103 -0.1779 -0.2752  0.2100
13733W        W28864   6.891   8.665  10.260 -0.0266 -0.0603 -0.3315
13734W        W28865  12.297   4.750   3.439  0.2022  0.0522  0.2444
13735W        W28866  14.572   5.478   5.421 -0.2612 -0.4795 -0.0324
13736W        W28867  17.021  14.370  13.815 -0.1011  0.1810 -0.0987
13737W        W28868   7.338   6.654  11.469 -0.1868  0.0011  0.0276
13738W        W28869  11.581  11.357   2.942 -0.1448 -0.0123 -0.3152
13739W        W28870   2.308   7.798  10.694 -0.1067  0.0888 -0.1969
13740W        W28871  16.354   8.391  11.903 -0.2134 -0.0780  0.0566
13741W        W28872   5.037  10.682   4.717 -0.2162  0.1582  0.2512
13742W        W28873   1.790  10.389  15.182 -0.0121 -0.2035 -0.2929
13743W        W28874   3.700   2.396   5.527  0.1952 -0.1346 -0.1752
13744W        W28875   4.819   5.311  11.040 -0.2099 -0.0691  0.2323
13745W        W28876  18.091   9.816   2.856 -0.0651 -0.1246  0.1265
13746W        W28877   2.753   5.869  14.108  0.2985  0.0745 -0.0157
13747W        W28878   6.652  17.713   2.652 -0.0355  0.0716 -0.1271
13748W        W28879   8.230   1.786  11.286  0.1737  0.1533 -0.3247
13749W        W28880   7.990  14.180  13.882  0.2154  0.1674  0.0573
13750W        W28881   7.496   5.190  11.912  0.1802  0.3269 -0.2438
13751W        W28882   3.682   7.862  13.639 -0.2690 -0.1052  0.0659
13752W        W28883   3.783  15.176   4.865 -0.2026  0.1190 -0.1013
13753W        W28884  11.742  10.495   1.148  0.1686  0.2081 -0.0984
13754W        W28885  14.458  11.541   1.307 -0.1224  0.0301 -0.0863
13755W        W28886   9.398   4.332  11.679 -0.0187 -0.1090  0.1130
13756W        W28887  10.678   7.885  14.247  0.0584  0.3932 -0.0710
13757W        W28888   0.227  17.123   4.243 -0.4233 -0.1953 -0.2555
13758W        W28889  15.928   7.011   2.791 -0.0446 -0.0183  0.0044
13759W        W28890  18.400   9.322   5.456 -0.2258  0.2215  0.4922
13760W        W28891   1.115  16.825   1.108  0.0503 -0.1039 -0.3918
13761W        W28892   2.377  17.426   1.529  0.4555 -0.0889 -0.0589
13762W        W28893  12.395   1.421   5.276 -0.1079 -0.2586  0.0970
13763W        W28894  13.701  16.303   2.536 -0.0301  0.0913  0.1876
13764W        W28895  17.177  11.295   0.197  0.0032 -0.2999 -0.0828
13765W        W28896   4.177   1.614  14.914 -0.2635 -0.3013  0.0680
13766W        W28897  15.375   4.823   4.431  0.1663  0.3072 -0.1063
13767W        W28898   7.181   2.616  14.708 -0.0520  0.0415  0.2073
13768W        W28899  13.390   0.845   2.694 -0.1063  0.1205 -0.1010
13769W        W28900   2.410   8.601  15.503  0.1088 -0.1375 -0.1624
13770W        W28901   6.316   4.808   4.189 -0.1374 -0.2052  0.3046
13771W        W28902  10.277  12.554  11.572 -0.0269  0.1147 -0.0554
13772W        W28903  17.467  15.955  12.051  0.2544 -0.1818  0.0391
13773W        W28904   6.919   7.833   0.339 -0.0555 -0.1413 -0.3793
13774W        W28905   2.130   6.922   2.759  0.1531 -0.2091  0.1100
13775W        W28906  12.344  10.407   3.706  0.0802 -0.0836  0.2472
13776W        W28907   7.791  14.946   0.254 -0.0454  0.2315 -0.0136
13777W        W28908  15.033   2.663  10.939  0.0026  0.3429 -0.2789
13778W        W28909   0.869  13.500   0.391  0.1591  0.2447  0.1202
13779W        W28910   4.820  11.298   1.286 -0.1704  0.2030 -0.0905
13780W        W28911  15.583   4.938   5.185  0.0938 -0.2337 -0.0228
13781W        W28912   3.925  17.657  12.819 -0.4840 -0.2819 -0.2972
13782W        W28913   7.303  14.089   2.882  0.2448 -0.2223  0.1746
13783W        W28914  18.713  18.183   0.021 -0.1664  0.1245  0.0750
13784W        W28915   1.514  10.956  15.756  0.0849 -0.2294  0.3075
13785W        W28916   3.939  11.016   1.580 -0.1146 -0.1263  0.1694
13786W        W28917  10.737   8.478   5.921  0.1376 -0.0057  0.1062
13787W        W28918   5.872  13.852  12.567 -0.0086  0.4338 -0.4641
13788W        W28919  11.465  17.908   3.719  0.1073  0.4530 -0.1620
13789W        W28920   0.156  12.509   0.734  0.3477 -0.0460  0.0008
13790W        W28921  15.590   0.874  12.370 -0.1642  0.0001  0.0669
13791W        W28922   5.221  10.873  13.938  0.1867  0.2224 -0.0743
13792W        W28923  14.570  18.288   3.471 -0.3205 -0.1057  0.0623
13793W        W28924  16.875  13.542   2.740 -0.0875 -0.2176  0.0431
13794W        W28925  10.205  11.968   2.072  0.0614  0.2224  0.0756
13795W        W28926   4.398   7.124  11.702 -0.0804  0.2074  0.4133
13796W        W28927  13.193  13.524   0.287  0.3221  0.0116 -0.1583
13797W        W28928  12.932   2.207   5.015 -0.0717  0.3523  0.2184
13798W        W28929  18.095   7.464   1.836 -0.1241 -0.2188  0.0439
13799W        W28930  11.733  10.909   4.882 -0.0423  0.0372  0.0512
13800W        W28931   3.051   8.210   0.360 -0.0989 -0.1800 -0.1997
13801W        W28932   1.491   3.670   2.499  0.0888  0.1230 -0.2603
13802W        W28933  17.960   5.079  13.018  0.1705 -0.1614 -0.2079
13803W        W28934  16.991   3.740   0.608  0.0971 -0.0953  0.0194
13804W        W28935  12.191  17.736  11.244  0.0722  0.1059 -0.3516
13805W        W28936   4.130  16.675  13.948  0.0855 -0.1231  0.0287
13806W        W28937   9.589   7.192  13.889  0.2096  0.0660 -0.2407
13807W        W28938  12.116   1.113   3.723 -0.2831 -0.1524  0.0156
13808W        W28939   2.759   4.524   5.682  0.0968  0.0345  0.0171
13809W        W28940  15.232   1.905  13.666  0.1130  0.2433  0.2020
13810W        W28941   4.593   1.896   0.448 -0.2787  0.0995 -0.2088
13811W        W28942  14.320  10.753   2.582 -0.0951  0.1864  0.0298
13812W        W28943  10.492   6.113  14.680  0.2785 -0.1581  0.2482
13813W        W28944  14.535   0.515   5.318  0.1041  0.1342  0.2424
13814W        W28945   7.321   5.710  10.823 -0.5104  0.3074  0.2455
13815W        W28946  14.365   9.118   2.283 -0.0653  0.1619 -0.1387
13816W        W28947   5.179   5.085  12.422  0.1921 -0.1016  0.1659
13817W        W28948   2.909   2.935  13.377  0.2241 -0.1056 -0.3330
13818W        W28949  15.696  14.410   4.051 -0.2717  0.0075  0.2351
13819W        W28950   7.037   2.895  15.633  0.1604  0.0161 -0.0547
13820W        W28951  15.659   7.674  11.649 -0.0083  0.1087 -0.0397
13821W        W28952  11.684   6.022   2.272  0.1792  0.0338  0.1644
13822W        W28953   6.910  17.795  15.058  0.0764 -0.1562  0.0765
13823W        W28954  14.915  13.312   1.040 -0.0984  0.3384 -0.1862
13824W        W28955   8.055  15.835  10.751 -0.2396 -0.1646  0.1268
13825W        W28956   2.428   0.733  13.634 -0.2457  0.1078  0.2581
13826W        W28957  13.079   2.745  12.481 -0.0347 -0.0712  0.0205
13827W        W28958  16.049  14.801   3.273  0.1779  0.2174  0.0646
13828W        W28959  11.758   4.534  10.408 -0.1059  0.0220 -0.0499
13829W        W28960   9.552  16.181   3.304  0.0220  0.2174 -0.0869
13830W        W28961  15.181  18.452   0.236  0.0947 -0.0109  0.1387
13831W        W28962   3.141  11.343   1.678  0.2762 -0.1311 -0.2117
13832W        W28963   3.669   1.473  13.576 -0.1047 -0.2540 -0.2528
13833W        W28964  13.047  17.348  12.184 -0.1342  0.0602 -0.0800
13834W        W28965   4.404  18.480  12.594 -0.0162 -0.3156  0.2178
13835W        W28966  13.907  16.318  13.287  0.0466  0.2239  0.1406
13836W        W28967   2.962  18.204   1.421  0.1897  0.1604  0.0892
13837W        W28968   3.001   3.714  13.725 -0.1350 -0.1808  0.0192
13838W        W28969  10.098   8.262  11.126 -0.3339 -0.0995  0.1062
13839W        W28970   8.696  15.851   2.684  0.2656 -0.0728 -0.1839
13840W        W28971  12.427   2.475   4.087  0.4753 -0.1201 -0.2416
13841W        W28972  15.778   3.791   2.235 -0.4811 -0.0365 -0.1240
13842W        W28973   6.371  18.691   1.304  0.0791 -0.2119 -0.0681
13843W        W28974  15.140   8.032  11.185  0.1274 -0.0802  0.0006
13844W        W28975  11.870  13.552   5.899  0.2090  0.0995 -0.3362
13845W        W28976  16.712   8.339  15.176 -0.2400  0.1093 -0.1393
13846W        W28977   9.874  14.692  14.668 -0.1400  0.2338 -0.3644
13847W        W28978   6.305   8.622  10.952  0.2093  0.0090 -0.2847
13848W        W28979  15.311   1.381  13.742 -0.0242 -0.0912 -0.0055
13849W        W28980  16.286   2.744   3.171 -0.0467 -0.0741  0.1668
13850W        W28981   4.500   9.306  10.848  0.0537 -0.4539 -0.3110
13851W        W28982   6.626   7.150   5.895 -0.1521 -0.0472 -0.0744
13852W        W28983   7.315   5.995   2.829 -0.2424  0.1732 -0.2650
13853W        W28984   1.775  14.010   3.639 -0.0933  0.1907  0.0373
13854W        W28985   4.717   5.485  14.986  0.1224 -0.0740 -0.0163
13855W        W28986   8.592   9.707   4.382  0.0983  0.0050 -0.0623
13856W        W28987   5.358  15.655   0.135 -0.2537  0.0340  0.1211
13857W        W28988   2.482  12.084  11.823  0.2844 -0.0752 -0.0984
13858W        W28989   6.143  10.299  13.220  0.1453  0.0815 -0.2054
13859W        W28990  15.826   8.240   3.917  0.2423  0.0625  0.3839
13860W        W28991   0.894   6.351  14.399  0.2356  0.0733  0.2512
13861W        W28992  13.345  18.077   0.403 -0.0157  0.1967 -0.0188
13862W        W28993   2.828   9.678  14.976  0.1464  0.1221  0.0187
13863W        W28994   6.881   2.195   5.079 -0.2290 -0.0982 -0.2261
13864W        W28995  14.148   6.839  14.827 -0.4454  0.0346 -0.2146
13865W        W28996  15.242  10.376   2.633  0.0003 -0.1269  0.1259
13866W        W28997   9.367   6.536  13.827  0.0659  0.2910 -0.0596
13867W        W28998  17.299  17.004   1.588 -0.0938  0.2721  0.1206
13868W        W28999   5.772   4.512  12.021  0.2207  0.1000 -0.0077
13869W        W29000   4.697  10.675   5.072 -0.1873  0.0976  0.1155
13870W        W29001   0.345   1.874  15.715  0.1129  0.4696  0.2137
13871W        W29002  13.967  11.651  15.351  0.2009 -0.2977 -0.0685
13872W        W29003  15.377  17.139   4.578 -0.2776 -0.2279  0.0436
13873W        W29004   5.513  17.039   4.466  0.2705  0.0600  0.2087
13874W        W29005  14.087  14.252   3.641 -0.0440 -0.0534  0.1965
13875W        W29006  13.357   7.236  10.161 -0.0434 -0.3684  0.2402
13876W        W29007   8.890   4.411  10.485 -0.0949  0.1794  0.3678
13877W        W29008  13.184   0.635  12.773  0.2277  0.0193  0.1953
13878W        W29009   8.736   7.288   1.596  0.1246  0.1652  0.1915
13879W        W29010   8.332  18.629   4.328 -0.0420 -0.1697  0.0479
13880W        W29011   4.734  11.350   0.037  0.1281 -0.0860 -0.1464
13881W        W29012   8.213  11.312   0.943  0.0646 -0.1888 -0.0312
13882W        W29013  16.071   0.227   5.546 -0.0305  0.1943  0.1848
13883W        W29014   2.671  13.056  11.655  0.1196  0.1080 -0.2619
13884W        W29015  18.308   0.935   3.699 -0.0340 -0.3735 -0.2919
13885W        W29016   2.324  11.983  11.344  0.0195  0.1509 -0.3061
13886W        W29017  11.803  18.632  14.100  0.1506 -0.3049 -0.1701
13887W        W29018  14.069  18.118   3.744 -0.0782 -0.5130  0.0521
13888W        W29019  10.544   9.505   2.066 -0.1251 -0.0802 -0.2414
13889W        W29020   7.702  14.717  10.166  0.2444 -0.3895 -0.2073
13890W        W29021  12.412  16.875   1.732 -0.1871  0.3665 -0.1311
13891W        W29022   7.518   0.474   0.793  0.0211  0.1962  0.2859
13892W        W29023   2.518   0.283   0.912  0.2749  0.0950 -0.0873
13893W        W29024  17.627  18.546   5.627  0.4731  0.2628  0.1346
13894W        W29025  15.333   2.733  12.214 -0.2881  0.0642 -0.1055
13895W        W29026   1.720   5.947  11.461  0.4373  0.1472  0.2307
13896W        W29027   9.318   6.126  12.630  0.0543  0.0754  0.0306
13897W        W29028   7.240  10.795   0.401 -0.2088  0.1759 -0.2983
13898W        W29029   1.720  14.688  13.082  0.1384 -0.2161 -0.3101
13899W        W29030   4.954  17.033   1.319  0.0818 -0.4913 -0.0219
13900W        W29031   1.815   0.257   5.359 -0.1258  0.0813  0.0129
13901W        W29032  16.630   8.795   1.187  0.2092 -0.0227  0.2377
13902W        W29033  18.065   9.442   3.366  0.4316 -0.1114 -0.2726
13903W        W29034  16.944   3.301  14.791 -0.3007 -0.1265  0.1528
13904W        W29035   3.795   9.282  14.783  0.3400  0.1018  0.2691
13905W        W29036   4.501   0.325   3.494  0.1001  0.3841  0.0192
13906W        W29037   6.092   8.428   3.664  0.1310  0.0626  0.0439
13907W        W29038  12.689  14.320   0.773 -0.1817 -0.0768 -0.2723
13908W        W29039   8.778  11.367  14.349 -0.1300 -0.1148 -0.2603
13909W        W29040   9.364   9.459   0.509  0.1684  0.0245 -0.0512
13910W        W29041  10.922   0.714   5.041 -0.0543  0.0667 -0.1972
13911W        W29042   4.644   7.603   0.586  0.4411 -0.2163 -0.1503
13912W        W29043   6.496   9.345   3.022 -0.2210  0.1585  0.1344
13913W        W29044   4.701  15.315   4.684  0.1372  0.2586 -0.1231
13914W        W29045  16.387   3.962   2.308 -0.1559 -0.0075  0.2477
13915W        W29046   5.916   9.173  12.725 -0.1695  0.0594 -0.3439
13916W        W29047   2.373  13.018  10.321 -0.1243 -0.0613  0.0672
13917W        W29048  14.595  12.923  11.471 -0.1624 -0.0396 -0.2135
13918W        W29049   1.689   4.138  12.885 -0.0794 -0.0423 -0.1871
13919W        W29050  13.278   2.315   1.538 -0.0759  0.1085  0.4625
13920W        W29051  18.300  16.287  12.943  0.1151 -0.0271 -0.2881
13921W        W29052   8.973   5.542   4.065 -0.5906 -0.0566 -0.2498
13922W        W29053  11.675  13.840  14.648 -0.0664  0.0348  0.1510
13923W        W29054   2.790  14.496   3.609 -0.5978  0.2506 -0.1126
13924W        W29055   8.952   6.948   3.758 -0.1910  0.1275 -0.4613
13925W        W29056  15.044   5.862  13.565  0.1217  0.0774  0.3804
13926W        W29057  18.266  15.896   3.487 -0.2743 -0.0070 -0.1428
13927W        W29058  12.175   6.802  11.061  0.1879 -0.0833 -0.0454
13928W        W29059  15.592   8.811   0.063  0.2872 -0.2964  0.1089
13929W        W29060   3.479   9.379   1.714  0.2230 -0.1292  0.2452
13930W        W29061   7.510   7.207   1.810 -0.2363 -0.0967 -0.1464
13931W        W29062   2.197   1.383   4.885 -0.0215 -0.3908 -0.1641
13932W        W29063  16.698   4.768   0.753  0.3252 -0.0477  0.2717
13933W        W29064   8.093  14.525   3.814  0.1446  0.2274 -0.0600
13934W        W29065   2.332   7.779   3.412  0.1278  0.3169 -0.5142
13935W        W29066   6.429   8.269   1.143 -0.0502  0.0207 -0.0938
13936W        W29067   9.604   5.426  15.458  0.0972 -0.2588  0.2970
13937W        W29068   9.812   8.486   3.672 -0.0320  0.1940  0.0048
13938W        W29069   4.146  18.742  12.966 -0.0610  0.0342  0.0140
13939W        W29070   8.103   8.035  13.959 -0.0062  0.1383 -0.0416
13940W        W29071  10.890   8.411   4.218 -0.1597 -0.0080 -0.1278
13941W        W29072  10.217   5.799   4.587  0.1438  0.1565  0.1288
13942W        W29073   0.937  18.354   5.448  0.2635 -0.3737 -0.2457
13943W        W29074  14.179  10.301  15.295 -0.2180 -0.3663  0.1290
13944W        W29075  13.917  10.483  13.541  0.2595  0.1078 -0.1270
13945W        W29076   9.333   5.519   1.793 -0.2166  0.2834 -0.1500
13946W        W29077  13.411   9.811   5.393  0.1227 -0.1917 -0.0438
13947W        W29078   6.225   5.075   9.336 -0.1707 -0.2394 -0.2134
13948W        W29079   8.123   6.932   3.561 -0.2274  0.2975  0.0428
13949W        W29080   3.721   9.735  14.448 -0.2841  0.0812 -0.2068
13950W        W29081  15.779   7.980   3.019 -0.0643 -0.1389  0.2165
13951W        W29082   5.089   7.984   5.810 -0.1161 -0.0408 -0.1091
13952W        W29083   3.711   4.991  14.998 -0.3258 -0.2109  0.2190
13953W        W29084   3.145  15.068   1.345  0.1178  0.0898  0.0895
13954W        W29085  15.458   7.785  13.426 -0.0552 -0.3954  0.0067
13955W        W29086   6.714  12.410  13.652  0.0199  0.1282 -0.1258
13956W        W29087   7.801  18.583   9.618 -0.2897 -0.1686 -0.3776
13957W        W29088   7.030   3.781  10.062  0.0218  0.3679 -0.0216
13958W        W29089   1.112   0.950  11.947 -0.0267 -0.0110  0.1515
13959W        W29090   3.337  17.806  12.114 -0.1301 -0.3074 -0.2101
13960W        W29091  18.651  15.799   4.029  0.1447 -0.0538 -0.0982
13961W        W29092   6.872   6.784   2.468  0.1155  0.0597  0.0658
13962W        W29093  10.346   3.392  13.172  0.2185  0.1950  0.2290
13963W        W29094  10.851   6.708  11.247 -0.3154 -0.2636  0.0491
13964W        W29095  17.639   5.391   1.841 -0.1892 -0.2530 -0.0885
13965W        W29096  16.405  11.994   1.925 -0.0142  0.1248  0.0756
13966W        W29097  11.781  11.817   3.606 -0.1852 -0.1512 -0.0369
13967W        W29098   8.407   2.184   4.891 -0.0554 -0.0197  0.0753
13968W        W29099   5.032  14.740  12.056  0.1417 -0.1688  0.2636
13969W        W29100   1.803   7.613   3.332  0.2052 -0.2256 -0.2321
13970W        W29101  11.943   2.591   2.060 -0.2183 -0.1483  0.1851
13971W        W29102   7.339   6.030   1.034 -0.0025  0.1643 -0.0689
13972W        W29103   5.159  18.568   4.183 -0.1988 -0.2483  0.2771
13973W        W29104   2.036  14.188   2.620 -0.0597 -0.0589 -0.0054
13974W        W29105  12.636  10.362  14.447  0.0993  0.0620 -0.0670
13975W        W29106  18.006  10.922   1.234  0.0123 -0.0713  0.0280
13976W        W29107  13.732  17.665  14.746  0.0016 -0.0436  0.1651
13977W        W29108  17.504  11.590  14.454 -0.4511  0.0536  0.2392
13978W        W29109  17.827  18.490   1.656 -0.4127 -0.1217  0.0315
13979W        W29110  18.709  11.787   0.657  0.0952  0.1145 -0.0406
13980W        W29111   3.599   4.690  12.087 -0.1601 -0.0714  0.4910
13981W        W29112  16.585   4.521   3.893 -0.1170 -0.1079  0.0400
13982W        W29113   3.823   3.361   4.402 -0.0034 -0.2105  0.1281
13983W        W29114   8.204   4.017   0.890 -0.0045  0.1124  0.0513
13984W        W29115   7.601  14.618  12.162 -0.2908  0.1288 -0.0015
13985W        W29116  15.133   5.442   9.429  0.2580 -0.1371  0.1998
13986W        W29117   4.971   8.363  13.923  0.1958  0.3096  0.1932
13987W        W29118   9.919   6.099   0.864  0.0976  0.0742 -0.1168
13988W        W29119  17.294  13.547  13.724  0.2282 -0.2831 -0.3247
13989W        W29120   7.141   7.770  13.752  0.0864 -0.1226  0.1858
13990W        W29121   8.662   4.882  15.634 -0.0944 -0.0528  0.0098
13991W        W29122   4.726  11.822  13.981 -0.2367 -0.1073 -0.4488
13992W        W29123  16.909  13.217   5.946 -0.0107 -0.0237  0.2435
13993W        W29124   1.509   1.837  14.882  0.0662  0.0219 -0.0153
13994W        W29125   8.538   9.178  11.420 -0.0849  0.1654  0.0068
13995W        W29126   9.981   3.614  11.380  0.0039 -0.0569  0.1953
13996W        W29127  11.306  10.253  12.432 -0.1667 -0.0665 -0.1520
13997W        W29128  14.302   9.767   4.878 -0.2350 -0.1442 -0.1199
13998W        W29129  18.091  15.521  13.973  0.2494  0.4365 -0.1136
13999W        W29130   5.799  13.229  13.052 -0.0690 -0.4662 -0.1052
14000W        W29131   5.814   1.881  10.568 -0.3333 -0.2280 -0.2000
14001W        W29132   9.252  15.971  13.010 -0.0954  0.0021  0.1607
14002W        W29133   1.466  18.376   0.226  0.1764 -0.1853 -0.1375
14003W        W29134  12.680  15.246   2.392  0.0386  0.2871  0.0512
14004W        W29135  11.063  10.325   6.487  0.1094 -0.1372 -0.3722
14005W        W29136  15.583  13.068  15.150  0.1951 -0.0152  0.2326
14006W        W29137   9.727  12.473   3.601  0.0553  0.1980 -0.1662
14007W        W29138   7.868  17.375  15.052  0.1225  0.0602  0.3207
14008W        W29139   1.773  16.156  14.657 -0.2291  0.2451 -0.1051
14009W        W29140   7.527   5.946  15.609 -0.2671  0.0845 -0.3190
14010W        W29141  12.861   2.880  11.949  0.3591 -0.0151  0.0156
14011W        W29142  18.401   7.469  15.758 -0.0324 -0.1122 -0.3254
14012W        W29143   5.592   6.032   3.251  0.0284 -0.0477  0.2746
14013W        W29144   6.928  16.893   2.321 -0.2038 -0.1768 -0.2589
14014W        W29145  11.797   0.195   6.351 -0.0875  0.2320  0.2234
14015W        W29146  17.242   5.444  13.090 -0.0331  0.3004  0.3518
14016W        W29147   2.779  11.640   2.406  0.0770 -0.0339 -0.3450
14017W        W29148  10.472  13.380  15.111 -0.0255 -0.1623  0.1022
14018W        W29149   4.604  12.061   4.848 -0.1122  0.1086  0.0542
14019W        W29150  10.456  16.876  15.046 -0.3120 -0.0143  0.0056
14020W        W29151  18.146   1.783  13.625  0.1523  0.0624 -0.0036
14021W        W29152  13.164  12.490  15.283  0.2159  0.2257 -0.1654
14022W        W29153  16.743   9.665  11.376  0.1150  0.0993  0.1544
14023W        W29154   9.396  11.424   2.449 -0.4259 -0.1231  0.0811
14024W        W29155  16.783   7.310  11.775  0.1147 -0.0421 -0.2307
14025W        W29156  10.472   2.924   0.010  0.0775 -0.2317 -0.1835
14026W        W29157  14.981  12.153   4.938  0.0294 -0.3037 -0.0705
14027W        W29158   7.486  11.405   4.973 -0.2292  0.2469 -0.1535
14028W        W29159   9.612   4.801   1.376  0.1928  0.0672 -0.0965
14029W        W29160  10.214   2.408  13.368 -0.0898 -0.0743  0.1303
14030W        W29161   2.464   0.542   4.725  0.1169 -0.0693 -0.0421
14031W        W29162  13.197   9.107   3.581 -0.1801  0.0416 -0.0799
14032W        W29163   9.598  11.096   3.999  0.1754 -0.2579 -0.1091
14033W        W29164   1.229   0.272   4.018  0.1239 -0.0156  0.1696
14034W        W29165  14.324   5.294  15.702  0.0362 -0.0873 -0.0751
14035W        W29166   9.053  14.041   6.168 -0.1265 -0.0039  0.2341
14036W        W29167  12.068  16.173   3.783  0.1487 -0.2375 -0.0849
14037W        W29168  10.224  13.513  14.336  0.1231 -0.0696  0.1765
14038W        W29169  12.350   7.070   2.485  0.2857 -0.4563  0.0184
14039W        W29170  11.211  10.064   1.601  0.3059  0.2460  0.3237
14040W        W29171   9.752   7.375  11.241 -0.0315 -0.3786 -0.1581
14041W        W29172   0.583  12.621  10.706 -0.2002  0.0343 -0.1081
14042W        W29173  16.087   9.416  13.780  0.1875  0.1535 -0.1597
14043W        W29174  12.207   8.477   4.305  0.0991 -0.2526 -0.0712
14044W        W29175   5.393  13.424   3.287  0.0136 -0.3492 -0.4188
14045W        W29176   5.451   2.724   9.976 -0.2462 -0.4159 -0.1366
14046W        W29177   0.395  11.867   2.341 -0.1091 -0.1400  0.0048
14047W        W29178   9.731   9.735   2.521 -0.0721 -0.2745 -0.1861
14048W        W29179   3.173  18.581   3.280 -0.0327 -0.3278 -0.1426
14049W        W29180   2.815  17.950   5.045  0.1281  0.2537 -0.6188
14050W        W29181   0.206  13.129   3.866  0.2065  0.1865 -0.0308
14051W        W29182  13.379   0.202  14.617  0.0339  0.2696 -0.0315
14052W        W29183  14.749   6.512   1.751  0.2433 -0.4018  0.0745
14053W        W29184   9.266  10.614   2.620 -0.0715  0.2632 -0.0172
14054W        W29185  10.426   5.453   2.660  0.0340 -0.0450 -0.3921
14055W        W29186   2.121  13.255   5.491  0.0173 -0.3001  0.0040
14056W        W29187   7.483  15.837   1.979 -0.0901 -0.0449  0.1653
14057W        W29188   2.702  17.167  15.165  0.1336  0.2630 -0.0543
14058W        W29189   8.047  13.959   2.154 -0.0640  0.4117  0.0985
14059W        W29190   0.910  12.510  15.175  0.4301 -0.2141 -0.0943
14060W        W29191   2.887   8.784   4.429  0.2735 -0.1352 -0.0618
14061W        W29192   1.064   6.570   1.473 -0.3129  0.0450 -0.2649
14062W        W29193  17.126   0.638  10.532 -0.2147  0.1136  0.4051
14063W        W29194   3.696   7.972   0.916  0.0371 -0.0334  0.0104
14064W        W29195   6.686   1.783   0.900 -0.3948  0.0774 -0.1190
14065W        W29196   1.294  17.861  13.843 -0.1987  0.2742 -0.2289
14066W        W29197   6.833  12.961  10.738 -0.2874  0.0495 -0.0096
14067W        W29198   9.345   1.241   0.993  0.0438 -0.1288 -0.2758
14068W        W29199   1.655  13.228   5.298 -0.1436 -0.0723 -0.2597
14069W        W29200   1.443  14.457  13.828 -0.1951 -0.1347 -0.2522
14070W        W29201  10.561   5.259   0.930 -0.2059  0.1920  0.1127
14071W        W29202  18.502  17.157  11.734  0.2627 -0.0786 -0.0375
14072W        W29203   4.321  15.371  10.374  0.1999  0.1940  0.2417
14073W        W29204   4.813  14.601  10.712 -0.0621 -0.0893  0.0701
14074W        W29205   0.082  13.057  13.036  0.0861 -0.2271 -0.2266
14075W        W29206   3.877  14.332  15.273  0.1688 -0.0466 -0.0976
14076W        W29207   4.958   6.047  13.668 -0.0813  0.1733  0.3348
14077W        W29208   7.379  12.892   0.385  0.1749 -0.0329  0.2641
14078W        W29209  11.596  12.367  13.839 -0.0322 -0.1470 -0.3462
14079W        W29210   4.866  11.398  14.847 -0.0502  0.0223  0.2015
14080W        W29211   4.061   9.141  15.471  0.1023 -0.1531 -0.1295
14081W        W29212  12.674  18.248  15.681 -0.2778  0.1025  0.2130
14082W        W29213   3.403   0.812   4.222  0.0993  0.1151 -0.3637
14083W        W29214   1.631   6.460  11.532  0.0265  0.3517  0.1028
14084W        W29215  15.460  17.783   3.434 -0.2082 -0.1825  0.0947
14085W        W29216  18.645  13.786  12.581 -0.0754  0.2282 -0.0453
14086W        W29217   6.530  16.573   2.528 -0.0333 -0.2109  0.1041
14087W        W29218  17.381   4.558  13.479 -0.2757 -0.4520  0.0173
14088W        W29219   7.210  18.584  14.605 -0.2564 -0.0589  0.1214
14089W        W29220   6.435   2.162   2.643  0.0376  0.0420 -0.1439
14090W        W29221  15.929   0.870  13.529  0.0651  0.2800 -0.4219
14091W        W29222   9.450  17.161   2.508 -0.0127  0.0606  0.1510
14092W        W29223  15.334  13.780  14.116 -0.1983 -0.1072  0.3352
14093W        W29224   5.437  13.326  10.353  0.1917 -0.2082  0.1419
14094W        W29225   9.187  18.620  14.178  0.1150  0.4454  0.1345
14095W        W29226  16.582  16.589   2.935 -0.1883 -0.0294 -0.1009
14096W        W29227  11.794   9.469  12.535  0.2484  0.0181 -0.1410
14097W        W29228   6.545   6.071  15.618  0.0301 -0.0226 -0.2144
14098W        W29229   2.903  16.684   0.346  0.0104 -0.2493  0.1546
14099W        W29230   2.719   4.841  11.349  0.1011 -0.1060 -0.1602
14100W        W29231   6.239  16.508   1.755  0.1962 -0.0864  0.2285
14101W        W29232  17.393  18.571  14.905  0.1196  0.0377 -0.2284
14102W        W29233   2.988   3.379   2.637  0.0698 -0.1056  0.2342
14103W        W29234   3.817   7.143  14.284  0.1826  0.4497 -0.0173
14104W        W29235   9.689   3.167   2.435  0.3476  0.1931  0.2151
14105W        W29236  13.107   3.919   3.831  0.1045 -0.1966 -0.3063
14106W        W29237   3.196  10.199   2.342 -0.1026  0.2412 -0.0736
14107W        W29238   0.155   6.611  13.723  0.0226  0.0357  0.0958
14108W        W29239  10.611   2.925   0.478 -0.3700  0.3755  0.0410
14109W        W29240   9.082  16.811  14.130  0.0530 -0.1382  0.1066
14110W        W29241   4.024  10.630  14.082 -0.1336 -0.1477 -0.1150
14111W        W29242  11.048  14.534  14.357 -0.3852 -0.2200  0.2097
14112W        W29243  13.544   9.644  13.583  0.3486 -0.2198  0.0321
14113W        W29244   3.273   0.045   9.912  0.0066 -0.0024 -0.2202
14114W        W29245  15.400   7.686   2.284 -0.0417  0.5111 -0.1070
14115W        W29246  17.988  17.726  10.584 -0.2373 -0.4271 -0.1876
14116W        W29247   6.256   7.733  13.983 -0.1244  0.2550 -0.2313
14117W        W29248  10.597   5.010   0.503 -0.2384 -0.1168  0.2963
14118W        W29249  10.298  14.913  14.926 -0.3360  0.0935 -0.1645
14119W        W29250   6.731  15.518  13.334  0.2604 -0.1348 -0.0556
14120W        W29251  16.087  11.694  11.407 -0.0526 -0.1503 -0.3641
14121W        W29252   3.034   6.927   9.948 -0.2168  0.2844 -0.0203
14122W        W29253   1.083  16.890  10.562 -0.3181 -0.2256  0.0489
14123W        W29254  17.345   4.087  15.523  0.0776 -0.0374  0.0502
14124W        W29255  16.380   9.057  12.881 -0.0559  0.1212  0.0943
14125W        W29256   2.983  16.794  15.000 -0.0687  0.0086 -0.2852
14126W        W29257  12.905   6.154   0.123 -0.3967  0.2031 -0.1068
14127W        W29258   4.296  10.082   4.584  0.0512  0.0081 -0.2326
14128W        W29259   9.732   8.298  11.478  0.1043 -0.0793  0.2116
14129W        W29260  13.786   5.665  11.978 -0.4171  0.3359  0.2143
14130W        W29261  17.463  10.608   4.721 -0.0589 -0.0770 -0.0133
14131W        W29262  16.665  11.558   5.435 -0.4172  0.1017 -0.1907
14132W        W29263   3.325  11.064  15.659 -0.0589  0.4370  0.0841
14133W        W29264   5.083   0.252  13.983  0.0077 -0.1537 -0.4371
14134W        W29265  17.063  10.824  12.913 -0.0917 -0.3271 -0.0256
14135W        W29266  14.290  17.552  13.481 -0.1315  0.0897  0.3086
14136W        W29267   1.935  11.418   2.826 -0.0240 -0.2062  0.1421
14137W        W29268  13.112   6.812  15.517  0.0219  0.5281 -0.0993
14138W        W29269  11.729  11.201  11.523 -0.0548  0.3573 -0.0646
14139W        W29270  13.189  15.171   2.228  0.5100  0.0220  0.3265
14140W        W29271  11.782   7.659   5.574  0.2121  0.1249  0.1619
14141W        W29272  13.026   4.218  12.081  0.0105  0.2454 -0.3139
14142W        W29273  10.362   5.919   3.192  0.2272  0.0502 -0.0685
14143W        W29274   7.682   2.111  11.545 -0.1827 -0.1133 -0.0491
14144W        W29275   6.300   7.897  15.519 -0.0805  0.3330 -0.0325
14145W        W29276   9.440   3.697  15.371 -0.3091 -0.0789 -0.0125
14146W        W29277  10.420  13.410  12.200  0.2707 -0.1684  0.1244
14147W        W29278  12.676   3.029  13.583  0.3644  0.0263  0.0221
14148W        W29279   0.072  18.035  13.900  0.1245 -0.0109 -0.3119
14149W        W29280  15.971  18.567   4.343  0.0983  0.0803 -0.0386
14150W        W29281  12.495   2.675  13.892 -0.1585  0.3251  0.1340
14151W        W29282  10.445  10.013   0.020 -0.3655 -0.2185 -0.3924
14152W        W29283   6.769  17.494  12.553  0.1259  0.3671  0.4501
14153W        W29284  12.944  13.902   3.733  0.1914 -0.1063  0.1008
14154W        W29285  12.855   8.346   6.234  0.0229 -0.1225  0.0874
14155W        W29286  17.808  10.261   0.466  0.0351 -0.1079  0.0469
14156W        W29287  10.878   0.100  13.620 -0.1348 -0.0994 -0.0923
14157W        W29288  18.070   5.659  12.330  0.0671  0.2703  0.2848
14158W        W29289  15.248   3.995   3.337 -0.2774  0.1703  0.4129
14159W        W29290  10.110  18.380  14.598  0.0761  0.0383 -0.3694
14160W        W29291  14.639   8.681   1.037 -0.4875 -0.0551  0.0797
14161W        W29292   0.866  17.878   5.552  0.1766 -0.1673 -0.0085
14162W        W29293  10.246  13.943  15.136 -0.2436 -0.0569  0.1272
14163W        W29294   2.793   6.356   0.928  0.2424  0.0894 -0.0290
14164W        W29295   8.396  11.691   2.824 -0.4449 -0.0531 -0.2121
14165W        W29296   4.941  17.151  12.561  0.0940 -0.4233  0.0728
14166W        W29297   7.034   3.783  15.404 -0.1253  0.1305 -0.0235
14167W        W29298   9.093   1.581  10.048  0.2318  0.1358  0.0753
14168W        W29299  12.481  10.861  14.323 -0.0770 -0.0718  0.2191
14169W        W29300  13.732  16.697   2.855  0.1069  0.2029  0.0696
14170W        W29301   2.694   7.547  12.730  0.1203 -0.0596  0.6319
14171W        W29302   6.580  16.846  14.954  0.0351 -0.0176  0.0511
14172W        W29303  15.286   4.936  11.825 -0.0700  0.0608 -0.1356
14173W        W29304  16.561   5.326   0.843 -0.1278  0.0159 -0.0763
14174W        W29305   1.747  11.008   3.175 -0.0044 -0.2255  0.2252
14175W        W29306  16.734   5.131   0.312 -0.1378 -0.0808  0.3256
14176W        W29307   0.866   7.830   2.124  0.1311  0.1380 -0.1936
14177W        W29308   6.556  14.969   3.556 -0.1002  0.1917 -0.2591
14178W        W29309  15.488   9.988  13.567  0.1563  0.2133  0.2137
14179W        W29310  14.842   3.520  10.815  0.1732 -0.0349  0.1210
14180W        W29311   6.393   7.084  11.230  0.2556 -0.2432 -0.4204
14181W        W29312   0.540  12.297   0.386  0.0152  0.1274  0.1545
14182W        W29313   9.901  15.972   0.338 -0.1468 -0.2206  0.0042
14183W        W29314  15.364   3.393   3.018 -0.1919 -0.1594  0.2157
14184W        W29315  13.292  14.939  15.538  0.0458 -0.2625 -0.0189
14185W        W29316  16.245  10.261  12.408 -0.0127  0.1134  0.1070
14186W        W29317   8.053   2.988   3.999 -0.0516  0.0716 -0.0972
14187W        W29318   9.898  12.251   2.436  0.1728  0.4185  0.0577
14188W        W29319   9.712  13.092  15.584 -0.1187  0.0189  0.1248
14189W        W29320  14.459  18.067  11.305 -0.1910 -0.1577  0.1243
14190W        W29321  15.557   2.880  11.303  0.0385 -0.0482  0.0025
14191W        W29322  11.515   0.399   3.291  0.2170 -0.1837  0.1366
14192W        W29323   4.226   0.341  10.996 -0.1340 -0.0598 -0.1696
14193W        W29324  16.190  11.849  12.990 -0.0345 -0.0138 -0.3294
14194W        W29325  18.023  18.283   2.099 -0.1509 -0.1801  0.1401
14195W        W29326  16.428   5.031   1.955 -0.0738  0.0251  0.1613
14196W        W29327   7.478   8.171   2.215  0.0248  0.1336  0.1442
14197W        W29328  13.141   7.337   0.906  0.1100 -0.2603 -0.0086
14198W        W29329   4.821  18.744  10.921 -0.2429  0.1040 -0.1448
14199W        W29330   8.193  16.180   4.218 -0.0720  0.2876  0.1172
14200W        W29331   5.710   9.515  15.708  0.0711 -0.2433 -0.1109
14201W        W29332  18.406   1.987  14.481  0.1134  0.1336  0.0741
14202W        W29333  10.033   5.990  15.674  0.0247 -0.1155 -0.1105
14203W        W29334  18.225   5.866  10.415  0.1691  0.2986 -0.1265
14204W        W29335   7.892  11.352   0.519  0.0279 -0.1293 -0.1370
14205W        W29336   4.590   6.804  15.307  0.2389 -0.2162 -0.0635
14206W        W29337   1.633  10.918   0.537 -0.2881  0.1699 -0.0200
14207W        W29338   5.036   1.567  13.008  0.0086  0.3069  0.0668
14208W        W29339   6.423  12.056  14.745 -0.1358  0.0477  0.1902
14209W        W29340  12.011   3.697   5.333  0.0963 -0.1008 -0.0065
14210W        W29341  16.341   7.238  12.718 -0.1889  0.1086 -0.0733
14211W        W29342   4.940   4.058   2.481 -0.0987  0.0711 -0.3120
14212W        W29343   7.310  16.217   0.265 -0.0510  0.1921 -0.2599
14213W        W29344   0.257  11.127  11.001 -0.0388 -0.0409  0.1538
14214W        W29345  12.227  10.545   1.127 -0.0880 -0.1609  0.0351
14215W        W29346  17.300   7.086   0.400 -0.2932 -0.1609 -0.4204
14216W        W29347   8.325  12.529  10.679  0.0750  0.0934 -0.1649
14217W        W29348   7.043  14.407  13.016 -0.0540 -0.3671  0.2947
14218W        W29349   9.255  16.876   1.868  0.1629  0.0363  0.1044
14219W        W29350   7.759  17.132  13.495  0.0094 -0.0399 -0.1726
14220W        W29351   1.440   6.072  15.752  0.0266 -0.2532 -0.1751
14221W        W29352  13.589  15.891   3.146 -0.0868 -0.0188 -0.2182
14222W        W29353  10.436   9.601  14.925 -0.0333 -0.0010  0.2386
14223W        W29354   3.399  15.384   4.083  0.2289 -0.0157  0.1012
14224W        W29355   9.587  15.199   0.509 -0.1958 -0.1430  0.0008
14225W        W29356  11.229   1.225  13.388  0.3286 -0.2029  0.4265
14226W        W29357   5.784   1.471  13.592 -0.1670 -0.1403 -0.0919
14227W        W29358  10.784  13.513  14.143 -0.0284  0.1932 -0.0099
14228W        W29359   4.680   6.786  14.427 -0.0004 -0.3514  0.1706
14229W        W29360   2.816  14.313  15.529 -0.2185  0.1701  0.4262
14230W        W29361   4.709   8.504   2.780  0.2194  0.2030  0.1308
14231W        W29362  17.607   1.443  11.556 -0.2197  0.1578  0.0350
14232W        W29363   6.231   4.089   1.775  0.0210  0.3236 -0.3831
14233W        W29364   9.310  11.591   4.789 -0.0024  0.2809  0.0676
14234W        W29365   0.367  15.857  12.449  0.1001  0.1521 -0.2012
14235W        W29366  13.764  16.370  11.070  0.1114  0.0548 -0.2450
14236W        W29367  16.453   3.107   5.585  0.0355 -0.1429  0.1288
14237W        W29368   8.371   6.521   1.926 -0.0872 -0.2288  0.2437
14238W        W29369  15.861   2.100  13.969  0.1446 -0.0360 -0.0653
14239W        W29370   0.020   4.086  12.045 -0.0149  0.2003  0.1453
14240W        W29371   7.976   9.232   1.975  0.1791  0.1338  0.3787
14241W        W29372  10.072  17.110  13.392  0.1779  0.1177  0.1315
14242W        W29373  13.422   3.794  12.898  0.0522  0.4789 -0.0622
14243W        W29374  14.803   4.235  11.532 -0.0672 -0.2542  0.4430
14244W        W29375  18.602   1.393   2.273 -0.0460  0.1610  0.3758
14245W        W29376   9.311   0.781   3.697 -0.4882 -0.1423 -0.0176
14246W        W29377  13.028   0.974  14.553  0.3062 -0.3805 -0.3186
14247W        W29378   5.806  15.265  10.227  0.1023 -0.3022  0.0488
14248W        W29379   4.207   8.745  11.518  0.0786 -0.3703  0.0504
14249W        W29380   0.112  12.707  15.149  0.3775 -0.0746 -0.2214
14250W        W29381   4.811  15.353   4.195  0.1662  0.2592 -0.2011
14251W        W29382   4.680  17.887  15.587 -0.0918 -0.0921  0.1400
14252W        W29383   2.778  15.602  14.132  0.1731 -0.1573  0.0423
14253W        W29384  18.297  14.227  13.531  0.1376  0.1799  0.1976
14254W        W29385   3.944   5.290   2.693 -0.0667 -0.2988 -0.0998
14255W        W29386   4.357   2.301  15.497  0.0717 -0.0268  0.2904
14256W        W29387  13.952   5.554   2.716 -0.3254 -0.4300  0.0715
14257W        W29388  15.419   6.401   0.421 -0.0577  0.5012 -0.2982
14258W        W29389   2.099   0.014  11.373  0.3189 -0.0741 -0.0323
14259W        W29390  15.332   1.414   4.213  0.4617 -0.1384 -0.3372
14260W        W29391  10.532  14.708   2.818  0.0896  0.0486 -0.1958
14261W        W29392  17.055  17.926   3.139 -0.2616  0.0020  0.3027
14262W        W29393   6.800   1.559  11.292  0.0360 -0.1596 -0.3195
14263W        W29394  14.030  10.250   1.185  0.1664  0.3340  0.2261
14264W        W29395   2.141   8.092   2.568  0.0695  0.0780 -0.0408
14265W        W29396   7.487  13.620   2.795 -0.0137 -0.0773 -0.4458
14266W        W29397  18.449   6.196   1.823 -0.0305 -0.0937 -0.1704
14267W        W29398   9.135   1.310   0.176  0.0094 -0.0472  0.2069
14268W        W29399  14.273  12.494  13.329 -0.2314 -0.2062 -0.2141
14269W        W29400   1.512  13.480  10.929  0.0052 -0.0088  0.0951
14270W        W29401  10.503   1.764  10.439  0.1474  0.0352 -0.0312
14271W        W29402   9.604   6.914  13.517  0.2114  0.0495  0.0955
14272W        W29403  16.973   4.196   2.849 -0.0279 -0.3330  0.1198
14273W        W29404   3.160  18.240   4.116  0.1300 -0.0835  0.1347
14274W        W29405  11.546  18.316   4.285  0.1213 -0.0907  0.1231
14275W        W29406  10.673   1.689  13.584 -0.1359  0.1492  0.0347
14276W        W29407   2.198  13.897  10.619 -0.1982 -0.2683  0.3986
14277W        W29408   9.160   4.338   1.826 -0.1053  0.3992 -0.1729
14278W        W29409  11.951  13.604   1.203 -0.0828 -0.1252 -0.1283
14279W        W29410   1.135   7.799   1.215  0.1322 -0.0207 -0.2367
14280W        W29411   5.785  15.753   4.568  0.0936 -0.0057 -0.0608
14281W        W29412   2.042   1.168   4.367  0.1787  0.0542  0.0329
14282W        W29413   5.554  11.997   4.217  0.2254 -0.1004 -0.2486
14283W        W29414  15.468  16.788   2.589 -0.0157  0.2426  0.2536
14284W        W29415  17.121   0.126  12.862 -0.0923  0.0240 -0.1176
14285W        W29416  18.441   4.841  10.680 -0.0611 -0.3476  0.2224
14286W        W29417  16.218  13.471   2.920 -0.0979 -0.3168  0.0039
14287W        W29418  17.881   5.830   0.030  0.2389 -0.1844 -0.0378
14288W        W29419   2.664  11.431  10.764  0.2919  0.1788 -0.1360
14289W        W29420  10.900  10.919   3.514  0.0367  0.0839  0.0031
14290W        W29421   2.675  16.570  12.205 -0.1378 -0.0828 -0.0169
14291W        W29422   3.002  13.004   0.642  0.0067 -0.0126  0.2427
14292W        W29423  16.461   6.389  12.703 -0.0882 -0.2834 -0.0882
14293W        W29424   1.831  17.429  15.504  0.2523  0.2205  0.1583
14294W        W29425  10.115   8.945   3.647 -0.3326  0.0714 -0.1476
14295W        W29426  15.572   1.662   0.661 -0.1059  0.2657  0.0834
14296W        W29427  12.647  11.767  12.782  0.0430  0.1229 -0.0105
14297W        W29428   6.133  17.257   1.172  0.1760 -0.2941 -0.1962
14298W        W29429  18.256   6.490   2.352 -0.0955  0.0723  0.1282
14299W        W29430  18.282   5.875  11.578  0.0788  0.0967  0.2292
14300W        W29431  13.415   7.994   1.976  0.0092 -0.3426  0.1343
14301W        W29432  12.855  15.546  15.022  0.3353 -0.1651 -0.2096
14302W        W29433   5.079  12.944   5.025  0.3910  0.3629 -0.1018
14303W        W29434  15.885  18.404  13.842  0.2613  0.0134 -0.0086
14304W        W29435   8.373   5.673  15.437  0.0681 -0.3346 -0.0091
14305W        W29436   7.792   0.176   3.551  0.2446 -0.2898 -0.2915
14306W        W29437   9.459   6.941   3.693 -0.2098 -0.0933  0.0224
14307W        W29438   7.543   6.330   3.088 -0.0007 -0.2690 -0.0891
14308W        W29439  14.338   0.513  11.441  0.2667 -0.0315  0.1352
14309W        W29440  17.706  16.124   5.983  0.0428  0.3266  0.0046
14310W        W29441   1.379   4.475  13.707 -0.0977  0.0363 -0.0776
14311W        W29442  18.669  18.175  14.429 -0.2829 -0.0016  0.0825
14312W        W29443  16.735   5.865   4.138  0.4033 -0.2093 -0.1444
14313W        W29444  16.381   9.135  14.090  0.2162  0.0255 -0.2413
14314W        W29445  18.579  16.257  13.628 -0.2993  0.1362 -0.0322
14315W        W29446  10.946   1.792  14.924 -0.1378 -0.0428  0.2025
14316W        W29447  16.459   1.557   3.840 -0.0177  0.2196  0.0466
14317W        W29448   0.681  10.108   3.677  0.0652  0.4378  0.2210
14318W        W29449  11.602  16.875   3.962 -0.3262  0.0387 -0.2789
14319W        W29450   9.731  13.434  13.511 -0.2015  0.1008 -0.4016
14320W        W29451  18.644   4.387   4.490 -0.1871 -0.2359 -0.2258
14321W        W29452   6.876  16.997   1.695  0.1188 -0.0857 -0.0956
14322W        W29453   3.847   9.636   1.530 -0.1852  0.3582  0.4307
14323W        W29454  10.999  12.590  15.739  0.2001 -0.1804  0.0380
14324W        W29455  13.580   2.598   0.495 -0.1129 -0.2977  0.1606
14325W        W29456   2.883  12.683   4.439  0.2678  0.1132 -0.0553
14326W        W29457   5.572   5.772   2.070 -0.1774 -0.0617  0.0350
14327W        W29458   2.342   8.619   1.412  0.0230 -0.1314 -0.2823
14328W        W29459   6.491   1.740   3.479 -0.0287 -0.2662  0.1483
14329W        W29460   6.236   1.584   5.305  0.2787  0.0759 -0.2417
14330W        W29461   9.241  18.594   2.828  0.1203 -0.3248  0.1063
14331W        W29462  15.305   3.869  15.028 -0.3798  0.1480  0.0077
14332W        W29463  15.470   7.247  11.862 -0.0723 -0.0993  0.2888
14333W        W29464  18.707   1.518  11.980  0.1514  0.3489  0.0728
14334W        W29465   6.825  18.491   4.475  0.0230 -0.1022 -0.1286
14335W        W29466  10.029  16.959  11.132 -0.2176  0.0438  0.0708
14336W        W29467   4.890  17.718   0.886 -0.0627  0.0163  0.0854
14337W        W29468  10.651   4.526  13.093  0.2326  0.1120 -0.2246
14338W        W29469  15.914   1.915   0.428 -0.1640 -0.1376  0.0608
14339W        W29470  10.954  15.764  13.485  0.0949 -0.1899  0.0656
14340W        W29471   1.171  13.349   0.808  0.2553 -0.3078  0.0004
14341W        W29472  15.916   9.721   1.162  0.0944 -0.1198  0.0382
14342W        W29473   6.090   6.617  15.449 -0.2580 -0.4997 -0.3719
14343W        W29474   4.224  11.169  10.673  0.3064  0.0268  0.1867
14344W        W29475  17.800  10.384   5.578  0.1509  0.1041 -0.3080
14345W        W29476  12.146   7.498  11.661 -0.1775 -0.2784  0.1261
14346W        W29477   9.595   5.563  10.903  0.3351  0.2482  0.1872
14347W        W29478   1.664   6.605   4.546 -0.1602 -0.0678 -0.1521
14348W        W29479   5.592   7.912   2.926  0.2144 -0.0594 -0.0293
14349W        W29480   1.579   0.632   5.127  0.3610  0.0902  0.1288
14350W        W29481   0.374   0.843  12.047 -0.0525 -0.1643 -0.1305
14351W        W29482  14.037   0.060  12.920 -0.1016 -0.2654 -0.2343
14352W        W29483  14.865  17.673  15.243 -0.3121  0.2664  0.2352
14353W        W29484  17.299   7.570  14.971  0.3305 -0.3682  0.0445
14354W        W29485   9.769  15.385   2.251 -0.0166  0.1656  0.3454
14355W        W29486  15.613   4.660  13.892  0.0716 -0.2029  0.2779
14356W        W29487   5.692   7.966   2.020  0.1382  0.1111 -0.0168
14357W        W29488   5.069  14.191   3.007  0.3209  0.0037 -0.1760
14358W        W29489   5.153  12.809   1.194  0.1766 -0.0705  0.0568
14359W        W29490  15.253   0.048   5.014  0.0785  0.0604  0.2594
14360W        W29491   6.746   7.998   5.025 -0.0354  0.2929  0.0870
14361W        W29492   2.945   9.183   0.984 -0.1016 -0.0155 -0.0595
14362W        W29493  18.519  15.345  15.624  0.2819  0.2516 -0.0526
14363W        W29494   6.200  15.195  11.896  0.0416  0.1375 -0.0730
14364W        W29495   3.752   5.579   4.847  0.0012  0.0800 -0.0378
14365W        W29496   8.609   3.680   1.930 -0.3692  0.1241 -0.1104
14366W        W29497   5.620   6.767  10.222  0.2488 -0.3258  0.0152
14367W        W29498   2.193   9.275   3.597  0.2205 -0.3782  0.2200
14368W        W29499   7.409   5.597  11.366  0.3684 -0.1269 -0.1902
14369W        W29500  14.030  17.291  10.772  0.1621 -0.1506 -0.1093
14370W        W29501  16.881   4.003   2.378 -0.0053  0.2525  0.2393
14371W        W29502   1.590   9.714   4.507  0.3000 -0.1207 -0.1744
14372W        W29503   6.858   8.218  14.587  0.4477  0.1058  0.2390
14373W        W29504   7.928   3.059   5.236 -0.0910 -0.0613 -0.4538
14374W        W29505   5.771  17.053  15.196 -0.3149  0.1145  0.1350
14375W        W29506   0.750  14.300  12.669 -0.0543  0.1754 -0.0808
14376W        W29507  15.803  11.022  13.074 -0.0852 -0.0323  0.0086
14377W        W29508  14.525  17.210   5.152 -0.0481  0.1566  0.0228
14378W        W29509  10.026   4.065   0.740  0.2011  0.0634 -0.0105
14379W        W29510   6.271  18.293  11.882 -0.0726 -0.2817  0.0879
14380W        W29511   2.716  17.108   2.668 -0.1685  0.2458 -0.3040
14381W        W29512   8.093  17.978   0.533  0.0272 -0.0115  0.0021
14382W        W29513  12.207   3.722  10.127  0.0318  0.0777  0.2398
14383W        W29514   7.664  14.406   2.885 -0.0316 -0.3814  0.3085
14384W        W29515   7.316   8.885   2.672  0.1682 -0.2024  0.2051
14385W        W29516  10.153  11.738  14.603  0.0766 -0.0208 -0.2255
14386W        W29517   9.757  11.478  15.444  0.2990 -0.0757  0.1312
14387W        W29518   2.282   5.307  15.239 -0.0231  0.1068  0.2805
14388W        W29519   1.656  13.518  13.519  0.1291  0.2940 -0.0340
14389W        W29520  14.462  13.685   2.919  0.2608  0.2119  0.3787
14390W        W29521  13.126  10.754   3.939  0.0228 -0.1716 -0.0411
14391W        W29522  17.226   5.857   3.878  0.0537  0.2761  0.0658
14392W        W29523  18.163  10.031  11.672 -0.1898 -0.1634  0.0989
14393W        W29524   5.088  18.611   2.768 -0.4174 -0.1726 -0.2822
14394W        W29525   7.469   4.460   2.396 -0.1997 -0.2180 -0.3313
14395W        W29526   5.419  13.197  15.359 -0.2194 -0.2752 -0.2674
14396W        W29527  10.291   2.787   3.607 -0.1022  0.2624  0.1962
14397W        W29528   9.665  13.519   1.920  0.1440  0.1654  0.4531
14398W        W29529   9.097  12.120   4.653 -0.1629 -0.4766 -0.2698
14399W        W29530  10.177  15.162  15.593 -0.2376  0.2572 -0.1625
14400W        W29531  12.795  16.145  13.623 -0.0807 -0.0652  0.0461
14401W        W29532  18.544   9.321  11.990  0.0024 -0.1336 -0.2084
14402W        W29533  13.320   8.869   5.438  0.1333 -0.0656  0.2593
14403W        W29534   0.087  18.470   4.682  0.1190  0.1281 -0.0500
14404W        W29535  11.064   9.497   1.748 -0.2016  0.1986 -0.2709
14405W        W29536   8.179  16.683  13.634 -0.0498  0.0586  0.2457
14406W        W29537   0.829  12.297   3.293  0.0332  0.1106  0.2008
14407W        W29538  15.942   8.309   0.684 -0.2356  0.1050 -0.1805
14408W        W29539   9.340   7.059  11.559  0.0263  0.3762 -0.0156
14409W        W29540   1.199   9.737  13.919  0.0725 -0.0922  0.2175
14410W        W29541   2.708  18.220  15.023 -0.0859  0.2546 -0.0332
14411W        W29542   3.623   1.683  11.539 -0.0076  0.2089  0.0750
14412W        W29543  12.551  14.049   3.296 -0.1092  0.3356 -0.1081
14413W        W29544  14.465   7.468  14.517 -0.0355 -0.0203 -0.0235
14414W        W29545   3.381  16.746   1.962  0.2086 -0.0494  0.2075
14415W        W29546   8.567  14.489  13.401  0.0380 -0.2059 -0.4302
14416W        W29547   2.239  11.300   2.304  0.0919  0.2794 -0.0582
14417W        W29548  13.187   2.195   2.995  0.0803  0.2183 -0.0250
14418W        W29549  10.116   2.765  11.783  0.1123  0.2707 -0.0511
14419W        W29550  17.877   4.009  15.171  0.3092  0.0598 -0.2368
14420W        W29551   2.184   7.354   5.164 -0.0102  0.0232  0.2327
14421W        W29552  15.018   6.996   0.515 -0.0788 -0.0493 -0.0092
14422W        W29553   7.427  13.556  12.408 -0.0997 -0.2161 -0.0157
14423W        W29554  11.513   7.680  11.230 -0.0710 -0.2186  0.1417
14424W        W29555   2.780   7.718   0.493 -0.1077 -0.3425  0.3258
14425W        W29556  16.387   0.514  12.993  0.0989 -0.2206  0.0331
14426W        W29557  10.363   0.405   3.785 -0.1885 -0.2094 -0.3287
14427W        W29558  16.861  11.658  14.213 -0.0493 -0.0682  0.3318
14428W        W29559  16.041   2.205   0.822  0.2156  0.1834 -0.1175
14429W        W29560  12.447  17.062   5.751  0.0040  0.0569  0.2516
14430W        W29561   7.874  16.396  11.939 -0.0198  0.0119  0.0852
14431W        W29562  17.079   1.690  14.013  0.3159 -0.0395  0.0483
14432W        W29563   4.798  11.702   3.218 -0.1879  0.1694 -0.0929
14433W        W29564  16.629  15.237  12.776  0.2046  0.2409  0.1266
14434W        W29565   3.195   8.942   1.581  0.2149 -0.3209 -0.1895
14435W        W29566  18.490  13.090   0.825  0.0486  0.1432  0.2620
14436W        W29567  15.837   1.743  13.113  0.3578 -0.1406  0.4173
14437W        W29568   5.916  11.540  14.685  0.2615  0.1388  0.1639
14438W        W29569  17.391  15.664   0.686  0.4120 -0.1031  0.1392
14439W        W29570   7.607   7.992   4.305 -0.0169 -0.0110  0.0589
14440W        W29571   2.950  13.155   4.532  0.0425  0.0943 -0.2253
14441W        W29572   3.966   0.630   1.587 -0.1354 -0.0563 -0.7082
14442W        W29573   7.823  16.557   4.163  0.0578  0.4606 -0.3970
14443W        W29574   8.086   5.420  10.478 -0.0154 -0.2575 -0.1340
14444W        W29575   7.016   0.173   0.705 -0.2684 -0.1390  0.0840
14445W        W29576   0.281  12.491   5.251  0.0113 -0.1675 -0.1861
14446W        W29577   1.686   9.078   5.353  0.2736  0.0263  0.0878
14447W        W29578  17.142   8.512  11.032 -0.0082  0.0725 -0.0570
14448W        W29579  11.991  17.208  14.967  0.0581 -0.1248  0.1447
14449W        W29580  11.095   7.273  11.130 -0.2309 -0.1353 -0.3748
14450W        W29581   7.425  12.324   3.037  0.2539 -0.1283  0.2749
14451W        W29582  17.550   7.835  14.242  0.1409  0.0486 -0.0233
14452W        W29583   0.844   0.569  12.117 -0.2402 -0.2414 -0.0076
14453W        W29584   0.446  13.826   5.544 -0.2693  0.1832 -0.2732
14454W        W29585   6.721  16.818  11.589 -0.0643 -0.3951  0.2070
14455W        W29586   8.697  16.261   4.200  0.0918  0.1599  0.0411
14456W        W29587   3.837  11.238   4.413 -0.0153  0.2149  0.1059
14457W        W29588  12.374  10.831   2.799  0.0090  0.2936 -0.2774
14458W        W29589  12.706   1.940  14.283  0.3154 -0.3014  0.3148
14459W        W29590  10.325   3.746   4.052 -0.1493  0.0218 -0.2003
14460W        W29591   7.137   1.105   2.693 -0.0079  0.1707 -0.1841
14461W        W29592   9.849  13.957   0.369  0.0818 -0.0473 -0.0929
14462W        W29593  14.293  13.419  13.388 -0.3814  0.2349 -0.1288
14463W        W29594   1.257   3.670   1.966 -0.1454 -0.3254  0.0062
14464W        W29595   4.291   3.629  12.572  0.0432 -0.1650 -0.0979
14465W        W29596  12.461  15.356   3.555  0.1691  0.1060  0.0415
14466W        W29597   7.755  15.000  12.449 -0.2336  0.4940  0.1322
14467W        W29598  15.059  17.929   3.276 -0.0966 -0.0251 -0.0064
14468W        W29599  18.212   8.752   1.984  0.1689  0.0164 -0.0916
14469W        W29600   3.991   4.412  12.271 -0.3516  0.0039 -0.1378
14470W        W29601   0.808   3.163   3.583 -0.1380 -0.0131 -0.1830
14471W        W29602  12.427   6.156   1.391 -0.1066 -0.0173 -0.1194
14472W        W29603   5.080  12.334  12.335 -0.0611 -0.0045 -0.4919
14473W        W29604   5.230  12.969  14.072 -0.0990 -0.1160 -0.3647
14474W        W29605  13.912   9.976  13.827  0.0361 -0.2685 -0.0150
14475W        W29606  18.178   8.227   4.033  0.0977 -0.0366  0.0778
14476W        W29607  11.431  14.415  12.386  0.0427 -0.3618 -0.1550
14477W        W29608   5.044   6.954  15.518  0.0855 -0.1077  0.2853
14478W        W29609   4.316   9.519  15.492 -0.1874  0.0062 -0.1803
14479W        W29610   7.219   3.642   5.395  0.1610 -0.3529  0.5398
14480W        W29611   8.049  11.284   2.998  0.0209  0.0089 -0.2528
14481W        W29612   9.748  13.825  14.370 -0.2009  0.2318  0.0049
14482W        W29613   3.040   1.002  12.039 -0.3170  0.0356  0.0260
14483W        W29614  18.511  14.433   3.996  0.1360  0.2181 -0.0075
14484W        W29615  12.456   6.476   5.418 -0.2693  0.0481  0.2572
14485W        W29616   7.482   3.573   0.808  0.0326  0.1026  0.2496
14486W        W29617  18.289  15.582  10.106  0.1530  0.2299  0.0335
14487W        W29618  14.388  12.121  11.856 -0.3454 -0.3165  0.2075
14488W        W29619  15.473  13.970   1.403  0.0551  0.1698 -0.3648
14489W        W29620  11.146  10.962  13.117  0.0299  0.2953  0.0070
14490W        W29621   6.033   6.135  10.232 -0.2896 -0.1491 -0.0337
14491W        W29622  17.153   8.239   5.149  0.0945  0.0300 -0.1125
14492W        W29623   6.221   2.476  13.568  0.0544  0.0620  0.1314
14493W        W29624   0.999   3.447   1.623 -0.2377  0.0624 -0.0260
14494W        W29625   6.428   5.393   2.658 -0.2455 -0.1349 -0.1029
14495W        W29626   7.721  10.823   0.245  0.3326  0.1301  0.0895
14496W        W29627  12.213  13.595  11.470 -0.1550 -0.1593  0.0795
14497W        W29628  12.730   2.817   3.781  0.1382 -0.0412  0.1977
14498W        W29629   2.588   9.029   3.926  0.1165  0.2055 -0.2143
14499W        W29630  14.032   6.133   0.949 -0.0630 -0.1674 -0.1868
14500W        W29631   2.040  11.930  15.146  0.1434 -0.1378  0.2283
14501W        W29632  14.256  16.433   5.774  0.3012  0.0132 -0.0650
14502W        W29633  13.194   6.883   0.682 -0.2695 -0.0831 -0.1809
14503W        W29634  16.778  14.979   5.271 -0.1325  0.3302  0.4049
14504W        W29635  17.812   6.989  12.813 -0.0103  0.3349  0.1716
14505W        W29636   5.709   5.125  12.761 -0.1462 -0.1685  0.2604
14506W        W29637   3.689   0.645   2.520  0.1251 -0.0455 -0.3353
14507W        W29638  11.223   4.535   3.121  0.0484 -0.5151 -0.0775
14508W        W29639  14.630   3.877   4.223 -0.2600 -0.0361  0.2684
14509W        W29640   0.446   4.990  11.111 -0.1609  0.0625 -0.3050
14510W        W29641   3.874   6.274  14.266  0.4500 -0.0905 -0.2100
14511W        W29642   8.279  14.971  13.128  0.0945  0.0729 -0.1272
14512W        W29643  16.003   9.978   2.359  0.1067  0.0527 -0.1283
14513W        W29644   4.029  18.203   0.872 -0.0470 -0.3557  0.1403
14514W        W29645   4.278  11.521   4.192  0.1916 -0.2866 -0.0870
14515W        W29646   3.017  16.169  10.340  0.2562  0.1829 -0.0945
14516W        W29647   3.246   6.391   4.611 -0.0821 -0.0060 -0.3267
14517W        W29648  12.220  11.940   2.773 -0.3695 -0.1325  0.0662
14518W        W29649   4.210   0.898   2.529 -0.1012 -0.1064 -0.1546
14519W        W29650   5.298  16.442   2.183  0.3642 -0.1609  0.0390
14520W        W29651  16.368  12.630  11.398  0.0286  0.0460  0.0693
14521W        W29652  16.251   4.733  14.033  0.2675 -0.0225  0.0740
14522W        W29653   1.953  18.562   4.920  0.1307 -0.2735  0.0375
14523W        W29654  12.967  14.111   4.928 -0.2252  0.3198 -0.1040
14524W        W29655  10.520  16.829  11.112  0.1749  0.0767  0.1924
14525W        W29656  16.275  16.517  12.218 -0.1660 -0.0058  0.2408
14526W        W29657   6.008  16.857   2.147 -0.1367 -0.2421  0.0888
14527W        W29658   9.134   7.403   3.596  0.6145  0.0298 -0.1212
14528W        W29659   2.102   7.490   2.444 -0.1461  0.1879 -0.0360
14529W        W29660   0.193   6.341   1.637 -0.3947  0.0732 -0.1693
14530W        W29661   1.561   9.784   2.248 -0.1929  0.0038 -0.0696
14531W        W29662  15.641   6.658  13.079  0.1744  0.1440  0.1622
14532W        W29663  16.815   7.311   4.619  0.0975  0.0413 -0.0338
14533W        W29664   0.355   5.476  13.374 -0.1332  0.1157  0.2843
14534W        W29665  14.170  16.052  12.858  0.2923  0.3042 -0.2437
14535W        W29666  11.551  10.242   3.134 -0.2907  0.0438  0.0385
14536W        W29667   0.755  11.123   4.097  0.3000 -0.0899 -0.1948
14537W        W29668   1.284   4.384  12.798  0.1641  0.0612 -0.0904
14538W        W29669   4.700  15.232  13.583 -0.1258  0.1560  0.2111
14539W        W29670   3.705   0.334  13.716  0.4109  0.2066  0.2234
14540W        W29671   5.247  10.248  10.607 -0.0432  0.3898 -0.2011
14541W        W29672  11.679   0.989   2.797 -0.3487  0.2024 -0.0456
14542W        W29673  15.984   6.117  13.712 -0.1540 -0.1316  0.0645
14543W        W29674   5.717   4.760   2.177 -0.2890 -0.0899 -0.0222
14544W        W29675  15.454  17.223   3.737 -0.3096  0.0020 -0.0463
14545W        W29676   0.208   7.975  11.159  0.0319  0.3613 -0.2222
14546W        W29677   3.206   5.894  12.257 -0.1147  0.0158  0.0268
14547W        W29678   1.478   5.325   5.110  0.4061 -0.1226  0.2527
14548W        W29679   7.235   4.207   0.958  0.0544  0.0412  0.1220
14549W        W29680  14.414  17.892   3.241  0.3893  0.2359  0.1626
14550W        W29681   5.071  11.949   4.021  0.0354  0.1056  0.1078
14551W        W29682   6.551   8.055  15.079 -0.0712 -0.0059 -0.0975
14552W        W29683   5.850   7.082   3.074 -0.1011 -0.0368 -0.0391
14553W        W29684   9.968  17.864  11.515 -0.1018  0.3900 -0.1308
14554W        W29685   4.752  16.372  12.746 -0.5813 -0.2967  0.0478
14555W        W29686   6.808   4.641   4.220  0.0314  0.4009 -0.0295
14556W        W29687   6.140   9.392   3.448 -0.2383  0.1817 -0.1692
14557W        W29688   7.699  11.123   1.754 -0.0848  0.1316  0.0173
14558W        W29689  12.431  14.064  14.242 -0.2159 -0.1079  0.4481
14559W        W29690  13.864  10.679  14.530 -0.0192  0.1194  0.1241
14560W        W29691   7.338  18.286   9.406 -0.1047 -0.0972  0.0106
14561W        W29692  11.566   5.572   4.550  0.1427  0.0580  0.0750
14562W        W29693   7.018   4.970   9.638  0.2026 -0.2255  0.1760
14563W        W29694  14.773   8.000  12.167  0.0473  0.0666  0.1096
14564W        W29695   3.965   9.152   2.761 -0.2059  0.1289  0.0440
14565W        W29696   6.657   3.128   3.889  0.1198 -0.2677 -0.1969
14566W        W29697  11.871   1.380  13.970  0.4334  0.0728  0.0299
14567W        W29698  13.586   7.881  13.191 -0.1730 -0.0106 -0.1111
14568W        W29699  15.511  15.853  12.504  0.1732 -0.2065 -0.0365
14569W        W29700  18.402  14.443   5.678 -0.2654 -0.1083  0.2633
14570W        W29701  10.326  12.764   4.330 -0.3318 -0.3646 -0.0065
14571W        W29702  12.716   2.814   2.301  0.1563 -0.0333  0.1052
14572W        W29703   3.648   2.288   1.503 -0.0107 -0.0886 -0.1353
14573W        W29704   4.227   1.961  11.370 -0.0403 -0.2554  0.0699
14574W        W29705   5.023   4.842   4.791  0.0786 -0.2161  0.1159
14575W        W29706  17.567  13.877  11.824  0.0588  0.0541  0.0901
14576W        W29707  13.262  16.735   1.708 -0.1128  0.3886 -0.1523
14577W        W29708   9.131   5.777   2.982  0.2212  0.3839 -0.1014
14578W        W29709   4.487  10.355  14.002  0.2546 -0.0337  0.0019
14579W        W29710  15.498   8.294  14.650 -0.0421  0.0532  0.1557
14580W        W29711  16.120  13.253  14.161 -0.2971 -0.2852 -0.2103
14581W        W29712  13.793   3.898   4.701 -0.1540  0.0621 -0.0716
14582W        W29713  15.674  10.692   2.844 -0.2902 -0.0850  0.2224
14583W        W29714   7.421   1.382   1.270 -0.0857 -0.1184  0.1130
14584W        W29715  16.998   1.685  15.439  0.2661  0.0602  0.0575
14585W        W29716  10.683  16.071  13.766 -0.0786 -0.3799 -0.0502
14586W        W29717   5.165  10.357   3.564 -0.2239 -0.1362  0.2273
14587W        W29718   5.910   1.278   1.058  0.1057  0.0544  0.3445
14588W        W29719  18.363   1.146   0.135  0.0156  0.2774  0.1504
14589W        W29720   3.679   8.715   0.460 -0.3029 -0.0076  0.0672
14590W        W29721   0.333  16.601  14.514  0.0586  0.0911 -0.0042
14591W        W29722  17.144  17.441  11.564 -0.1361 -0.5053  0.0114
14592W        W29723  11.269  12.453   5.254  0.2516 -0.4012  0.1416
14593W        W29724   8.036   8.715  13.912 -0.3332 -0.0429 -0.2579
14594W        W29725  16.036   5.277   1.643  0.1552 -0.2987 -0.2101
14595W        W29726   4.353  17.824   1.890  0.2487  0.0669  0.2099
14596W        W29727   6.714  16.030   5.089  0.2034 -0.0786  0.1592
14597W        W29728  17.185  10.664   1.450  0.3123 -0.1562  0.4878
14598W        W29729   7.058  17.973  14.000 -0.2910 -0.3982  0.1214
14599W        W29730  17.865   5.177   3.379 -0.1265  0.1688  0.1793
14600W        W29731   3.405   3.228  14.162  0.0898 -0.0880  0.0194
14601W        W29732   4.045   0.184   5.670 -0.0882  0.0189  0.3254
14602W        W29733  16.677  16.669   2.095  0.1544  0.0606  0.3338
14603W        W29734   8.482   8.241  12.679 -0.0779 -0.1784 -0.1000
14604W        W29735   6.281   7.341   1.203 -0.0124  0.0934 -0.0719
14605W        W29736   0.106  14.561  13.200 -0.1089  0.0624 -0.0696
14606W        W29737   5.240  11.243  11.349 -0.0488 -0.0383 -0.1469
14607W        W29738  15.996   0.674  12.653  0.2289  0.1057 -0.1421
14608W        W29739   7.773   4.801   0.875 -0.0479  0.1141 -0.0500
14609W        W29740  10.428  15.237   5.608  0.2063 -0.1498 -0.2588
14610W        W29741   6.656   1.338  12.716  0.0201 -0.0136  0.2023
14611W        W29742   1.086  13.247   4.026  0.0754 -0.0558  0.2206
14612W        W29743   0.270   1.242  10.342  0.1638 -0.1198  0.3309
14613W        W29744   2.885  18.720   1.255 -0.1678 -0.1553  0.0685
14614W        W29745  12.618   5.119   2.500 -0.0478  0.1806 -0.1205
14615W        W29746   1.630  13.389  11.540  0.1000 -0.0801  0.3367
14616W        W29747   3.890  11.385  11.596 -0.1372  0.1051 -0.1223
14617W        W29748  18.534   8.218   0.616 -0.1049  0.0637  0.1437
14618W        W29749   7.442  17.794  11.318 -0.0110  0.0013  0.6633
14619W        W29750   9.214   4.456   3.362  0.2920  0.1486  0.2029
14620W        W29751   4.376  14.910  13.742 -0.2426 -0.1349  0.5957
14621W        W29752   0.260  15.011  12.454 -0.2370  0.1240  0.0535
14622W        W29753   4.157  14.835   4.115  0.0273 -0.0379 -0.0282
14623W        W29754   9.008   0.149  11.118  0.0465  0.0523  0.0774
14624W        W29755   4.039   1.012  13.590  0.1108 -0.2854  0.1834
14625W        W29756  10.850   9.520  10.611 -0.3038 -0.0217 -0.0458
14626W        W29757   1.012  14.546   4.561  0.1353 -0.0301 -0.1049
14627W        W29758  18.107   0.270  14.681  0.2840 -0.1351  0.0755
14628W        W29759  16.181  13.217  13.609 -0.2994 -0.0701 -0.1177
14629W        W29760   9.592   8.348   3.221  0.1251 -0.2003  0.2201
14630W        W29761   9.717  12.432   5.002 -0.2154  0.2564 -0.1399
14631W        W29762  10.743   3.697   4.337  0.2880 -0.0390  0.2533
14632W        W29763  10.643   8.899  12.208  0.0760  0.1434  0.1468
14633W        W29764   2.280   8.240   3.435 -0.3688 -0.1039  0.0734
14634W        W29765  11.635   6.270   4.385  0.1772 -0.0327  0.1925
14635W        W29766   4.181   0.027  11.391  0.2321  0.2743  0.0014
14636W        W29767   8.704   0.864   0.345 -0.0022  0.2591  0.0850
14637W        W29768   1.669   6.403  12.698 -0.0124 -0.3242  0.1770
14638W        W29769   2.277  14.243   1.721  0.4586 -0.0347  0.4555
14639W        W29770  16.894  12.085  13.670 -0.0618 -0.0423  0.0486
14640W        W29771   4.731   4.309   5.857 -0.0235  0.3366  0.2038
14641W        W29772  16.149   5.322  10.809  0.4613  0.0483 -0.2681
14642W        W29773   2.231  17.421   0.351  0.0809 -0.1184 -0.0530
14643W        W29774   4.497  13.869   1.172 -0.0184 -0.2396 -0.1612
14644W        W29775  12.840  12.502  10.999 -0.0410  0.4021 -0.2742
14645W        W29776  15.838   3.449  15.675 -0.1666  0.0146 -0.3482
14646W        W29777   0.838   4.390  15.050  0.3433  0.0483 -0.2235
14647W        W29778   9.796  11.988  13.718 -0.2508 -0.0146 -0.0884
14648W        W29779   0.750  16.804  13.214 -0.1821  0.2351  0.3848
14649W        W29780   2.251   2.609   0.978  0.1716  0.1072  0.1738
14650W        W29781  12.083   6.906  13.134  0.0737 -0.0824 -0.0144
14651W        W29782   3.083   6.028  14.439  0.0631 -0.2850 -0.1146
14652W        W29783   0.115   7.172  13.656  0.0633 -0.2937  0.0606
14653W        W29784  11.015   9.842  12.268 -0.1970 -0.0269 -0.0887
14654W        W29785   5.995  11.496  15.391  0.1213 -0.0357 -0.2135
14655W        W29786  10.897  13.969   6.022  0.0447  0.0301  0.2762
14656W        W29787   7.497  15.861   3.044 -0.2952 -0.0719  0.2169
14657W        W29788  10.243   2.798   0.915 -0.1261  0.0633  0.2716
14658W        W29789  14.220  14.432   2.913 -0.0007  0.2426  0.4808
14659W        W29790  15.518  18.074   0.471  0.3545  0.1920  0.0130
14660W        W29791  16.683  15.478   4.518  0.3549  0.2399 -0.0601
14661W        W29792   5.693   9.811   0.501  0.1351 -0.0550  0.3078
14662W        W29793   7.818   0.614  12.607 -0.2144  0.3047  0.2310
14663W        W29794   7.523   1.019  12.386  0.1721 -0.0695 -0.1637
14664W        W29795   1.795   6.120   5.177  0.3350 -0.0000 -0.2014
14665W        W29796   2.634  12.482   2.202 -0.0994  0.0582  0.1811
14666W        W29797   3.890  11.501  12.838 -0.0423  0.1109 -0.1253
14667W        W29798   6.947  17.780  12.953 -0.1297  0.2485  0.3143
14668W        W29799   0.335   9.410  10.658 -0.0564 -0.0414 -0.0885
14669W        W29800   7.861  16.088   3.750 -0.2072  0.1740 -0.1351
14670W        W29801  14.358  18.494   5.958  0.0163  0.0192 -0.0034
14671W        W29802  17.899   9.575   3.868  0.3020 -0.0185 -0.3205
14672W        W29803  12.517  13.979  10.625 -0.0462  0.2940 -0.0617
14673W        W29804  17.591  17.731   2.252  0.1863 -0.2522 -0.5915
14674W        W29805  12.117  16.511  13.814  0.1106 -0.5107 -0.0516
14675W        W29806   9.871  11.129  10.953 -0.0354  0.0838 -0.0958
14676W        W29807  18.724  12.004   2.565  0.1397  0.1861 -0.0005
14677W        W29808   4.836  15.817   4.526  0.2649  0.4689 -0.2920
14678W        W29809   9.202  17.423  12.693  0.0634  0.1924  0.2496
14679W        W29810   6.659   2.503   4.178  0.0913 -0.0930  0.0942
14680W        W29811  12.489   4.774  15.049  0.0921 -0.0632 -0.0391
14681W        W29812   5.499   8.619   5.514  0.0566  0.2241 -0.0936
14682W        W29813   4.161  17.826   2.688  0.0280 -0.0969 -0.0295
14683W        W29814   9.504  13.482   1.430  0.0428  0.2755 -0.0846
14684W        W29815   8.672  13.898   3.582  0.0659 -0.4188  0.2906
14685W        W29816  12.762   4.766  10.989  0.2061  0.2096  0.0196
14686W        W29817  18.446  17.196  11.229  0.1695 -0.3287  0.1418
14687W        W29818  16.596   9.271  10.946 -0.1445  0.0948  0.2817
14688W        W29819   2.747   6.621   2.200  0.1203  0.0482 -0.0253
14689W        W29820   7.683   7.130   0.389 -0.1808  0.0330  0.1220
14690W        W29821   5.778   9.660   5.455 -0.2233 -0.0804  0.1019
14691W        W29822   3.706   4.263  10.845  0.0428  0.1708 -0.2841
14692W        W29823  12.857   6.365   2.339  0.2387 -0.0131 -0.0743
14693W        W29824   1.840   2.168  11.695  0.3780 -0.0259 -0.1026
14694W        W29825   4.138   1.227   0.657 -0.0334 -0.1260 -0.1683
14695W        W29826   4.266   2.486   5.417 -0.3013 -0.2304  0.1418
14696W        W29827  12.999   8.012   2.602  0.2329  0.0057 -0.0923
14697W        W29828  15.329   4.194  13.908 -0.0380 -0.2239  0.2783
14698W        W29829  11.602  14.543  14.287  0.1772 -0.0316  0.0733
14699W        W29830   2.954  18.468   2.334  0.1586 -0.1212 -0.1915
14700W        W29831  10.826   4.529   3.415 -0.2627 -0.0215 -0.5757
14701W        W29832  17.085  13.492   3.833 -0.2830  0.4293  0.2466
14702W        W29833   4.086  15.323  12.919 -0.4114 -0.0856  0.2357
14703W        W29834  14.091  12.691  10.190  0.1867  0.2041  0.1899
14704W        W29835   9.418   0.184  15.179  0.0609 -0.0856  0.3247
14705W        W29836  16.783   7.018   0.279  0.0996  0.1797 -0.2401
14706W        W29837   9.719   7.751   0.019  0.1925 -0.3895 -0.1027
14707W        W29838   9.041   9.182  11.496  0.0108 -0.1255 -0.2251
14708W        W29839   1.718   9.204   3.864  0.2253  0.6297  0.2528
14709W        W29840   4.155  10.949  13.162  0.3514 -0.3450  0.2340
14710W        W29841  11.530   5.068  14.544 -0.2253  0.0501  0.0498
14711W        W29842   8.945  13.222   2.599 -0.3201 -0.4376 -0.2005
14712W        W29843   7.909  13.935  15.227 -0.1737 -0.1997 -0.0002
14713W        W29844   3.240  14.730   0.044 -0.1383 -0.0517 -0.1047
14714W        W29845   6.242   2.562   2.390 -0.0200 -0.4223 -0.1418
14715W        W29846   8.905  14.009   3.076  0.2039  0.0253 -0.0097
14716W        W29847   5.946   1.285   3.446  0.1352 -0.1933 -0.3800
14717W        W29848  13.948  12.711   4.837  0.0600  0.2723 -0.1047
14718W        W29849   3.107  10.035   0.447 -0.0126 -0.2383  0.0083
14719W        W29850   9.494   9.678   4.317 -0.0131 -0.2936  0.1936
14720W        W29851  11.148   4.200  12.010  0.0567  0.2460 -0.0214
14721W        W29852  15.564  11.314   4.856 -0.3373 -0.3237  0.0731
14722W        W29853  11.890   4.871   5.745 -0.1966 -0.0133 -0.2097
14723W        W29854   7.452   9.960   2.510 -0.2087 -0.1190 -0.1387
14724W        W29855  17.853  18.635  12.188  0.0198  0.1791 -0.3215
14725W        W29856  17.339  12.203  15.052  0.0545 -0.1043 -0.1530
14726W        W29857   7.762  12.063  10.433  0.2053 -0.2550 -0.1036
14727W        W29858  10.212  11.954   0.965 -0.0742 -0.3659 -0.1870
14728W        W29859   8.034  17.074  14.524 -0.4704 -0.2890 -0.0891
14729W        W29860   4.972   1.629   0.778  0.1046  0.1625  0.2365
14730W        W29861   6.289  12.420   4.525 -0.0219  0.0112 -0.1948
14731W        W29862  12.980   1.399   3.444  0.0416  0.0995  0.0019
14732W        W29863   0.523   4.519  13.433  0.0859  0.2829  0.0642
14733W        W29864  16.870  10.444   1.759 -0.2994  0.2107 -0.0006
14734W        W29865   1.611  12.947   1.986  0.1413 -0.2668  0.2150
14735W        W29866   9.931  14.754  10.754 -0.1236  0.2244 -0.0859
14736W        W29867   8.786  15.201   1.531 -0.1245  0.4132 -0.3511
14737W        W29868   8.250  16.567  11.118 -0.1507  0.1742 -0.0447
14738W        W29869  18.439  12.991  11.794 -0.0130  0.3404 -0.4595
14739W        W29870   4.281   8.599   4.676  0.0463 -0.4474 -0.1525
14740W        W29871  17.242  17.856  11.276  0.2162  0.4543  0.0877
14741W        W29872   2.866   9.961   2.838  0.0622 -0.3497  0.1544
14742W        W29873   6.487   1.469   5.722  0.2275 -0.0039  0.1991
14743W        W29874  11.896  10.456   3.480 -0.0884 -0.0243  0.0584
14744W        W29875   6.173  16.881   2.690  0.3100  0.1819 -0.2461
14745W        W29876  12.279  15.063  14.249  0.2079 -0.0387  0.1266
14746W        W29877  14.451  11.780  12.239  0.0013 -0.0915 -0.1539
14747W        W29878   0.995  17.796   4.680 -0.0943  0.3157 -0.1131
14748W        W29879   0.203   9.381  13.303  0.1209  0.2112  0.0441
14749W        W29880   0.824   7.126  14.454 -0.2136  0.2963 -0.0188
14750W        W29881  14.522  15.865  10.699  0.1639 -0.0842  0.1393
14751W        W29882  16.474  17.805   6.257  0.0824 -0.1134 -0.1597
14752W        W29883   0.749  16.362  10.636  0.0587  0.1329  0.4509
14753W        W29884  10.743  16.472   4.169  0.2191 -0.0685 -0.0412
14754W        W29885   6.991   5.879  15.762 -0.1071 -0.1987  0.0743
14755W        W29886  13.841  18.116  11.816  0.1090  0.1120  0.1379
14756W        W29887   7.954  10.155  12.551 -0.1689  0.1403 -0.2251
14757W        W29888   4.971   8.829  10.442 -0.2815  0.0350 -0.1148
14758W        W29889   4.948   2.991  12.075  0.0746 -0.1539  0.3264
14759W        W29890  16.560  12.919  12.205 -0.2927 -0.1764 -0.0307
14760W        W29891   3.329  18.106   3.328 -0.1813 -0.0643  0.0164
14761W        W29892  14.210   0.515  12.679  0.0166  0.0366  0.4119
14762W        W29893   9.674  17.044   5.698 -0.2756  0.3919  0.3271
14763W        W29894  15.626  13.407  14.102  0.1431 -0.0646  0.2164
14764W        W29895   8.234  12.270   4.126  0.2238 -0.1121 -0.0209
14765W        W29896   5.264   7.838   1.399 -0.2157 -0.2351  0.0274
14766W        W29897   8.212  16.116  12.433 -0.1540  0.2085 -0.2670
14767W        W29898   4.779  14.697  12.583 -0.1577 -0.0930 -0.0072
14768W        W29899   1.563  14.023  13.567  0.0479  0.0325  0.1382
14769W        W29900  13.003  17.394   1.029  0.2623 -0.0791 -0.5980
14770W        W29901  13.147  13.901  15.231 -0.2853 -0.1895 -0.0280
14771W        W29902   4.089  18.198  15.055  0.1343  0.1785 -0.2722
14772W        W29903  18.668   2.225   1.800 -0.2226 -0.3516 -0.0173
14773W        W29904  12.684   3.198   4.236 -0.1170 -0.3763 -0.2073
14774W        W29905   4.956  17.866   4.443  0.0839  0.0438 -0.0209
14775W        W29906   5.236   3.619  10.617 -0.0506  0.0807 -0.0541
14776W        W29907  12.966  11.452  11.094  0.2309 -0.2369 -0.0434
14777W        W29908  16.662  13.977   2.946 -0.0750  0.0226  0.3188
14778W        W29909   5.040  17.719  13.498  0.4059 -0.1150  0.1911
14779W        W29910  18.089   1.234  13.874  0.0398  0.3980  0.2069
14780W        W29911  16.517   5.160  14.314 -0.4065 -0.1669 -0.1545
14781W        W29912  13.203   2.971   2.329 -0.1064 -0.2378  0.2597
14782W        W29913  17.924   2.639  15.460  0.1727 -0.2456 -0.2370
14783W        W29914  10.400  17.890   3.864  0.5686 -0.0614 -0.1692
14784W        W29915  12.865  11.452   2.114 -0.2294 -0.0601  0.0609
14785W        W29916  10.319   0.553   5.594 -0.1469 -0.0220  0.0190
14786W        W29917  18.096   0.587   3.322  0.2164 -0.5316  0.0996
14787W        W29918  11.689  15.901   4.582  0.0932 -0.2232  0.0558
14788W        W29919   1.429   8.959   2.577 -0.0045 -0.0863  0.0836
14789W        W29920   2.425  12.389   1.536  0.0027 -0.3048 -0.0599
14790W        W29921   5.252  11.271   3.044 -0.2320  0.0132 -0.2474
14791W        W29922   5.221   1.234  11.174  0.0975  0.0478 -0.0144
14792W        W29923   9.125  14.757   5.189 -0.0439 -0.1993 -0.0695
14793W        W29924   4.221   8.795   1.843  0.2023  0.0470  0.0782
14794W        W29925   9.495   0.551   2.551 -0.0011  0.0730 -0.2900
14795W        W29926   2.179  11.104   5.545  0.0449  0.3424  0.1589
14796W        W29927   8.765  12.972   4.365 -0.0151 -0.3384 -0.1053
14797W        W29928  13.555   6.608   1.165 -0.4526 -0.1461  0.0844
14798W        W29929  13.935   6.754  11.974 -0.0556 -0.4105 -0.2082
14799W        W29930  13.976   2.288   3.916 -0.0850 -0.1934  0.0607
14800W        W29931  13.264  15.744  11.715  0.1243 -0.0538 -0.1357
14801W        W29932   9.348  11.859  15.233 -0.0854 -0.2122 -0.2422
14802W        W29933  15.520   0.327  12.719  0.2949 -0.1228  0.1911
14803W        W29934  17.344   1.008  11.817  0.1210 -0.2308 -0.0263
14804W        W29935   8.776  18.307  14.452  0.2119  0.1523  0.1648
14805W        W29936  17.660   4.822  11.120 -0.0239  0.0835  0.1491
14806W        W29937   7.794  12.760   3.375  0.4945  0.0141  0.0152
14807W        W29938  16.443   2.697  12.114  0.2999 -0.0661  0.0454
14808W        W29939   2.704   6.627  10.274 -0.1173  0.0893 -0.1879
14809W        W29940  12.531   0.894   2.108 -0.0392 -0.2059  0.4280
14810W        W29941   5.946   8.444   1.139  0.1458 -0.2577 -0.0231
14811W        W29942  15.376   8.509   3.882 -0.2292 -0.0576  0.1391
14812W        W29943   7.947   8.246   0.246 -0.4014 -0.0723 -0.3438
14813W        W29944   2.091  17.339  13.232 -0.3909  0.0123  0.1672
14814W        W29945   3.487   8.030  14.416 -0.1515  0.0465  0.0829
14815W        W29946   3.301  17.091  14.807 -0.1919  0.1434  0.0297
14816W        W29947  10.600  16.700   0.607  0.1411  0.0222 -0.2140
14817W        W29948   0.402   1.952   4.562 -0.1079  0.1554 -0.0444
14818W        W29949   6.909   8.791   3.134 -0.0342  0.1222  0.1040
14819W        W29950  14.173  16.359  10.785 -0.0144  0.1249  0.2457
14820W        W29951  18.625   1.491  11.491  0.0904 -0.1753 -0.0106
14821W        W29952  16.478  14.438   3.080 -0.0632 -0.1541  0.1200
14822W        W29953   8.879   4.384   0.009 -0.1658 -0.0876  0.0565
14823W        W29954   6.660  18.541  11.556  0.3699  0.0346 -0.2991
14824W        W29955   0.964  15.016  14.701 -0.1786 -0.1537 -0.1027
14825W        W29956  15.335   2.748   5.132  0.0137 -0.1025  0.3081
14826W        W29957  18.341   9.241   1.915 -0.2394  0.0172 -0.2672
14827W        W29958  18.674  15.524  14.439 -0.0748  0.0374 -0.1391
14828W        W29959   3.302   8.033  13.904  0.3157  0.2565  0.0106
14829W        W29960   2.531   0.301   4.178  0.0918  0.1009  0.1485
14830W        W29961  12.355   0.700   3.663  0.1367 -0.2767  0.2880
14831W        W29962   2.218   3.592   4.286 -0.1937  0.3564 -0.2316
14832W        W29963   7.200   1.038   0.554 -0.0355  0.0892 -0.1915
14833W        W29964   5.071   0.316  12.411 -0.1337  0.3439 -0.2104
14834W        W29965   4.341  18.251   3.037  0.1391 -0.0086  0.2133
14835W        W29966   8.792   7.771   0.305 -0.0759  0.3961 -0.0353
14836W        W29967   4.472  18.721   4.223 -0.2163  0.0903 -0.2670
14837W        W29968  11.120  15.614  14.938  0.0855  0.0654  0.0739
14838W        W29969   0.226   9.539  12.226 -0.0153 -0.0184 -0.1092
14839W        W29970   4.269  14.570  15.547  0.0166  0.4280  0.0258
14840W        W29971   9.271   4.802   9.740  0.0282 -0.0993 -0.4439
14841W        W29972   0.284  15.045  13.075  0.0620 -0.0078 -0.1327
14842W        W29973   5.155   9.395   3.668  0.1617  0.0231 -0.0012
14843W        W29974   1.872  13.681  15.247  0.4108 -0.4886 -0.1937
14844W        W29975   2.408  14.534  15.742  0.3009  0.1219  0.0115
14845W        W29976   2.967   4.937   1.321 -0.1727  0.3190 -0.5202
14846W        W29977   5.791   3.587   1.118  0.3037  0.0183  0.3470
14847W        W29978  15.572   4.084   0.504 -0.2985  0.0163 -0.3299
14848W        W29979   0.717  16.751   3.075  0.2204  0.3275 -0.1006
14849W        W29980  17.600   3.251  10.970 -0.3185  0.1011  0.0187
14850W        W29981   7.388   2.889  10.082 -0.2937 -0.2178 -0.1411
14851W        W29982   3.132   5.961   4.172 -0.3931 -0.1136 -0.1464
14852W        W29983  18.147   4.432  10.484 -0.3129  0.1284 -0.1050
14853W        W29984  10.758  16.437  15.110  0.0162  0.3467 -0.2046
14854W        W29985   7.977  17.625  13.233 -0.1876  0.2077 -0.2096
14855W        W29986   9.724   3.166  14.529  0.0076 -0.0083 -0.1195
14856W        W29987   5.801  13.832  11.963 -0.0605  0.1140 -0.2822
14857W        W29988  12.505   8.117   5.000  0.0762 -0.2444 -0.1304
14858W        W29989   6.559  18.479  14.458 -0.1141 -0.2126 -0.1825
14859W        W29990  15.916   6.255   0.308 -0.0923 -0.0040  0.0585
14860W        W29991  13.023  15.626   3.520  0.1746  0.1664  0.4529
14861W        W29992   7.392   7.922  15.387  0.1963 -0.1772  0.0488
14862W        W29993   9.165   3.034   3.039 -0.0514  0.0484 -0.0089
14863W        W29994  13.652  18.355   0.721  0.1309  0.2759 -0.1705
14864W        W29995   4.772   5.007  14.624 -0.0097 -0.0551 -0.2660
14865W        W29996  11.661   0.430   2.502  0.0333  0.2363 -0.0306
14866W        W29997  13.304  17.138  15.371 -0.0180  0.0867  0.0249
14867W        W29998   4.518  14.180  11.373  0.3296  0.0557  0.1433
14868W        W29999   4.708  18.301   4.105  0.1907 -0.1322  0.0880
14869W        W30000   8.872  11.881  14.246  0.2093 -0.0723 -0.2139
14870W        W30001  12.796   3.958  14.396 -0.0048 -0.0917  0.1225
14871W        W30002  13.693   3.444  12.082 -0.0202  0.1412 -0.1899
14872W        W30003  16.346  11.478   0.736 -0.0920  0.1415 -0.1632
14873W        W30004  11.533  16.176   2.096 -0.0604  0.1955  0.0221
14874W        W30005   7.273  14.523   3.199 -0.2419 -0.0048  0.2092
14875W        W30006   8.471   6.738   3.891 -0.0646 -0.0894 -0.1090
14876W        W30007   5.811   4.898  13.997  0.1505 -0.2667 -0.2611
14877W        W30008   1.150   8.016  10.897 -0.1531  0.0281 -0.1331
14878W        W30009  17.142   1.664  11.739  0.1919  0.0014 -0.1482
14879W        W30010   0.327  11.699   4.555  0.0170  0.0301 -0.1885
14880W        W30011  12.701   3.897  15.002 -0.0253  0.2722 -0.2575
14881W        W30012  18.618  15.279  11.780  0.0548  0.1715 -0.5363
14882W        W30013   8.225   4.587  11.051  0.2827 -0.0978 -0.1811
14883W        W30014   1.203   4.740   0.968 -0.1289  0.3399 -0.0116
14884W        W30015  16.487  15.628  15.567  0.1000 -0.3059 -0.1623
14885W        W30016  13.322  15.477   1.886  0.0329 -0.1233  0.1166
14886W        W30017   2.516  18.203   3.244 -0.0908 -0.0371 -0.3249
14887W        W30018   0.004  17.606   5.897 -0.0974  0.2540 -0.2280
14888W        W30019   5.596   5.373  11.613 -0.3816  0.1079  0.1132
14889W        W30020   1.221   9.230   1.165  0.2400  0.0402 -0.0073
14890W        W30021  17.064   2.605   1.879  0.1297 -0.0112  0.0141
14891W        W30022  15.174   7.612   0.473  0.2806 -0.2816 -0.3082
14892W        W30023  14.756   2.314  14.393  0.4119 -0.3641 -0.2453
14893W        W30024  11.315   0.675   2.752 -0.0518  0.1086  0.0531
14894W        W30025  11.036   2.133  14.561 -0.1385 -0.0105 -0.0709
14895W        W30026  15.336  18.323  12.237  0.5468 -0.2636 -0.0988
14896W        W30027   2.755  15.524   0.639 -0.3389  0.0412  0.1787
14897W        W30028   0.581   0.836   2.413  0.2112  0.0388  0.0552
14898W        W30029  17.229   4.740   5.288  0.0028  0.0778 -0.0577
14899W        W30030  11.395  14.211   1.174  0.4004  0.3517  0.1558
14900W        W30031  14.682   3.887  14.262 -0.0934  0.0285  0.0755
14901W        W30032   5.282   9.982  11.346  0.1324  0.0729  0.0012
14902W        W30033   2.214  13.722   5.708  0.1000 -0.1516 -0.1867
14903W        W30034   5.415  10.061  14.374  0.1453 -0.0295  0.0189
14904W        W30035   3.542   2.578  15.422 -0.3208 -0.2244  0.1890
14905W        W30036  14.765   6.191  15.320 -0.1079 -0.1546 -0.2356
14906W        W30037   4.586   9.273   0.082  0.2732 -0.2451  0.0841
14907W        W30038   4.127   9.696  11.103 -0.0817 -0.3231 -0.0475
14908W        W30039  11.411   0.096  13.836  0.1755 -0.0592  0.1196
14909W        W30040  13.680   4.204  14.848  0.1108 -0.0397  0.0107
14910W        W30041   8.614   1.417  11.028 -0.0346 -0.1620  0.1397
14911W        W30042   1.502  17.030   0.367 -0.2020 -0.2269 -0.0795
14912W        W30043   7.805   7.907  14.337  0.2392  0.1627 -0.0372
14913W        W30044  18.511  10.263   0.547  0.1124  0.1262  0.0321
14914W        W30045   4.541   2.045   1.886  0.0030  0.0898 -0.0475
14915W        W30046  11.698  15.616   3.263 -0.1112  0.1082 -0.1886
14916W        W30047  18.295   8.030   1.169  0.1157  0.4313  0.0090
14917W        W30048   7.812   9.401   4.730  0.2947  0.0554 -0.0313
14918W        W30049  10.504   7.548  13.952 -0.0252 -0.1483 -0.0760
14919W        W30050   2.645   0.193  13.121 -0.1540 -0.1295 -0.1706
14920W        W30051   6.467   3.519   3.697 -0.0966  0.1878  0.2849
14921W        W30052  15.256   9.866   0.471 -0.0619  0.1647 -0.0454
14922W        W30053   0.369  14.651   2.128 -0.3057  0.2378  0.1808
14923W        W30054   1.449   6.233   1.217  0.1313 -0.1282 -0.0928
14924W        W30055   3.540  14.669   1.353  0.1103 -0.2253  0.1929
14925W        W30056   2.596  10.711  13.259 -0.1215 -0.0736 -0.2573
14926W        W30057   1.669   3.868  10.504 -0.0969  0.0978  0.1355
14927W        W30058   3.647   1.408  11.932 -0.1909 -0.2046  0.1103
14928W        W30059   9.261   6.683  14.846  0.0442  0.4714 -0.1552
14929W        W30060  13.571   8.549  12.015 -0.0169  0.2983  0.1670
14930W        W30061   6.722   1.672   5.267 -0.1345  0.0268  0.1319
14931W        W30062  18.147   1.895   1.794 -0.0692 -0.3787  0.2614
14932W        W30063   3.468  13.475  11.755  0.0887  0.1863 -0.0529
14933W        W30064  16.469   2.518  13.907  0.2324  0.0927 -0.1282
14934W        W30065  15.067  13.851  14.987  0.1335  0.0192 -0.0015
14935W        W30066  11.543  11.306  13.137  0.0718  0.1480  0.3656
14936W        W30067   2.829   7.698  15.156  0.1380  0.0814  0.5641
14937W        W30068  13.004   1.747   3.833 -0.1389 -0.0414  0.1539
14938W        W30069   6.336   0.014  12.656  0.0752 -0.1066 -0.3031
14939W        W30070  10.797  10.418   0.124  0.2059  0.2512 -0.1072
14940W        W30071  10.263  13.982  12.064  0.0663  0.3040  0.2499
14941W        W30072   3.315  12.785   1.928 -0.1639 -0.0306 -0.1631
14942W        W30073  12.516   7.480   3.668  0.2164 -0.0845  0.3999
14943W        W30074  10.232   5.124   3.521 -0.4137  0.1756  0.1695
14944W        W30075   0.394  14.586   4.460 -0.2393  0.0202 -0.1963
14945W        W30076  17.276  17.410  14.447 -0.0220  0.0462  0.2682
14946W        W30077   2.964  15.499   1.495 -0.1171  0.0775 -0.2126
14947W        W30078   2.527   5.150  11.765 -0.0698  0.0403 -0.4410
14948W        W30079   4.144   4.480  15.555  0.4186  0.2338 -0.1396
14949W        W30080   6.561   4.904   5.119  0.1272 -0.1237 -0.1462
14950W        W30081  16.781  11.185  11.392 -0.2189  0.1724 -0.1065
14951W        W30082   3.378  11.998   2.566  0.0844  0.1236  0.2401
14952W        W30083  17.526   0.002   6.450 -0.1614 -0.1712 -0.1217
14953W        W30084   4.219   1.364  12.150 -0.0006  0.0532  0.0277
14954W        W30085   4.745  17.502  13.969  0.2186 -0.1947  0.0317
14955W        W30086  12.742   2.216   0.169 -0.0108 -0.0709  0.1369
14956W        W30087  16.943   6.820  11.028  0.2328 -0.2537  0.0956
14957W        W30088  11.592   4.666  14.296 -0.1917 -0.0411 -0.1644
14958W        W30089   0.196  18.116   3.601  0.0527  0.2457  0.2517
14959W        W30090   6.793  11.636  11.067 -0.0550 -0.1206  0.0661
14960W        W30091   1.924   9.339   0.337  0.0138  0.1151  0.1389
14961W        W30092  17.441   8.685  12.776 -0.2406 -0.2881 -0.1717
14962W        W30093   3.781  16.455   3.183  0.4399  0.1663  0.0234
14963W        W30094  17.033   6.523   4.178 -0.0735 -0.1129 -0.1835
14964W        W30095   1.520  10.350   4.753 -0.1976 -0.0999 -0.1113
14965W        W30096  10.609  13.482  14.650 -0.4488 -0.2882 -0.0399
14966W        W30097  12.844   3.638   4.825  0.0786 -0.2082  0.1046
14967W        W30098   5.330  13.477  11.744 -0.0827  0.0385 -0.0626
14968W        W30099   1.023   0.832  14.098 -0.2084 -0.0098 -0.3168
14969W        W30100  14.186   5.518  11.149  0.2441 -0.0096 -0.1022
14970W        W30101   5.207  12.477   2.163 -0.0329  0.1157 -0.0908
14971W        W30102  17.522   7.768   2.907 -0.0821 -0.0473  0.2497
14972W        W30103   4.844  12.153   1.930 -0.0773  0.1200 -0.0591
14973W        W30104   6.474   9.526  12.893  0.2063 -0.0408  0.2106
14974W        W30105  15.960  14.171  13.865  0.2941 -0.1181 -0.0343
14975W        W30106   3.786  17.116  11.567  0.3143 -0.1236  0.2670
14976W        W30107  14.619  11.114  15.085 -0.4365  0.0056 -0.2121
14977W        W30108  15.208  11.888  15.423  0.0969  0.0100  0.0172
14978W        W30109  16.748  16.573  14.037 -0.1737 -0.0583 -0.1180
14979W        W30110   8.083  16.245  12.948 -0.0019 -0.2265  0.2450
14980W        W30111   0.464  16.172  13.715  0.0256 -0.4914  0.2246
14981W        W30112   3.026   9.714  12.594  0.0054  0.0758  0.0404
14982W        W30113   7.265   3.043  12.253 -0.1856 -0.0049  0.3871
14983W        W30114   0.992   7.402  13.135 -0.3892  0.1990  0.0192
14984W        W30115   6.064  14.383   0.463 -0.1331  0.1073  0.2734
14985W        W30116  16.810  12.925   1.504 -0.2259  0.1064 -0.0072
14986W        W30117  10.961  14.989   2.903 -0.2187  0.3555  0.2807
14987W        W30118  17.361  12.609   3.991 -0.3341  0.1801 -0.1765
14988W        W30119   2.001  18.376   1.139  0.2564  0.0609  0.0135
14989W        W30120   5.606  15.005   0.893 -0.0073  0.0206 -0.1889
14990W        W30121  13.593  10.046   1.023  0.2073  0.0506  0.1166
14991W        W30122   9.556  15.418  11.294  0.2001  0.0204 -0.0668
14992W        W30123   8.765   5.340   5.766  0.0139 -0.0482  0.0774
14993W        W30124  13.009   3.308   3.469 -0.1792 -0.1418 -0.0301
14994W        W30125  10.981   5.633  12.795 -0.5155  0.1034 -0.1242
14995W        W30126   6.211   6.790   5.280  0.1427 -0.4463  0.0478
14996W        W30127   4.903   2.992   3.440 -0.3691 -0.0695 -0.1494
14997W        W30128   1.275  15.441  11.171 -0.4600  0.1194 -0.2554
14998W        W30129  10.738   0.655  11.438 -0.1249  0.0500  0.4282
14999W        W30130   3.828  10.081   0.698  0.0780  0.0511  0.0217
15000W        W30131   0.245  17.348  14.465  0.0261  0.0447  0.0420
15001W        W30132  15.499   1.780   5.666  0.3648  0.0848  0.4050
15002W        W30133  11.253  15.574   4.503 -0.1698 -0.0234 -0.0560
15003W        W30134  15.097   0.725  13.303  0.1180  0.0503 -0.3525
15004W        W30135  17.589   3.452   4.900  0.0035 -0.1941 -0.2342
15005W        W30136  16.674   0.789  11.899  0.0226 -0.0965  0.4227
15006W        W30137   1.340  14.828   2.580  0.2250  0.0276 -0.1407
15007W        W30138   8.526   3.318   3.882  0.1116  0.0516 -0.1178
15008W        W30139   2.087  17.281   9.961  0.1020  0.1051 -0.3162
15009W        W30140   6.774   0.455  14.689  0.1489 -0.0537  0.1336
15010W        W30141  15.839  10.401  13.900  0.0170 -0.3217  0.0344
15011W        W30142   3.043  18.353  14.616  0.0114  0.2219  0.0772
15012W        W30143  16.004  12.531  15.679 -0.1854  0.1534 -0.1189
15013W        W30144  12.334   4.674  12.479 -0.1322  0.0137 -0.0324
15014W        W30145   0.381  10.634  10.715  0.0216  0.0301 -0.3652
15015W        W30146   0.103   8.681  11.666  0.0377  0.4656 -0.2282
15016W        W30147   8.279  12.213   0.448  0.1878  0.0851  0.1764
15017W        W30148   7.426  12.435   0.798  0.0117 -0.0710  0.3779
15018W        W30149   3.285  10.974   1.433  0.0831  0.0727  0.1855
15019W        W30150  12.329   2.533   0.171 -0.3797  0.2466 -0.1888
15020W        W30151  13.277  16.532   5.883 -0.0212  0.0735  0.0065
15021W        W30152   7.524   4.574  12.760  0.1738  0.0955 -0.0650
15022W        W30153   2.099  17.206   3.342  0.1706 -0.2419 -0.0632
15023W        W30154   6.712  13.221   0.905 -0.3589  0.3927 -0.2102
15024W        W30155  14.969  16.132   3.675  0.0798 -0.1271  0.1945
15025W        W30156  18.088  15.444  12.184 -0.1152  0.0346 -0.1417
15026W        W30157  13.726   2.925   4.977 -0.0955  0.1913  0.2009
15027W        W30158  13.737   9.190  15.575 -0.0704 -0.1031 -0.0952
15028W        W30159   2.722  15.770   1.135 -0.1329 -0.0518  0.3052
15029W        W30160  13.487   1.492  12.661 -0.3518  0.2143 -0.1442
15030W        W30161   4.749  12.438   3.137  0.2389 -0.1670  0.1021
15031W        W30162   0.014   4.959   3.720  0.1889  0.0167 -0.0545
15032W        W30163   6.857  14.962  11.298  0.1743 -0.0136  0.2943
15033W        W30164  13.492   9.591   1.193  0.1506 -0.1830 -0.0859
15034W        W30165   5.382   1.832   2.220 -0.0877  0.2216 -0.0858
15035W        W30166   3.523   5.871  15.099 -0.2456  0.1450  0.0246
15036W        W30167   0.545  13.707   1.847  0.1058  0.3305  0.0031
15037W        W30168   8.467  13.876   0.696  0.2712  0.2378  0.0743
15038W        W30169   7.304   7.391  12.331  0.0556 -0.0349  0.3701
15039W        W30170  16.189   9.603   5.554 -0.1686  0.1956 -0.3595
15040W        W30171   4.274  11.583   3.382 -0.1481 -0.0843  0.3564
15041W        W30172   2.454   6.892   4.843 -0.0182 -0.0346  0.3992
15042W        W30173  17.374   9.590  14.910  0.1374  0.0517  0.4531
15043W        W30174  11.794   0.774   5.085  0.0991  0.0457  0.2044
15044W        W30175  11.275   1.242   2.735 -0.2699  0.0158  0.3519
15045W        W30176   9.669  17.336  15.515 -0.1384  0.3360 -0.2541
15046W        W30177   1.317   1.178   0.170 -0.0298 -0.3874  0.0467
15047W        W30178   0.947  16.993   3.491 -0.3715  0.2443  0.4662
15048W        W30179   6.829   5.566  12.193  0.1690 -0.2152  0.0679
15049W        W30180   5.122   6.548   0.179  0.1850  0.3566 -0.0129
15050W        W30181   4.630  13.432   9.690  0.0625  0.1870  0.3308
15051W        W30182   8.970  14.754  11.622  0.0187  0.1826 -0.1110
15052W        W30183  10.319  18.530   3.169 -0.2214 -0.0970  0.1761
15053W        W30184  18.473  14.950  13.218 -0.0991 -0.0476  0.1846
15054W        W30185   9.161   8.963  14.677 -0.0535 -0.1760 -0.3097
15055W        W30186  18.152  17.655   5.632  0.2963  0.2324 -0.0762
15056W        W30187   2.313  18.175  10.268 -0.1678  0.1372  0.0279
15057W        W30188   6.954   6.339  12.868  0.1837 -0.1738  0.0990
15058W        W30189  10.338  12.669   3.806 -0.0214 -0.2004  0.2509
15059W        W30190  13.201   5.872  11.141  0.1620  0.1692  0.2152
15060W        W30191   1.461  15.962  11.607 -0.0328 -0.0110  0.1282
15061W        W30192  10.345  13.308   5.305 -0.1747 -0.3756 -0.3069
15062W        W30193   6.043  12.759  14.325 -0.2037 -0.1405 -0.1650
15063W        W30194   9.825   1.395  13.938  0.2016  0.2415 -0.2109
15064W        W30195   5.356  16.812  12.970  0.0047 -0.1003  0.0004
15065W        W30196   7.823  14.248  13.411  0.3670  0.1291 -0.1226
15066W        W30197   5.480  13.714  14.575  0.1451 -0.0105 -0.2575
15067W        W30198  13.197  10.020   1.340 -0.2326 -0.2550 -0.1029
15068W        W30199   7.531  10.162   0.165  0.1053  0.0301 -0.3690
15069W        W30200  17.177   4.321  14.751  0.0685  0.0236 -0.0290
15070W        W30201  10.774  15.341   0.545  0.2121  0.2770 -0.0828
15071W        W30202  12.967   4.133  13.911 -0.0575 -0.2091  0.3521
15072W        W30203   0.889   0.589   3.949  0.2067 -0.0723 -0.1295
15073W        W30204   7.925   2.398  12.611 -0.0556  0.0071 -0.3372
15074W        W30205   0.393   7.811   1.775  0.1657 -0.1705 -0.1461
15075W        W30206  15.317   6.664  14.178 -0.1952  0.0795  0.1288
15076W        W30207  17.614   8.325  10.884  0.2065  0.1197  0.0833
15077W        W30208   5.566  12.560  12.095  0.2709 -0.1467 -0.0194
15078W        W30209  10.508   5.805  15.747  0.2317  0.2088 -0.1825
15079W        W30210  14.531  17.711   2.694  0.0962  0.4126 -0.0213
15080W        W30211   0.284   4.061  13.526  0.0126 -0.2302  0.3061
15081W        W30212   6.371   9.486   4.781 -0.0155  0.2170 -0.0563
15082W        W30213  12.788   0.044   1.647  0.2193 -0.3044 -0.0404
15083W        W30214  14.412  15.593   0.480  0.1028  0.2408 -0.0890
15084W        W30215   0.994   6.226  13.480  0.2520  0.2148  0.1020
15085W        W30216   2.710  18.395  14.247  0.0564 -0.1019  0.1956
15086W        W30217   1.239   6.522   0.359 -0.0010  0.0866 -0.1486
15087W        W30218  11.852  18.287  13.617 -0.1171  0.0659  0.0648
15088W        W30219   5.306  14.598  10.749  0.0412 -0.0968 -0.0589
15089W        W30220  13.468  12.424   0.492  0.1634 -0.0208 -0.1481
15090W        W30221   9.720   4.137   5.783  0.0013  0.0574  0.0474
15091W        W30222  14.239   6.822   3.814 -0.0352 -0.2422  0.0728
15092W        W30223  17.921   3.056   1.057  0.2557  0.0298  0.0452
15093W        W30224   2.732   4.033  12.803 -0.0405  0.1828 -0.0733
15094W        W30225  12.044   4.452   0.881 -0.1013 -0.3322 -0.3789
15095W        W30226   2.898   1.918  15.317  0.1219  0.2195  0.0256
15096W        W30227   9.124   2.160  15.336  0.2136 -0.0728 -0.1529
15097W        W30228  18.568  16.801   1.870 -0.0003 -0.0666  0.0625
15098W        W30229   4.271   1.198  10.669 -0.1747  0.1078  0.0402
15099W        W30230  10.599   3.512  12.728  0.0213  0.0854 -0.1519
15100W        W30231  14.349  12.776  14.435  0.0666  0.0965 -0.1668
15101W        W30232   3.285   1.213   0.028 -0.0356  0.1657 -0.0168
15102W        W30233   7.387   4.208   3.489  0.0172 -0.0492 -0.0949
15103W        W30234   5.759  16.069  13.475  0.2719  0.3876  0.0581
15104W        W30235  11.253  18.422  14.245  0.0947  0.1116  0.1151
15105W        W30236   4.489  14.144  11.836  0.2925 -0.1178 -0.1611
15106W        W30237   3.226  11.936   3.159 -0.2449 -0.0206 -0.1068
15107W        W30238   6.310  14.315  12.721  0.2203  0.1981  0.2591
15108W        W30239   9.411  13.182  11.895 -0.2258 -0.0910 -0.2427
15109W        W30240   2.158   5.142  14.182  0.1079  0.0342  0.1653
15110W        W30241   2.456  10.804   3.044 -0.2628 -0.1534 -0.1480
15111W        W30242  14.949  12.999  12.334  0.0652 -0.0260 -0.3074
15112W        W30243   2.952   2.161  10.792 -0.3213  0.3777 -0.1350
15113W        W30244  15.310   8.115  13.784  0.0947 -0.1083  0.1788
15114W        W30245  18.603   3.079   2.838 -0.1050 -0.0677 -0.2692
15115W        W30246   9.491  18.288  10.112 -0.0694 -0.0641  0.1186
15116W        W30247   5.819   5.035   3.186  0.0183 -0.1880 -0.1131
15117W        W30248  11.606  11.402   3.905  0.2055 -0.0454 -0.1251
15118W        W30249  10.565  10.702  15.496 -0.3095 -0.0607 -0.2713
15119W        W30250   4.735   5.901  14.193  0.2274  0.1562  0.1747
15120W        W30251  10.629  14.474  11.432 -0.0036  0.0022  0.1735
15121W        W30252   9.759   4.411   4.040  0.0731 -0.4321 -0.0832
15122W        W30253   5.450   1.412   3.549 -0.2537  0.1589 -0.0561
15123W        W30254   1.809   9.798  11.770 -0.2588 -0.1948 -0.2033
15124W        W30255  14.920  14.856  14.578  0.1924  0.0440  0.1751
15125W        W30256   3.440  10.432   0.494  0.1207 -0.1942 -0.1119
15126W        W30257   7.299  11.409   4.248 -0.1300  0.0228 -0.0269
15127W        W30258   4.841   7.118  12.574  0.0206  0.0241  0.3697
15128W        W30259  15.831   7.426   1.320  0.0494 -0.2495  0.0797
15129W        W30260   0.636  17.604   5.121  0.1821  0.2245 -0.3004
15130W        W30261  10.656  11.172   2.101 -0.2785  0.2511  0.2808
15131W        W30262  18.142  14.223   3.316 -0.4169 -0.2763 -0.2389
15132W        W30263   6.591  10.743   4.899  0.0910  0.0013 -0.1368
15133W        W30264  10.600  16.373  12.782  0.1563  0.3208 -0.2896
15134W        W30265   3.397   3.430   9.823 -0.0844  0.1965 -0.1423
15135W        W30266  17.826   6.605  15.196  0.1102  0.0798  0.1432
15136W        W30267  13.401  12.209  15.691  0.2871  0.1652  0.1746
15137W        W30268   4.975   4.583   3.423 -0.4121 -0.0429 -0.1559
15138W        W30269   3.897   5.574   5.810  0.0522  0.2348  0.0665
15139W        W30270  10.966  17.820   1.484 -0.1202  0.0348  0.2773
15140W        W30271   1.960  16.182   0.708  0.2122 -0.1757 -0.1832
15141W        W30272  15.832   7.709   3.824  0.4260 -0.1033 -0.1122
15142W        W30273  13.810   3.222   4.121  0.1969 -0.1004 -0.1134
15143W        W30274   5.875   3.532  10.826 -0.1743  0.1388 -0.0504
15144W        W30275  11.801  14.853  12.575 -0.1562 -0.1680  0.1303
15145W        W30276  15.165  15.552  15.697  0.1381  0.0564 -0.0719
15146W        W30277   1.571  15.984   2.941  0.0225  0.1469  0.4342
15147W        W30278  11.678   3.412  12.607 -0.1790 -0.3877 -0.1097
15148W        W30279  12.622  11.094  11.038  0.0498  0.5672  0.0206
15149W        W30280   1.114  13.355  12.689 -0.4868 -0.3486 -0.2970
15150W        W30281  12.640  12.068  11.492  0.1062 -0.1559 -0.3364
15151W        W30282   0.194  15.582  11.702 -0.2828 -0.0807 -0.4653
15152W        W30283   3.582   2.656  11.919  0.0935 -0.1299 -0.0867
15153W        W30284  14.803  11.694   2.833 -0.2267  0.0484 -0.1168
15154W        W30285  16.606   7.223  10.327 -0.4370  0.2366 -0.1781
15155W        W30286   7.980  14.718   1.085  0.0428  0.2001  0.0620
15156W        W30287   5.871  10.615   1.564 -0.0130 -0.2472  0.1347
15157W        W30288  12.035   0.613  10.254  0.0023 -0.1227  0.0979
15158W        W30289  17.828  17.828  15.459  0.0219 -0.0351 -0.0074
15159W        W30290  15.957  12.563   2.609 -0.2967 -0.0455  0.0675
15160W        W30291  18.504  12.573  13.803  0.1273  0.2583 -0.0722
15161W        W30292  12.382   7.058  14.234  0.1526  0.2286  0.0029
15162W        W30293  15.434   4.941  10.529  0.3279 -0.3434  0.0012
15163W        W30294  10.026  18.750  13.641 -0.3159  0.2447  0.2306
15164W        W30295   5.539  13.144   4.871 -0.1581 -0.0546  0.3493
15165W        W30296   6.265  13.084   3.162  0.2050 -0.1480 -0.0596
15166W        W30297   6.516  12.770   1.015 -0.0182 -0.1135  0.1972
15167W        W30298  12.150  13.134  11.155  0.1665  0.1313 -0.1357
15168W        W30299  14.226  10.989  13.605 -0.0330 -0.3687  0.1440
15169W        W30300   1.269  13.106   1.210  0.2915 -0.1152  0.1723
15170W        W30301  16.078   2.884  12.460  0.1935  0.2263  0.0866
15171W        W30302   8.317   5.301   4.235 -0.0728 -0.0554  0.1273
15172W        W30303  10.144   5.083   0.096  0.2805 -0.0611 -0.1126
15173W        W30304   5.027   1.610  11.384  0.0814  0.0802  0.3466
15174W        W30305   6.371  16.109   3.851  0.0478  0.3431  0.1116
15175W        W30306  14.065   9.883   2.931 -0.1627  0.0987 -0.2046
15176W        W30307   1.224   2.860  10.647 -0.0361  0.0027 -0.0809
15177W        W30308  15.216  16.796   4.084 -0.2312 -0.2057 -0.2808
15178W        W30309  16.928  11.966  11.542 -0.4458  0.0900 -0.0674
15179W        W30310  10.389   4.570  14.967 -0.1602  0.1978  0.0144
15180W        W30311  16.680   8.020   0.225  0.1104  0.4143 -0.4370
15181W        W30312   8.532  13.311  12.795 -0.1227 -0.0730 -0.3744
15182W        W30313  13.004  18.428   2.749  0.1131  0.2524  0.0976
15183W        W30314  14.770  17.416  13.239  0.2189  0.1935  0.2034
15184W        W30315  10.883   5.885   3.307  0.1636 -0.0492  0.2331
15185W        W30316  12.559  11.231  13.067 -0.0383 -0.0781  0.3877
15186W        W30317   1.516  16.788   5.082  0.1292 -0.4159 -0.0598
15187W        W30318  12.966   8.629  12.822 -0.0166  0.1853 -0.1669
15188W        W30319  15.811   4.473   2.970  0.1582 -0.0009  0.2518
15189W        W30320  13.965   6.919   2.668  0.0445 -0.2926 -0.0984
15190W        W30321   7.247  13.684   0.145  0.0121 -0.1608  0.0549
15191W        W30322   3.067   6.050  11.019  0.1914  0.2705  0.1982
15192W        W30323   0.221   3.372   3.095  0.2326 -0.1307 -0.2421
15193W        W30324   9.757   6.214   3.867  0.0565 -0.0460 -0.2542
15194W        W30325  18.213   4.182  12.900  0.1360 -0.0571  0.0449
15195W        W30326   2.967   2.966  12.833  0.3313 -0.0135  0.1590
15196W        W30327  15.108   8.695  12.404  0.3072  0.2114  0.0808
15197W        W30328   1.090   9.283   5.769 -0.0164 -0.0489 -0.0204
15198W        W30329   8.226   2.313   3.319 -0.0652  0.0418  0.2765
15199W        W30330   8.588  14.977  12.318 -0.3296  0.5242 -0.0111
15200W        W30331   2.333  15.839   4.826 -0.2759  0.2033  0.0234
15201W        W30332   9.206   2.971   2.471  0.0115  0.1329  0.3715
15202W        W30333  13.016  11.063   2.353 -0.2444  0.0945 -0.2048
15203W        W30334  17.515   4.175   2.930  0.0852  0.2612 -0.3020
15204W        W30335  17.614  11.393   4.811 -0.1136 -0.2826  0.1464
15205W        W30336   0.921   4.218   5.214 -0.0481 -0.3187  0.2066
15206W        W30337   5.142  13.596  15.708  0.1128 -0.1447  0.0154
15207W        W30338   8.030   6.509   2.351  0.1630 -0.4418  0.0495
15208W        W30339  14.848   8.730  10.962 -0.1240  0.0215 -0.0084
15209W        W30340  15.373  17.757   1.892  0.2135 -0.0863  0.0102
15210W        W30341  16.274   9.283  13.337 -0.4280  0.1625 -0.0251
15211W        W30342  18.360  10.179   4.147 -0.5020 -0.2361 -0.0408
15212W        W30343  15.773   9.904   0.665  0.1085 -0.2290  0.1469
15213W        W30344  17.876   8.490  10.285  0.1021 -0.1096  0.3183
15214W        W30345  15.243  10.671  12.439  0.2539  0.2135  0.0736
15215W        W30346  14.880   5.880   4.478  0.2576 -0.4168  0.0316
15216W        W30347   4.173  10.018   0.261  0.0939  0.2173  0.0156
15217W        W30348   7.403   6.665  10.502  0.1196 -0.2302  0.5262
15218W        W30349  13.585   2.652  15.675 -0.0513  0.1252 -0.1108
15219W        W30350  14.887  16.038   2.336 -0.0567 -0.0445  0.0589
15220W        W30351   3.681   8.342  15.433 -0.1438 -0.0883 -0.2190
15221W        W30352   8.792   6.135  14.999 -0.5988  0.1544 -0.0528
15222W        W30353   7.404  10.719   1.492 -0.1312 -0.0224  0.0889
15223W        W30354   4.282   6.453  15.637 -0.1551  0.1534  0.0924
15224W        W30355  13.867  18.557  15.762  0.1658 -0.0196  0.2456
15225W        W30356  14.023   1.278   4.036  0.3972  0.2751 -0.4000
15226W        W30357  11.235   2.623   1.965 -0.1574 -0.3863 -0.0465
15227W        W30358   4.514  16.091   4.318  0.0390 -0.1042 -0.4871
15228W        W30359   7.798   5.002  15.194 -0.1298  0.0063  0.0096
15229W        W30360  18.588   0.453   1.023 -0.1378 -0.3310 -0.1172
15230W        W30361   3.557   6.869   4.708  0.1592 -0.1360  0.4389
15231W        W30362   9.758  16.041  12.956  0.3533 -0.0014  0.4600
15232W        W30363   7.451  13.684   2.011 -0.2838  0.1356 -0.0428
15233W        W30364   2.227   2.904  12.895 -0.0534  0.0172  0.1102
15234W        W30365   6.851  10.022   4.558  0.1900 -0.2624 -0.3832
15235W        W30366   7.701   0.981   0.621 -0.0090 -0.1107 -0.0443
15236W        W30367  13.659   3.771  11.371  0.0244  0.3715 -0.1458
15237W        W30368   0.031  14.540  14.586  0.2560  0.1287  0.1050
15238W        W30369  17.475  16.538   1.720  0.0730 -0.1533  0.3517
15239W        W30370   6.351   6.684   2.897 -0.0720 -0.1986  0.2612
15240W        W30371   7.129   0.483  13.088 -0.5054 -0.0406 -0.0116
15241W        W30372  10.614   2.613  11.906 -0.3149  0.1880  0.0044
15242W        W30373   9.473   7.838   4.172  0.2644  0.1665 -0.1999
15243W        W30374  17.268   2.762   2.919  0.3206 -0.0606  0.1732
15244W        W30375   0.151  15.340   0.713  0.0163  0.5160 -0.1437
15245W        W30376  10.761   3.321  15.719 -0.2558  0.2174 -0.0840
15246W        W30377  17.554   3.632  12.223  0.2334 -0.3340 -0.0351
15247W        W30378   9.605   9.658   4.827 -0.1465 -0.1751  0.1614
15248W        W30379   4.210  14.655  11.431 -0.3705  0.0129 -0.0189
15249W        W30380   3.856   6.172   2.006  0.3044  0.0893 -0.1879
15250W        W30381  14.215   4.963   4.826  0.3124  0.1300  0.0041
15251W        W30382  14.966  14.205  12.957 -0.0184 -0.4488  0.0849
15252W        W30383  18.158  15.998   5.414 -0.2785 -0.0750 -0.1855
15253W        W30384   9.134  12.475   2.938  0.2509  0.1002 -0.0989
15254W        W30385  18.384   2.966  13.959  0.1967 -0.0980 -0.2645
15255W        W30386   1.400   1.033   2.760 -0.0259  0.1889  0.2318
15256W        W30387  16.317   4.144  13.554  0.4719  0.0319  0.0624
15257W        W30388   0.156  11.488  12.125 -0.2640  0.4081  0.0146
15258W        W30389   4.355  16.973  13.339 -0.1333  0.2140  0.0606
15259W        W30390   0.623  13.078   4.138 -0.1759  0.0428 -0.1659
15260W        W30391  12.987   8.329   0.821 -0.1600 -0.2429 -0.2009
15261W        W30392  16.797   2.642  10.736  0.3876 -0.1877  0.1301
15262W        W30393  15.918  12.884  14.803 -0.0684 -0.1831 -0.0208
15263W        W30394   9.972  14.961   0.220  0.1791  0.0297 -0.0004
15264W        W30395  14.918  13.536   4.404  0.3147  0.2794 -0.4609
15265W        W30396   5.243   1.455   5.472 -0.1362 -0.2385  0.0141
15266W        W30397  15.328   9.257   3.906  0.2710  0.2898  0.2163
15267W        W30398   2.925   2.245   4.101  0.0403 -0.1574 -0.1697
15268W        W30399  11.658  18.119   0.746 -0.0378  0.0987  0.0660
15269W        W30400  17.161   6.925   1.125 -0.0914 -0.0547 -0.1718
15270W        W30401  16.403  17.852   1.359 -0.1156  0.2027  0.0400
15271W        W30402  16.740  14.043   1.879  0.2238 -0.0551  0.0578
15272W        W30403  17.567   5.173   2.982  0.1323 -0.0808 -0.0831
15273W        W30404   0.996  18.718  12.902 -0.1316 -0.1033 -0.0989
15274W        W30405   0.290   6.979   2.934  0.0396 -0.2653 -0.2116
15275W        W30406   8.310  17.825   1.694 -0.1078  0.0191 -0.0673
15276W        W30407   1.784   8.833   4.664 -0.0197  0.2703 -0.0097
15277W        W30408  14.051  17.380   2.647 -0.1918 -0.3746  0.2409
15278W        W30409  15.655   9.083   2.759 -0.1505 -0.3428  0.1829
15279W        W30410   5.524  13.718  10.722 -0.0455  0.1250  0.2096
15280W        W30411   6.722   5.445   0.368  0.3276  0.3951 -0.1257
15281W        W30412  11.310  11.190  12.078  0.0809 -0.0325  0.0159
15282W        W30413  16.296   5.332  13.291 -0.0156 -0.1038  0.2568
15283W        W30414  13.587   1.061   3.958 -0.1989 -0.0678  0.0155
15284W        W30415  13.228  15.864  12.759  0.3693 -0.0967 -0.1846
15285W        W30416   5.044  11.977  12.673 -0.2089 -0.2552  0.0563
15286W        W30417   5.262  16.251  13.652 -0.0223  0.0762  0.1849
15287W        W30418  18.270   5.901  14.520 -0.1247  0.3602 -0.2674
15288W        W30419   3.584  18.246  15.400  0.2110 -0.0706 -0.0828
15289W        W30420  11.640   7.403  11.625  0.1735  0.0383 -0.0785
15290W        W30421  15.472   5.459   1.688  0.3144 -0.0303  0.0155
15291W        W30422  14.495   1.178  13.254  0.1754 -0.0660 -0.0361
15292W        W30423   5.692  10.795   5.321  0.0254  0.2857 -0.3923
15293W        W30424   2.629  15.321  11.619 -0.3249  0.1707 -0.3013
15294W        W30425  18.719  12.790  11.453 -0.2949  0.1248  0.0099
15295W        W30426   0.087  12.991  12.142 -0.2061  0.2652  0.3610
15296W        W30427  10.167   1.509   1.847 -0.0312  0.0697 -0.1086
15297W        W30428  11.617   3.294   5.346 -0.0834 -0.0351  0.1328
15298W        W30429   4.177   7.889   0.719 -0.1343  0.0108 -0.2349
15299W        W30430   2.347   4.975  12.697  0.0768  0.2208  0.0221
15300W        W30431   4.949   2.290   5.093  0.1716  0.1491 -0.0114
15301W        W30432  14.861  15.873   1.843  0.0315  0.0492  0.2504
15302W        W30433   9.226  15.067  13.251  0.0147  0.0240 -0.4332
15303W        W30434  14.444  13.666  11.358 -0.0563  0.0078  0.2655
15304W        W30435   6.481  13.873   3.057  0.2340 -0.1532 -0.3673
15305W        W30436  11.722  17.577  14.772 -0.1694 -0.3943  0.2386
15306W        W30437  15.918  11.127  15.753 -0.0418  0.0012  0.1564
15307W        W30438   8.773   8.892   1.175 -0.1145 -0.1248 -0.2547
15308W        W30439   6.519   0.464  14.193 -0.1509  0.0478  0.2576
15309W        W30440   4.641   0.256   4.564  0.1744 -0.2974 -0.0897
15310W        W30441   1.041  12.828   3.356  0.0720 -0.1016  0.5490
15311W        W30442   4.292   8.071  14.880  0.1668  0.0652 -0.2452
15312W        W30443   0.366   1.730  11.306  0.2272  0.4147  0.1680
15313W        W30444  14.316   3.054   2.197  0.0935  0.1777 -0.1722
15314W        W30445   7.594  13.416   0.921  0.0577  0.0806 -0.0157
15315W        W30446  12.158   5.100  12.562  0.3431  0.0294  0.2109
15316W        W30447   6.517   4.077  10.971  0.1568  0.1279  0.0461
15317W        W30448   1.698   3.548   4.336  0.1567  0.1070 -0.0918
15318W        W30449   4.963  17.367   5.147  0.1657  0.2397 -0.0277
15319W        W30450   9.378   1.353  14.647 -0.3242  0.2693 -0.2237
15320W        W30451   4.076  13.990   3.167  0.0103 -0.0977  0.0323
15321W        W30452  17.936   2.050   5.825 -0.2239  0.1409 -0.3462
15322W        W30453  16.916  12.535  10.772 -0.2041 -0.0378  0.3835
15323W        W30454   7.076  11.904   3.057  0.5622  0.1474 -0.0791
15324W        W30455  11.821  15.691  12.791 -0.0546  0.1430 -0.0474
15325W        W30456  12.492   9.796   1.398  0.1260 -0.0026 -0.4106
15326W        W30457   9.007   9.334   4.180 -0.2697 -0.1020 -0.2152
15327W        W30458   7.656  16.377  15.714 -0.1473 -0.0353  0.4261
15328W        W30459   5.238  14.519  12.494  0.2681  0.2622  0.2472
15329W        W30460   8.099   7.609  11.931 -0.0166 -0.2069 -0.2518
15330W        W30461   3.391  18.519  10.339  0.0539  0.1799 -0.3632
15331W        W30462  17.149   2.460   1.430  0.2295  0.3787 -0.1999
15332W        W30463   3.854   1.697   3.123  0.0790  0.0582 -0.1839
15333W        W30464  15.879  12.337   4.120 -0.3299  0.1715  0.0078
15334W        W30465   9.857  13.256   5.398 -0.0343  0.2987 -0.0058
15335W        W30466   4.451  14.934  10.612 -0.0866  0.0813  0.2365
15336W        W30467  14.680   0.532  13.781 -0.2022  0.0599 -0.0081
15337W        W30468   3.007   3.654   0.746 -0.4246  0.2051  0.0166
15338W        W30469   9.256  11.114   2.047 -0.2566 -0.2095  0.4950
15339W        W30470   8.718  12.108  11.959 -0.2072 -0.2091  0.1686
15340W        W30471  12.145  18.722  11.516  0.0331  0.3276  0.1560
15341W        W30472  18.582  14.921   4.293 -0.1425  0.1547  0.1030
15342W        W30473  17.256  17.791   1.365  0.4026  0.0739  0.2140
15343W        W30474   5.563   3.522   3.046  0.1439 -0.3302 -0.1357
15344W        W30475   9.551  13.804   6.213 -0.0636 -0.3468  0.0786
15345W        W30476  12.155   5.135   3.023 -0.1413 -0.1339  0.2250
15346W        W30477   6.403  15.010   1.629  0.0463 -0.2302  0.0123
15347W        W30478   0.713  13.745  15.234  0.3025  0.1192  0.1472
15348W        W30479  15.908   0.199  13.049 -0.1225  0.0561 -0.3735
15349W        W30480   9.955   6.582   0.193  0.0537  0.2160 -0.0889
15350W        W30481  13.024  11.869   3.249 -0.2255 -0.1819  0.1127
15351W        W30482  15.718  16.818  15.483 -0.1343  0.0818 -0.0625
15352W        W30483  10.758  12.834  10.363  0.3639  0.1551 -0.1895
15353W        W30484  15.993   4.005   1.309 -0.1721 -0.0440 -0.3018
15354W        W30485   9.558   4.286   1.424 -0.2086 -0.2190 -0.1301
15355W        W30486   7.369  12.834   5.027  0.1006 -0.0643 -0.1977
15356W        W30487  12.864   6.087  11.506 -0.0137 -0.3707 -0.1516
15357W        W30488  11.177  12.893  13.219  0.1090  0.2498 -0.0993
15358W        W30489  10.686  11.487   2.502 -0.1139 -0.1746  0.0503
15359W        W30490  16.882  17.399   4.677 -0.0031 -0.1095 -0.1385
15360W        W30491  12.968  18.498  14.588 -0.0817 -0.0016  0.0834
15361W        W30492   8.198   6.559  11.861  0.0596 -0.1098  0.3057
15362W        W30493  13.922  15.552   2.374 -0.3016 -0.1621 -0.1158
15363W        W30494  18.403   7.661  10.600 -0.0487  0.1309  0.0932
15364W        W30495  10.142   9.311  14.586 -0.3585 -0.1834  0.3760
15365W        W30496   8.512   3.778   2.909 -0.2332 -0.1111 -0.4220
15366W        W30497   3.803  13.234   5.070 -0.4572  0.2762  0.1262
15367W        W30498  11.048   9.830  11.756  0.3976 -0.0088 -0.2487
15368W        W30499  10.346   7.217   3.606 -0.1129 -0.0996 -0.3369
15369W        W30500   8.027  14.255   4.217 -0.3732  0.3058 -0.1443
15370W        W30501   4.524   8.053   0.387  0.1396 -0.2440  0.1016
15371W        W30502  12.301   9.178   4.369 -0.1992 -0.1351  0.1842
15372W        W30503   4.336   3.833   0.595 -0.0288  0.1610 -0.0309
15373W        W30504  13.641   4.984   5.570  0.0989  0.0244 -0.0708
15374W        W30505  18.665  12.425   3.395 -0.0857  0.1893 -0.1938
15375W        W30506   8.680   4.444   3.232  0.0493 -0.0822 -0.1507
15376W        W30507   8.153   7.435  14.407 -0.0552 -0.0626 -0.1683
15377W        W30508  16.657   2.813  13.134  0.0371  0.0972  0.0601
15378W        W30509  11.661  11.072  10.367 -0.2969 -0.2818 -0.2064
15379W        W30510   7.995   7.310  15.763 -0.1429  0.2275  0.0211
15380W        W30511   8.408  17.722   3.823 -0.2828 -0.4487  0.2820
15381W        W30512   4.580  10.606   4.614  0.0680 -0.0152  0.1246
15382W        W30513   7.014   9.923   1.876 -0.1066 -0.1149  0.2578
15383W        W30514   6.498  18.264   4.095  0.1892  0.3387  0.3492
15384W        W30515   1.636   6.635   0.589 -0.2883 -0.0966  0.0226
15385W        W30516   0.421   4.429   4.472  0.0131  0.0011 -0.1192
15386W        W30517  13.209  17.710  11.169  0.4556  0.1841  0.2596
15387W        W30518   7.115   5.251   2.374 -0.1517 -0.2566 -0.0982
15388W        W30519  13.913   6.127   0.437  0.0738 -0.1011 -0.0329
15389W        W30520   6.315   3.779  14.676 -0.1038 -0.1891  0.2411
15390W        W30521   3.780   7.373  13.272  0.3576 -0.1111 -0.0575
15391W        W30522   9.918  13.057  11.710  0.1218  0.0340  0.0710
15392W        W30523   9.412  13.624  15.440  0.0965 -0.0594 -0.0931
15393W        W30524  16.822  16.433  11.409 -0.2567  0.1170  0.3336
15394W        W30525  12.687   8.471   3.414 -0.1190 -0.2162 -0.0300
15395W        W30526   9.774  15.136  15.002  0.0743  0.0388  0.2123
15396W        W30527  14.172   3.229   3.724  0.0844 -0.1659 -0.0233
15397W        W30528  16.916   3.090  10.069  0.1319 -0.2071  0.0773
15398W        W30529  18.207  18.303   4.835  0.0434 -0.2235 -0.1888
15399W        W30530  14.139   8.342   0.595  0.0022  0.0117 -0.1246
15400W        W30531  13.329   9.994  13.911 -0.2019 -0.1936 -0.2331
15401W        W30532  14.566   9.146   0.783  0.0738 -0.4730  0.1411
15402W        W30533   5.678   9.257  11.306 -0.2144 -0.2212 -0.2232
15403W        W30534   2.665   3.036   2.624  0.0864  0.0055 -0.2883
15404W        W30535  15.723   7.406   2.493 -0.4771  0.1520 -0.2738
15405W        W30536  13.459   2.380   4.344 -0.0497 -0.1079  0.0343
15406W        W30537   3.386   7.096  14.796  0.0991  0.1173 -0.4279
15407W        W30538  12.172   4.954   5.220  0.1410 -0.0974  0.1381
15408W        W30539  17.656  11.351   4.227 -0.0970 -0.3032  0.2938
15409W        W30540   4.365   4.266  13.615 -0.1147 -0.0703 -0.1407
15410W        W30541   1.316  15.648   0.296 -0.0959  0.0039  0.2932
15411W        W30542   6.922   2.715  10.157  0.3989  0.2582 -0.0389
15412W        W30543  17.679  17.194  14.763 -0.4468 -0.1019  0.0893
15413W        W30544  10.228  14.287   5.515 -0.1448 -0.1519 -0.0011
15414W        W30545  18.540  11.100  13.728 -0.2912  0.2898  0.0172
15415W        W30546   9.297  17.270  14.060  0.2942 -0.0385  0.5026
15416W        W30547   9.890   4.169  14.745 -0.4372  0.3160  0.1128
15417W        W30548   9.763  15.266   1.607  0.1669  0.0460  0.1647
15418W        W30549   0.986   1.919  11.853 -0.0908  0.1577 -0.1868
15419W        W30550  11.603  14.182  13.192 -0.2612  0.3315  0.0807
15420W        W30551   3.522  13.028   0.548  0.0490  0.0628 -0.0762
15421W        W30552   6.536   0.870  15.400  0.2447  0.1049  0.1499
15422W        W30553  17.804   9.392  14.882  0.2914  0.2530  0.2002
15423W        W30554   9.197   6.398   2.312 -0.0375  0.1673  0.0560
15424W        W30555  14.264   2.252  15.404 -0.1859  0.3752  0.1544
15425W        W30556   9.551   4.970   2.313  0.1884  0.1317 -0.4688
15426W        W30557  18.611  12.198   1.698  0.2764  0.1091  0.0370
15427W        W30558  11.190  12.502   5.870  0.2364  0.2042  0.0867
15428W        W30559   7.922  11.186  11.517 -0.0709  0.3023 -0.0070
15429W        W30560   6.295   1.566  15.129 -0.0147 -0.0505  0.2863
15430W        W30561   3.766  14.931  12.139  0.0548  0.2438  0.0075
15431W        W30562   6.642  18.190   1.420 -0.0694  0.2971 -0.1921
15432W        W30563   0.330   0.782  11.326  0.1119 -0.1934  0.0894
15433W        W30564  14.051   1.742   3.896 -0.3827  0.0466  0.1571
15434W        W30565  13.354  15.491   1.111 -0.2811 -0.4679  0.1988
15435W        W30566  10.236  10.521   0.105  0.2423 -0.0297  0.0373
15436W        W30567  11.247  11.028   4.877  0.0522 -0.2159 -0.0163
15437W        W30568  14.256   5.146  11.625  0.1161  0.2472  0.2238
15438W        W30569  12.188  10.405  11.855  0.2948  0.0008 -0.0173
15439W        W30570  13.960   3.135  11.026 -0.0001 -0.0090 -0.0484
15440W        W30571  11.010  17.818   2.527  0.1604  0.1795 -0.4037
15441W        W30572   9.949   6.044   2.152  0.3092 -0.0203  0.0277
15442W        W30573  12.148  17.149  13.177  0.0641 -0.1745 -0.1036
15443W        W30574  18.072   4.635  14.569  0.3383  0.0519 -0.0936
15444W        W30575  18.559  15.690  11.350  0.4239  0.0688  0.2391
15445W        W30576  12.488   1.490  13.178 -0.0571 -0.1675 -0.0064
15446W        W30577  16.122  15.568   2.568  0.1161 -0.3327  0.0303
15447W        W30578  18.502   2.699   2.481 -0.2634  0.2231 -0.0975
15448W        W30579  16.779  14.487  10.530 -0.1813  0.1112 -0.3597
15449W        W30580   3.004  14.197  13.348 -0.0491  0.0747  0.0711
15450W        W30581   3.273  16.481   3.690  0.1406  0.1012 -0.3909
15451W        W30582   6.533  11.659  15.137 -0.0355 -0.2339 -0.1738
15452W        W30583  13.613  11.936   4.184 -0.1956  0.2421 -0.1882
15453W        W30584  11.369  12.191  13.188  0.1579  0.3100 -0.2152
15454W        W30585   9.705   1.100   1.306 -0.0436  0.4184 -0.0098
15455W        W30586   8.007   1.309  15.611  0.1946  0.3921 -0.2376
15456W        W30587   1.971  16.733   4.256  0.0027 -0.0420 -0.1942
15457W        W30588  11.071  13.691  13.273 -0.0235  0.0301 -0.2579
15458W        W30589   2.722  14.973  13.625  0.0180  0.2006  0.3279
15459W        W30590   9.343  18.446  13.738 -0.1167 -0.0902  0.2347
15460W        W30591   7.976  15.757  12.042  0.2242  0.0345 -0.0130
15461W        W30592   2.046   5.550  14.431 -0.2006  0.2331 -0.0339
15462W        W30593   1.127  14.520  11.990 -0.2023 -0.2322  0.0943
15463W        W30594   2.224   8.059  15.633 -0.1156  0.1776  0.1472
15464W        W30595  18.189  11.606   4.185  0.1562 -0.1282 -0.1934
15465W        W30596   3.468  11.266  14.261 -0.0502  0.0464 -0.0100
15466W        W30597  11.495   4.208  14.165 -0.0034 -0.2537  0.0726
15467W        W30598   2.286   9.663  11.876 -0.1495 -0.1120 -0.0908
15468W        W30599   7.037   9.480  13.760  0.2249  0.1514  0.1366
15469W        W30600   5.946  10.214   3.081 -0.2585  0.1123  0.5986
15470W        W30601   6.028  15.773   3.928  0.0979 -0.0259 -0.2755
15471W        W30602  17.319   2.182   1.924  0.0593 -0.0860  0.0749
15472W        W30603  15.623  15.484  10.563  0.1474 -0.0815  0.1338
15473W        W30604   9.440  12.870   4.884 -0.2810  0.0828 -0.0619
15474W        W30605  18.107   9.633  10.674  0.0416 -0.2210 -0.0499
15475W        W30606   3.153  17.063   0.013  0.1846  0.0333  0.1594
15476W        W30607   3.122  15.951   2.080 -0.0768 -0.0681 -0.4880
15477W        W30608   8.786   8.800  11.699  0.0045  0.2348 -0.1612
15478W        W30609   2.494   2.618  11.281 -0.1387 -0.3468 -0.4405
15479W        W30610   6.432  11.461   1.493  0.3836  0.1010  0.1371
15480W        W30611   9.002   6.831   1.895  0.0445 -0.3126  0.2104
15481W        W30612   9.400   3.756   1.292  0.2170 -0.2847  0.0758
15482W        W30613  16.552  13.675   4.626 -0.2056 -0.0713 -0.0456
15483W        W30614   4.314   8.895  15.074 -0.1698 -0.1349  0.0974
15484W        W30615   6.610  10.467  11.703 -0.2593  0.0722 -0.0608
15485W        W30616  14.733   8.737   1.744 -0.1537  0.0341 -0.0379
15486W        W30617  16.048   3.819  13.167  0.3102  0.4114  0.1150
15487W        W30618   3.881   3.672   0.451  0.0170  0.0410  0.0864
15488W        W30619   6.960   8.184  11.097  0.1729 -0.3891 -0.1686
15489W        W30620   0.742  14.750  15.170 -0.0002  0.1844 -0.0463
15490W        W30621   6.108   4.286  14.880 -0.1954  0.2623 -0.0982
15491W        W30622   5.650   7.806  10.637  0.0095  0.0885  0.0564
15492W        W30623  11.699  13.053  10.911 -0.1384 -0.2908  0.1158
15493W        W30624   6.834  12.840  12.318  0.1542  0.0440  0.0743
15494W        W30625  17.049  16.974  13.869 -0.1713  0.0544 -0.2723
15495W        W30626  10.722  16.257   1.648  0.1793 -0.2921  0.1255
15496W        W30627  17.299  14.380  15.217  0.0351  0.3190  0.2045
15497W        W30628   1.991   7.309   1.934  0.3870  0.0277 -0.0698
15498W        W30629   7.436   6.414  12.457 -0.1034  0.2601  0.1480
15499W        W30630   9.799  16.708   4.478 -0.2017 -0.1690  0.1311
15500W        W30631   2.897   9.206   4.777  0.1833 -0.0409 -0.0691
15501W        W30632  11.789  17.026  12.418  0.0679  0.1782 -0.2397
15502W        W30633   4.992   6.350   1.681  0.0809 -0.2237  0.2260
15503W        W30634  14.793   4.306   1.370  0.3816  0.0777 -0.0677
15504W        W30635   8.029   0.382   0.489 -0.0935 -0.0377 -0.0335
15505W        W30636  13.838  10.002   0.029 -0.1466  0.0871 -0.0351
15506W        W30637   5.415  12.908   2.002 -0.2528 -0.0644  0.4142
15507W        W30638  14.040  13.008  14.863 -0.0290  0.1770 -0.1779
15508W        W30639  17.349  13.281  14.339 -0.0663 -0.1736 -0.2541
15509W        W30640  16.927  18.408   1.801 -0.1292 -0.0317  0.4941
15510W        W30641   7.156   9.804   0.212 -0.0368  0.1703 -0.3776
15511W        W30642   5.239  16.624   4.192  0.1230 -0.4978 -0.0904
15512W        W30643  17.996  17.126  11.387 -0.1552  0.2555  0.0967
15513W        W30644  12.723  17.193  14.279  0.1689 -0.1080  0.0110
15514W        W30645  18.312   8.961  12.624  0.2399  0.0937 -0.0118
15515W        W30646   8.572   2.605   5.825  0.0800  0.0284 -0.1211
15516W        W30647   8.486   9.196  12.445 -0.2009 -0.1733  0.0760
15517W        W30648  13.476  10.057  12.058 -0.1777 -0.1957 -0.0864
15518W        W30649   1.648  17.685  11.480  0.2472  0.0265  0.3432
15519W        W30650  11.722   7.577  15.737 -0.0992  0.0059  0.1576
15520W        W30651  12.400  16.377   1.907 -0.0472 -0.1256 -0.0701
15521W        W30652  14.076  16.548   2.116 -0.2607  0.5367  0.0232
15522W        W30653   3.851  12.574  13.301 -0.0346  0.2336 -0.1013
15523W        W30654  12.944   0.768   4.439 -0.1032 -0.0610  0.1779
15524W        W30655   2.484  18.067   3.736  0.0885 -0.1991 -0.0121
15525W        W30656   5.837   2.781   4.739 -0.0305 -0.0339 -0.0669
15526W        W30657   6.904  11.167  12.534 -0.0240  0.1473 -0.0569
15527W        W30658  13.462  12.194  13.857 -0.1892 -0.0034 -0.0242
15528W        W30659  16.298  10.968   2.864  0.0918  0.0172  0.1695
15529W        W30660   4.076   3.027   4.030 -0.0028 -0.0804  0.1520
15530W        W30661  15.587   5.632   2.555 -0.0178 -0.0670 -0.2759
15531W        W30662   2.325  17.806  12.394 -0.1922 -0.2153  0.0508
15532W        W30663   2.165  11.781  12.737  0.2137 -0.1557 -0.1624
15533W        W30664  17.239   1.730   3.173 -0.0313 -0.2771 -0.0721
15534W        W30665  10.514   1.751  12.939 -0.2319  0.0090  0.2459
15535W        W30666  17.522  10.983  10.106 -0.0911  0.2581 -0.0997
15536W        W30667   6.597  14.219  12.240  0.0543  0.0359  0.1766
15537W        W30668  18.402   4.968  12.827 -0.1018 -0.1831  0.0217
15538W        W30669   7.045   3.305  10.892 -0.2084 -0.1867  0.2833
15539W        W30670   7.240   5.291   0.155  0.3203  0.2282  0.0187
15540W        W30671  10.018   7.640   0.405 -0.1192 -0.2102  0.2257
15541W        W30672   0.805   6.659  13.236  0.0123  0.2614  0.1126
15542W        W30673   6.911   2.776  15.120 -0.1761  0.3211 -0.0084
15543W        W30674   8.712   3.079  11.755  0.0794 -0.0320  0.1011
15544W        W30675   0.167  11.292  15.003  0.3083  0.3123  0.1442
15545W        W30676  14.327  17.874  13.134  0.1251  0.0510 -0.2038
15546W        W30677   8.468  14.918   3.684  0.0828 -0.1012 -0.3203
15547W        W30678   9.299   2.750   4.540 -0.2049  0.2259  0.0069
15548W        W30679   5.193  18.223   1.797 -0.0420  0.0481 -0.2953
15549W        W30680   6.682  17.045  12.099 -0.3741  0.1163  0.0711
15550W        W30681   3.465   1.540  13.083 -0.0843  0.2663 -0.2751
15551W        W30682   8.008   7.929   1.825  0.1371  0.0163  0.0484
15552W        W30683   1.467   4.556  10.720  0.1614  0.2367  0.5898
15553W        W30684  10.829   5.607  13.278 -0.1808 -0.1427 -0.0743
15554W        W30685  15.090   5.306  11.471 -0.0103  0.2779  0.1492
15555W        W30686   2.428   5.668  13.490 -0.1432 -0.0531 -0.0693
15556W        W30687   6.624   7.455   4.485 -0.2756 -0.0152 -0.1438
15557W        W30688  14.647   7.496  11.815 -0.1353 -0.2024 -0.1904
15558W        W30689   1.071   5.660   1.547  0.1177  0.1322 -0.1130
15559W        W30690  12.929  13.099   2.923 -0.2483 -0.0820 -0.3640
15560W        W30691  18.562  11.003   1.068 -0.1382  0.0034 -0.2486
15561W        W30692   7.685   9.586  13.829 -0.0632  0.0697  0.2858
15562W        W30693   4.191   0.458   4.730 -0.0074 -0.0754 -0.1252
15563W        W30694  15.903  14.376   3.528  0.1500  0.0747  0.1408
15564W        W30695   3.883   5.388  15.197 -0.1605  0.1620 -0.0634
15565W        W30696  15.848  17.767   2.580  0.2632 -0.3359 -0.2507
15566W        W30697  15.713   0.531  15.212  0.2998  0.1198 -0.2224
15567W        W30698   8.510   3.802   1.427  0.1045  0.0119  0.0494
15568W        W30699   1.041  16.090  11.379  0.1331  0.0237 -0.4332
15569W        W30700   4.249  11.486   2.210  0.0230  0.0707  0.1671
15570W        W30701   7.488   4.691  15.490  0.2032  0.2070 -0.0917
15571W        W30702   1.647  11.734  15.485  0.0108 -0.0053 -0.1312
15572W        W30703   3.291   6.476  10.081  0.1147 -0.0122 -0.0733
15573W        W30704   3.816  15.712  13.996 -0.0364  0.0011  0.0339
15574W        W30705  18.688   4.664   3.321 -0.0331  0.3768 -0.0173
15575W        W30706  14.538  15.585   5.059 -0.3763 -0.3279  0.0547
15576W        W30707   4.203   0.715  15.180 -0.0902 -0.1337  0.2685
15577W        W30708  11.370   8.835   0.158  0.1583  0.3728  0.1780
15578W        W30709  10.878  18.457  11.109  0.1123 -0.2862 -0.1161
15579W        W30710  15.139   8.926   0.298  0.0043  0.3934 -0.3045
15580W        W30711  10.874  14.077   2.456 -0.2916 -0.1315 -0.1969
15581W        W30712   7.832  16.195  15.181  0.0794 -0.2232 -0.3363
15582W        W30713   1.311  13.738   4.026 -0.1156 -0.2625 -0.1122
15583W        W30714  14.646   6.216  12.065  0.0247  0.0121 -0.3681
15584W        W30715   1.236  13.590   5.258 -0.0671 -0.3159  0.2941
15585W        W30716   9.479   2.921   5.347 -0.0186 -0.0434  0.1791
15586W        W30717   3.765  13.265   4.406  0.1135 -0.2349 -0.1207
15587W        W30718   6.871   0.984   2.199 -0.1012 -0.1136 -0.2078
15588W        W30719   3.691  10.829   2.328  0.1323  0.3484  0.0119
15589W        W30720  17.271   9.640  15.416 -0.3894 -0.0735 -0.3535
15590W        W30721  16.221   7.362   2.670 -0.2714 -0.0313 -0.0348
15591W        W30722   4.008   9.973   2.611  0.2966 -0.1091 -0.2314
15592W        W30723  15.491  13.403   2.233 -0.0401  0.1815  0.3662
15593W        W30724  15.710  14.204  13.326 -0.1227  0.2453 -0.4219
15594W        W30725  16.819   7.028  12.277 -0.1438  0.1498  0.2035
15595W        W30726  12.583  16.933  11.321 -0.0369  0.3800 -0.1749
15596W        W30727   2.227   3.062  13.501 -0.0033 -0.1393 -0.4369
15597W        W30728   8.044  13.666   4.289  0.3628 -0.0530  0.0211
15598W        W30729  16.959  17.268   5.750  0.3184 -0.3478 -0.4102
15599W        W30730   4.298   4.546   0.936 -0.0533 -0.0472 -0.0910
15600W        W30731  10.920  12.352  13.012  0.2475  0.2846  0.1532
15601W        W30732   2.235  16.687   0.576 -0.0364  0.1521 -0.0392
15602W        W30733  13.049   1.090  10.039  0.3601 -0.1111 -0.0952
15603W        W30734  17.197  13.069   2.881 -0.2083 -0.1414  0.1634
15604W        W30735  13.172  16.121  13.208 -0.1464  0.1527  0.2439
15605W        W30736   1.425   7.401   0.507 -0.1645 -0.1874 -0.0160
15606W        W30737  10.498  18.179   1.505  0.2140  0.2528 -0.4243
15607W        W30738  13.293  14.816  12.373 -0.0023  0.3803 -0.1953
15608W        W30739  15.646  12.666   4.912 -0.1103 -0.1902 -0.0477
15609W        W30740  10.098   8.049   0.683 -0.0911  0.2038 -0.1755
15610W        W30741  13.604   0.492   0.678 -0.2599 -0.0496 -0.0036
15611W        W30742  12.711  14.493  11.918  0.1188  0.1906  0.2663
15612W        W30743  12.081   1.609  11.984  0.2056  0.2685  0.1497
15613W        W30744   8.456  16.335   1.611 -0.1088 -0.0403 -0.1867
15614W        W30745  12.293   2.336  14.687 -0.2626  0.0842  0.0921
15615W        W30746  18.497  11.916   0.183 -0.2158 -0.0147  0.3336
15616W        W30747  18.334   8.457  12.797 -0.0348 -0.1408  0.2921
15617W        W30748   9.385  10.246   1.800 -0.2056 -0.0123 -0.0255
15618W        W30749   1.983   3.794  11.231 -0.1215 -0.2193  0.0025
15619W        W30750  11.979  11.864   2.102 -0.2732  0.0085 -0.1294
15620W        W30751   9.338   5.083  12.632 -0.1934 -0.1598 -0.0209
15621W        W30752   3.741  15.048   4.376  0.0849  0.3158 -0.2507
15622W        W30753  15.765   0.503  13.819 -0.1212 -0.1291  0.0252
15623W        W30754  12.644   1.947   0.618 -0.5668  0.0492  0.0101
15624W        W30755  15.682   0.454   4.996 -0.4045  0.0132 -0.0914
15625W        W30756   2.675  17.523  13.739 -0.2904  0.1468 -0.1382
15626W        W30757   7.568  13.808  11.248 -0.1361  0.0726 -0.1133
15627W        W30758   4.973  17.234  14.904  0.1727  0.1062  0.0962
15628W        W30759   3.982  18.213   3.905  0.1449  0.0917  0.0305
15629W        W30760   8.051   0.280   1.476 -0.1508 -0.0111  0.1376
15630W        W30761  18.008   3.630  10.939  0.2368  0.2088  0.1455
15631W        W30762   0.570   1.827  13.889  0.3506  0.1058 -0.3371
15632W        W30763   7.583   8.009   5.474  0.0389  0.0093  0.1816
15633W        W30764   2.529  11.722  14.785  0.2166  0.0731 -0.1935
15634W        W30765   1.886  12.219   4.809 -0.0284 -0.1172  0.0851
15635W        W30766   6.798   6.885  10.518 -0.1165  0.2551 -0.0357
15636W        W30767  16.189  12.911  11.891  0.1962  0.0334  0.3615
15637W        W30768  13.528  11.538  12.185  0.4907  0.1107  0.4456
15638W        W30769  16.271   9.182  15.497  0.3705 -0.1303 -0.0708
15639W        W30770   9.558   2.360   3.856 -0.0780 -0.0677 -0.1386
15640W        W30771  16.341  13.549   3.380 -0.1908 -0.4270 -0.1047
15641W        W30772  10.114   4.930  11.915  0.2786  0.2030  0.0479
15642W        W30773   6.574   2.547  11.055  0.0953 -0.0627 -0.1362
15643W        W30774  18.477   7.119   1.787  0.3797  0.1381 -0.2190
15644W        W30775   9.377  17.680   2.401 -0.0094  0.1139  0.0437
15645W        W30776   4.378   6.654  14.846  0.0150  0.0807 -0.3268
15646W        W30777  17.579   9.260  11.746 -0.2344 -0.2017  0.2123
15647W        W30778  17.311  11.462   0.715 -0.0785 -0.2288 -0.0340
15648W        W30779  16.481   5.665  10.531 -0.0647 -0.1421 -0.2591
15649W        W30780  18.288  16.644   4.577  0.1056  0.1163  0.2907
15650W        W30781   2.929  18.241  13.077 -0.0483  0.0420 -0.0747
15651W        W30782   0.698  15.580   0.076  0.0880  0.2877 -0.2138
15652W        W30783   4.170   0.019   1.518 -0.1029  0.1694 -0.2006
15653W        W30784   5.902   1.055  14.570  0.1210  0.0264  0.2502
15654W        W30785   2.972  17.574  11.894  0.0519  0.0216  0.1571
15655W        W30786  10.868   4.903  13.644  0.3259  0.2012 -0.1049
15656W        W30787  14.302  16.967   5.759  0.1168  0.3528  0.1719
15657W        W30788   6.133   6.283   5.255  0.1650  0.0839 -0.1671
15658W        W30789   3.865  11.799   1.899 -0.0630  0.3091  0.3252
15659W        W30790   7.528   0.386  15.213 -0.0952  0.1247  0.1282
15660W        W30791   5.867   5.009   4.357 -0.0332 -0.0476  0.3323
15661W        W30792   6.173   0.609  13.269 -0.1407 -0.0536 -0.5334
15662W        W30793   1.490   8.833   3.616 -0.1856  0.1931  0.2589
15663W        W30794  11.167  13.552   5.476 -0.0168 -0.2005 -0.0155
15664W        W30795   0.570   3.373   4.062 -0.5254  0.2566  0.0917
15665W        W30796  14.570  15.456  12.030 -0.0314  0.1462 -0.1623
15666W        W30797   9.104   7.206   5.413  0.0834  0.1292  0.2846
15667W        W30798  11.708   8.424  11.554  0.1503  0.2717  0.3799
15668W        W30799   0.296  13.380  11.091 -0.0623  0.4241  0.0693
15669W        W30800  15.040   2.111   1.609 -0.0686  0.2495 -0.2203
15670W        W30801  13.767   5.078  15.378  0.1882  0.2416 -0.4362
15671W        W30802  10.868   9.061   1.978 -0.3268  0.0430 -0.1844
15672W        W30803   1.290   8.062  13.309  0.2122  0.0115 -0.2550
15673W        W30804   3.274  13.199   1.565  0.1932  0.0167 -0.2498
15674W        W30805   2.708   8.791  11.717  0.1025 -0.1497 -0.0232
15675W        W30806   9.298  16.439  14.575  0.0225  0.1786  0.1537
15676W        W30807   3.047  16.073   4.693 -0.2740  0.3351  0.2583
15677W        W30808   0.373  10.834   4.262  0.3185  0.0973  0.1131
15678W        W30809   9.272  16.914  15.548  0.3886  0.2731  0.2360
15679W        W30810  11.763   1.457   2.533  0.1438 -0.2117  0.1640
15680W        W30811  14.091   8.540  12.943 -0.0583 -0.2294 -0.0446
15681W        W30812   4.973  15.736  10.646  0.0335 -0.0414 -0.0359
15682W        W30813  12.719  14.021   2.795  0.2450 -0.0614 -0.0693
15683W        W30814   7.543   9.958  10.802  0.0896 -0.2936  0.0511
15684W        W30815   1.952   9.677  14.543 -0.3430  0.1426 -0.1154
15685W        W30816   7.603   1.861   1.524  0.1628  0.1955  0.1874
15686W        W30817  14.645  17.010   0.341  0.0653  0.1642 -0.0659
15687W        W30818  10.736   2.264  12.494  0.0041 -0.1181 -0.0280
15688W        W30819   9.129  18.418   5.205  0.1358 -0.0258 -0.1669
15689W        W30820   5.925   7.449  15.124 -0.1561 -0.2682 -0.0576
15690W        W30821   3.194  17.932   2.470 -0.0083  0.1128 -0.0355
15691W        W30822  10.386   8.081  15.136 -0.0087  0.0667  0.0315
15692W        W30823   4.613  14.922   9.163 -0.1071  0.2176 -0.0652
15693W        W30824  11.891  11.205   0.672 -0.3292 -0.1972  0.0131
15694W        W30825  17.239  16.474   0.281  0.0663 -0.2235  0.3192
15695W        W30826  11.532   1.584  13.618  0.5381  0.0341 -0.2349
15696W        W30827   5.729  14.621   0.157 -0.3133  0.1383 -0.0499
15697W        W30828  13.851   3.945   5.941 -0.1463  0.0090  0.0125
15698W        W30829   5.368   9.394  14.227  0.1790 -0.1007  0.2660
15699W        W30830   1.635   4.105   0.473 -0.1505 -0.3311 -0.2571
15700W        W30831  17.288   6.431  11.040  0.0389 -0.2484 -0.1385
15701W        W30832   5.958  12.925   3.759  0.0166 -0.0493  0.3426
15702W        W30833  18.462   8.111   3.085  0.2140  0.0793 -0.1022
15703W        W30834  17.909   1.033  11.958  0.2324  0.1027  0.1058
15704W        W30835  11.352  13.722  15.011  0.1689 -0.1537  0.1045
15705W        W30836   8.358  17.186  11.041 -0.1341 -0.0522  0.2074
15706W        W30837  15.707   0.481   2.193 -0.1827 -0.2666  0.0799
15707W        W30838   1.410   3.939  14.622  0.0718 -0.0173 -0.3520
15708W        W30839   7.669  16.363   3.141 -0.0658 -0.3034  0.3044
15709W        W30840  10.805   1.049   2.208 -0.3240 -0.0841 -0.2787
15710W        W30841  16.125  10.719  15.387  0.1128  0.1575 -0.1806
15711W        W30842   0.977  10.000   0.402  0.0507  0.0101 -0.0282
15712W        W30843  15.531   3.105   1.627  0.0797 -0.0303 -0.0760
15713W        W30844  12.727   4.172   4.080  0.1393  0.1651  0.4375
15714W        W30845   7.079  11.307  11.430  0.2661 -0.0922  0.0664
15715W        W30846   3.311  13.785   4.954 -0.1270  0.1652  0.3451
15716W        W30847  17.727   7.053   0.729  0.0247  0.2996  0.0398
15717W        W30848  16.950  12.267   4.806 -0.2150  0.3085 -0.0675
15718W        W30849  16.035  15.331  14.009 -0.0770 -0.0205 -0.2903
15719W        W30850   6.296  14.992   5.077 -0.2509 -0.0621  0.2596
15720W        W30851   0.038  10.761   1.795  0.2436 -0.0843  0.1668
15721W        W30852   6.934  12.012   4.695 -0.2352 -0.0842 -0.1616
15722W        W30853  12.308   9.083   6.598  0.0036 -0.2116 -0.3318
15723W        W30854  14.259   5.105  10.415 -0.1273  0.0752  0.1079
15724W        W30855   8.360  17.420   5.065  0.2318  0.1555 -0.1560
15725W        W30856  18.235   3.980   4.339  0.1156 -0.1716 -0.0124
15726W        W30857  14.876   5.753  12.777  0.2871 -0.0484 -0.0796
15727W        W30858   0.100  13.698  14.229  0.0568  0.1080 -0.2095
15728W        W30859  13.863  17.273   1.602 -0.1111  0.2995  0.3437
15729W        W30860  15.938   7.235  11.811 -0.3039 -0.4194 -0.1644
15730W        W30861  17.137  11.724  14.878  0.0121  0.2495  0.0417
15731W        W30862  14.212  10.064   1.915 -0.0034  0.1020  0.1588
15732W        W30863  15.435   5.811   3.330  0.3843  0.2290  0.1801
15733W        W30864   9.516  14.022   1.878 -0.1778  0.1313 -0.4485
15734W        W30865   3.949  13.412   3.918  0.2521  0.0206  0.2132
15735W        W30866   2.497  13.838  14.310  0.0109 -0.0411 -0.3179
15736W        W30867  16.245  11.127  14.473  0.1300 -0.1860  0.0807
15737W        W30868   9.697  11.933  14.208 -0.0304  0.0031 -0.1324
15738W        W30869   9.479   6.333   3.211 -0.4205  0.2094 -0.2072
15739W        W30870  16.707   9.250  11.701  0.2212 -0.1115 -0.3591
15740W        W30871   9.656   4.819   4.301 -0.2373  0.4337  0.0643
15741W        W30872  14.236  14.249   2.413  0.1906  0.1148  0.2462
15742W        W30873  18.677   7.374   5.278  0.0946 -0.0087 -0.0839
15743W        W30874   1.954  17.116   1.618 -0.1198 -0.0966  0.1903
15744W        W30875   5.359   2.169   3.251  0.1465 -0.0031  0.1235
15745W        W30876   7.528  18.294  10.405  0.2676 -0.2839 -0.1355
15746W        W30877   1.006  18.702   0.354  0.0149 -0.0314 -0.0900
15747W        W30878  17.179   3.389  11.997 -0.0102  0.2565  0.0375
15748W        W30879  15.562   9.247   1.286 -0.0754  0.2272  0.2093
15749W        W30880   6.344   0.852  12.505  0.2515 -0.0151  0.0324
15750W        W30881   7.677   9.192  12.353 -0.3706  0.4843  0.0901
15751W        W30882  12.662   1.140   0.430  0.2370  0.0108  0.1528
15752W        W30883   3.466   3.238  11.441  0.1539 -0.0931  0.0646
15753W        W30884   6.717   3.660  14.447 -0.4033  0.0010 -0.0905
15754W        W30885   7.980   8.288  11.401  0.1754  0.0249  0.1105
15755W        W30886  16.814   5.450   2.627 -0.3921 -0.0954  0.2546
15756W        W30887   4.368   5.698  12.619 -0.0972 -0.0073  0.2564
15757W        W30888   5.531  13.303  13.689  0.3769  0.0530  0.1805
15758W        W30889   3.334  12.876   3.481 -0.0620 -0.0942 -0.0868
15759W        W30890   3.642   5.190   3.875  0.2426  0.2738  0.0198
15760W        W30891   7.995  18.452   2.271  0.0940  0.0767 -0.1320
15761W        W30892  14.308   0.016  12.459  0.2544  0.1406  0.3081
15762W        W30893  12.035  13.216   0.159 -0.0715  0.0817  0.0426
15763W        W30894   4.881   8.462   3.235  0.2388 -0.0872  0.3224
15764W        W30895   6.601   8.503  14.917 -0.0330  0.0545 -0.2425
15765W        W30896   9.770   9.202  11.022  0.0942  0.0312  0.1693
15766W        W30897  17.566   0.391  14.227 -0.3136  0.1439  0.1430
15767W        W30898  11.538   9.484   5.672  0.0229  0.1292 -0.1790
15768W        W30899   0.130  14.670   0.352  0.1024 -0.2072 -0.1913
15769W        W30900  17.867   9.927   4.272 -0.0161 -0.1132 -0.3430
15770W        W30901  15.723   5.492  11.976 -0.0892  0.1033  0.1771
15771W        W30902  16.313  10.119  11.899  0.0587 -0.0182  0.1781
15772W        W30903  18.489   4.554  14.293 -0.0408  0.3486  0.0116
15773W        W30904  16.226   4.857  11.642 -0.0471 -0.1286  0.0656
15774W        W30905  16.933  12.120   2.826 -0.2365 -0.1554  0.0778
15775W        W30906  10.466  15.184   0.927 -0.1738 -0.0700  0.2668
15776W        W30907  16.648   1.711  13.433 -0.0494  0.1054  0.1961
15777W        W30908  17.384   7.475  15.451 -0.4619 -0.2786  0.3290
15778W        W30909  10.923  13.944  11.358 -0.0755 -0.0416 -0.1380
15779W        W30910   8.934   9.770   5.225 -0.0205  0.2484  0.0541
15780W        W30911  11.392  13.823  12.519  0.2043 -0.0032 -0.0983
15781W        W30912   4.984   3.115   2.614 -0.0587  0.2594  0.3106
15782W        W30913   1.756   8.753   4.148  0.3400  0.0941 -0.0525
15783W        W30914  10.940   3.270   4.532  0.2250 -0.0615  0.1642
15784W        W30915   0.283  11.590  15.523 -0.2760 -0.1056 -0.1354
15785W        W30916  17.744   0.574   1.624  0.3113  0.0995 -0.3095
15786W        W30917   8.914   8.762  11.209  0.0746 -0.0964  0.2559
15787W        W30918  11.602  12.624   3.565 -0.1414  0.1684 -0.2741
15788W        W30919   8.608  11.826  14.639  0.1397  0.1737  0.1533
15789W        W30920   7.120   5.015   4.045  0.3490 -0.1140  0.0415
15790W        W30921  11.578   7.494   1.812  0.3084 -0.0757 -0.0021
15791W        W30922   0.067   0.638   0.630  0.0984  0.1631 -0.0793
15792W        W30923   6.625   9.989  13.012 -0.0653 -0.1173 -0.0885
15793W        W30924  12.924  13.687   2.457 -0.0985 -0.0816 -0.3328
15794W        W30925  15.724  15.761   4.712 -0.0213  0.2777 -0.2316
15795W        W30926   9.477  15.123   1.959  0.0406  0.0613  0.3756
15796W        W30927  10.148  15.506   1.909  0.1628 -0.0688  0.0465
15797W        W30928  10.523   2.903   5.298 -0.1869  0.3414  0.1316
15798W        W30929   5.115   2.524  12.068  0.0022  0.1298  0.4098
15799W        W30930   5.580   9.179  15.363  0.3124 -0.4345 -0.1311
15800W        W30931  16.926  10.759  14.458  0.2942  0.2799 -0.2757
15801W        W30932   9.560  12.480   0.998  0.1118 -0.1201  0.3183
15802W        W30933   0.465   4.747  12.874  0.1200  0.2351 -0.1687
15803W        W30934   5.413  13.722   3.730 -0.3236  0.2617 -0.1851
15804W        W30935   8.011  10.013   3.258 -0.3129 -0.0442  0.2074
15805W        W30936   0.322  12.372  11.451  0.1285  0.0454  0.1812
15806W        W30937  17.858   1.347   2.831 -0.0390  0.3158 -0.0012
15807W        W30938  12.304  12.471  14.684  0.1837 -0.0939 -0.1991
15808W        W30939   9.778  17.827  11.970  0.2938  0.1379 -0.3787
15809W        W30940  14.878   8.126  15.705  0.1101 -0.0040 -0.0386
15810W        W30941   1.115   0.592  12.575 -0.1732 -0.0559  0.0621
15811W        W30942  16.589  10.513  13.650  0.2534 -0.3764 -0.0741
15812W        W30943   4.172  15.019  11.764 -0.1319 -0.3253 -0.3698
15813W        W30944  10.673  16.715   4.684  0.0867 -0.4980  0.1009
15814W        W30945  18.362  11.016   1.585  0.0280  0.1956  0.0684
15815W        W30946   8.710  16.682  10.899  0.2095 -0.1699 -0.2386
15816W        W30947  12.144   3.352  12.823  0.0086 -0.1544  0.2693
15817W        W30948   6.412   7.556   3.565 -0.2698  0.0186  0.2291
15818W        W30949  11.227   8.539  11.711 -0.0516 -0.1211  0.1055
15819W        W30950  11.994  16.330   2.135 -0.0051 -0.1051  0.0615
15820W        W30951   8.785   7.157   2.438  0.1029  0.1902 -0.2452
15821W        W30952  17.278  18.281  11.549 -0.3606 -0.2359 -0.1237
15822W        W30953  12.585   9.971  13.597  0.0553 -0.0432  0.1522
15823W        W30954   0.222   4.740  15.561  0.1178 -0.1739  0.0447
15824W        W30955  15.753   0.264   1.741  0.1050  0.1405  0.2607
15825W        W30956  17.861  14.529   4.848  0.2453 -0.3018  0.1464
15826W        W30957   0.349  14.002   1.408 -0.1995  0.1108 -0.1494
15827W        W30958  17.766   2.282   3.161  0.0318 -0.1637  0.2614
15828W        W30959   5.672   2.470  13.644  0.3432  0.0402 -0.1603
15829W        W30960   3.889  16.876  14.916  0.1085  0.0963  0.1302
15830W        W30961  11.577  16.457  12.611 -0.2976  0.1352  0.0988
15831W        W30962  10.354  10.447  11.491  0.0472 -0.0966  0.0815
15832W        W30963  14.450   2.237   1.019  0.0695  0.3280  0.2344
15833W        W30964   9.241   1.511   5.220 -0.2190 -0.1300  0.1934
15834W        W30965   4.226  13.933   2.110 -0.1503 -0.0572  0.0833
15835W        W30966   1.590   8.003  14.161 -0.2044 -0.2533 -0.0615
15836W        W30967  17.441  12.309   2.807 -0.0888  0.0709 -0.1633
15837W        W30968  14.322   7.568  12.217 -0.1620  0.2273 -0.1996
15838W        W30969   1.332  18.531  14.236 -0.0346 -0.0990 -0.0344
15839W        W30970  17.114   2.722  14.728 -0.3309  0.0646 -0.1387
15840W        W30971  17.224   6.727  12.013  0.1046  0.0208  0.5193
15841W        W30972   9.958   2.793  12.343 -0.0414 -0.1080 -0.1241
15842W        W30973  14.315  18.605   3.154  0.0306 -0.0993 -0.0889
15843W        W30974   5.167  11.039   2.574  0.0987 -0.3274 -0.0515
15844W        W30975  10.248  13.491  13.278  0.1784  0.1763  0.1978
15845W        W30976   7.027   5.487   1.881 -0.1312 -0.1082 -0.0882
15846W        W30977   0.995  11.369   3.196 -0.0803  0.1450 -0.2264
15847W        W30978  16.569   0.493   4.879  0.2034 -0.2290 -0.0275
15848W        W30979  16.559   7.022   4.009  0.0528 -0.0171  0.0224
15849W        W30980   4.115   4.132   4.119 -0.1378  0.1710 -0.0111
15850W        W30981   9.213  13.168   3.480  0.1846  0.3489 -0.2220
15851W        W30982   5.117   6.431  13.385  0.0320  0.4301  0.0222
15852W        W30983  18.475  15.603   3.102  0.0789 -0.0980  0.0908
15853W        W30984   5.554  17.769   3.805  0.2569  0.2934 -0.1248
15854W        W30985  17.186   1.643   4.284 -0.2615  0.0019 -0.0188
15855W        W30986  17.468   8.751  10.594  0.0746  0.2016  0.3473
15856W        W30987  13.128   6.007   4.509  0.3840 -0.1713  0.3902
15857W        W30988  15.448  11.595  14.087  0.2996 -0.0663  0.1665
15858W        W30989  15.778  14.317   6.123 -0.0255 -0.1607 -0.0850
15859W        W30990   1.371   4.160   2.633  0.0415  0.3765  0.0062
15860W        W30991   5.424   6.619   2.411 -0.0734  0.3689  0.2240
15861W        W30992  15.707  16.644   5.630 -0.2003 -0.2026  0.1373
15862W        W30993   9.165   5.226  12.032 -0.0313  0.0782 -0.2297
15863W        W30994  14.500   4.919  10.027  0.1106  0.0395 -0.1960
15864W        W30995  11.368   0.175   4.347  0.0403 -0.2047  0.2038
15865W        W30996  10.273  12.065   1.482 -0.0733 -0.2669 -0.1078
15866W        W30997  15.725  18.118  12.862  0.1093  0.0366 -0.0307
15867W        W30998   3.008   0.257   9.501 -0.0442 -0.0514 -0.1529
15868W        W30999  14.125   4.703   2.714 -0.1458 -0.0438  0.0662
15869W        W31000   3.619  16.124   0.268 -0.1249  0.2280  0.2123
15870W        W31001  15.408  15.187  11.562  0.2360  0.1092 -0.0068
15871W        W31002   1.349   3.980  15.756 -0.0475  0.1628  0.1677
15872W        W31003  13.092   7.145   2.117  0.0189  0.2488 -0.0810
15873W        W31004  18.492  13.401  15.242 -0.0994  0.0362  0.5290
15874W        W31005  12.063   2.110  15.050  0.2672 -0.0605  0.0272
15875W        W31006  17.220  11.229  12.393  0.0116 -0.2728  0.2066
15876W        W31007   8.277   2.705  15.373  0.1983  0.1480 -0.0777
15877W        W31008   9.399   0.644  15.409 -0.0465  0.3168 -0.0588
15878W        W31009  12.413  11.521  15.214 -0.1722 -0.3743 -0.2268
15879W        W31010   2.804   8.503   1.372  0.4169  0.0569  0.0476
15880W        W31011   2.422   7.533  13.739 -0.0378  0.1973 -0.0902
15881W        W31012   4.765   0.389  12.025 -0.0050 -0.1854  0.5369
15882W        W31013  18.087   0.030   3.211 -0.0757  0.2042  0.1612
15883W        W31014  17.281   7.041  14.064 -0.1213  0.0131  0.4358
15884W        W31015  17.609   3.141  11.861 -0.3980 -0.1795  0.2927
15885W        W31016  11.922  18.138   5.896  0.0526  0.0520  0.1057
15886W        W31017   3.580  18.710   9.426 -0.1030 -0.4809 -0.2731
15887W        W31018  11.998  12.340   3.467  0.0380 -0.1484  0.2446
15888W        W31019  13.280  12.496  13.387  0.1392 -0.1188 -0.0275
15889W        W31020   2.396   3.649  11.010  0.1638  0.3897  0.2212
15890W        W31021   1.248   3.913  13.098  0.2833 -0.3015  0.0684
15891W        W31022  17.200  14.793   5.557  0.3968  0.0984  0.1504
15892W        W31023  16.968  15.203   4.248 -0.0279 -0.1261 -0.1095
15893W        W31024   0.031   9.531  15.703 -0.2989 -0.2395  0.2146
15894W        W31025   3.494  18.746  15.358 -0.0036 -0.0326 -0.2759
15895W        W31026   4.850  16.112  14.883 -0.0918  0.0591 -0.1198
15896W        W31027   4.706  11.018   4.375 -0.0867 -0.1542  0.1431
15897W        W31028  10.899   3.454  13.106  0.3836  0.1707 -0.0996
15898W        W31029  16.454   0.473  15.273  0.0675  0.0962  0.2576
15899W        W31030  18.167  14.627   0.561 -0.0814 -0.3385 -0.0179
15900W        W31031  11.393   8.337   3.848  0.1869 -0.0321  0.2135
15901W        W31032   0.489   3.353   1.694  0.0332  0.1636  0.3934
15902W        W31033   9.742   5.833   4.461  0.2970 -0.0558  0.3588
15903W        W31034   2.311   5.869   3.034 -0.2018 -0.0089 -0.2118
15904W        W31035  10.315  11.156  14.612 -0.0427 -0.0098 -0.1976
15905W        W31036  10.246   7.111   2.572  0.0405 -0.3627  0.4191
15906W        W31037  11.916  14.829  13.879 -0.1826 -0.1429  0.2320
15907W        W31038  14.572  12.579  11.882 -0.1864  0.3919  0.1357
15908W        W31039   9.232   9.248  10.524  0.1316 -0.2667  0.1791
15909W        W31040  15.959   5.082   3.656 -0.0065 -0.1794  0.1167
15910W        W31041   9.440   9.747   1.744  0.0044  0.0486 -0.0220
15911W        W31042   3.280   8.171   1.210 -0.0808 -0.2322  0.1443
15912W        W31043  17.879  10.300  11.403 -0.1618  0.1095 -0.0970
15913W        W31044  11.212   8.722   1.788  0.3858 -0.1720 -0.3196
15914W        W31045   5.240   0.644   0.917 -0.0275  0.0204  0.0252
15915W        W31046   5.005   6.829  13.129  0.0849  0.1945  0.0149
15916W        W31047   6.696  16.856   3.333  0.2327 -0.4484  0.2447
15917W        W31048  16.661  11.489   0.311  0.0842 -0.3544  0.1049
15918W        W31049   1.286  16.854  11.569 -0.1924 -0.0769  0.2482
15919W        W31050   3.874  16.770  13.494  0.0591 -0.0318 -0.0070
15920W        W31051   4.903   2.595   2.637 -0.1885 -0.1282  0.3335
15921W        W31052   9.453  13.018   5.501  0.2137 -0.1748 -0.0752
15922W        W31053  16.394  10.206   3.157 -0.0062  0.1590  0.5573
15923W        W31054   5.777  13.904   3.499 -0.1656 -0.0286 -0.0594
15924W        W31055   1.253   8.813  14.447  0.0073  0.2257 -0.0176
15925W        W31056   9.974  12.915   5.080  0.2691  0.0757 -0.1071
15926W        W31057  16.955   2.714   1.043  0.3799 -0.0564 -0.1565
15927W        W31058  10.095  12.539  12.005  0.0633  0.0141  0.0222
15928W        W31059   3.101  15.462   3.161 -0.1140  0.2415 -0.0647
15929W        W31060   3.674  11.140  14.815  0.0882 -0.0000  0.3256
15930W        W31061  14.838   1.494  14.583 -0.3248  0.1089 -0.3274
15931W        W31062  15.823   5.800  14.030  0.3659 -0.0146  0.1922
15932W        W31063   1.048  12.758  14.752 -0.1169  0.2068  0.0301
15933W        W31064  14.210  11.410   1.734 -0.0157 -0.0015  0.1500
15934W        W31065  18.673  17.138   3.195  0.1010 -0.2746  0.2221
15935W        W31066   1.091   9.511   3.013 -0.0271  0.0469  0.0725
15936W        W31067  18.484   7.935  11.459 -0.2822  0.2966  0.0286
15937W        W31068  12.107   7.026   2.962 -0.0863  0.1537 -0.0628
15938W        W31069   8.263  17.660  14.234 -0.1263 -0.3051  0.0295
15939W        W31070   6.605   1.986  10.244 -0.1845  0.0480 -0.1423
15940W        W31071  17.767  18.263   5.215  0.0940  0.0918 -0.2708
15941W        W31072  13.300  16.733   5.276  0.1436  0.2542 -0.2606
15942W        W31073   6.196  15.020   1.143 -0.0614 -0.1692  0.1684
15943W        W31074  12.940   0.133   4.877  0.0054 -0.0860 -0.0754
15944W        W31075   7.815   5.808   2.965 -0.1959 -0.0274 -0.0713
15945W        W31076   8.463  18.324   1.607  0.0893 -0.4008  0.0689
15946W        W31077  12.872   5.336  13.827  0.1902  0.0298 -0.1235
15947W        W31078   6.611   8.136   6.019 -0.1066  0.1277 -0.1232
15948W        W31079   1.827  16.806   3.271  0.2187  0.0092  0.0578
15949W        W31080  15.741  13.222   0.271 -0.3896 -0.1976  0.0606
15950W        W31081  18.383  18.003  10.472 -0.3508 -0.3133 -0.1306
15951W        W31082   3.745  14.529   4.197 -0.5621 -0.0051 -0.1372
15952W        W31083   9.745  14.861  15.571 -0.0255 -0.2376 -0.2511
15953W        W31084  16.470   5.254  12.393  0.1110  0.1512  0.2616
15954W        W31085  17.000  14.942   1.956 -0.1478 -0.1099 -0.0225
15955W        W31086   9.477   9.319   5.427  0.0428  0.1682 -0.0768
15956W        W31087  15.704   5.918  12.339  0.3028  0.2069  0.1975
15957W        W31088  18.438  15.138   0.752  0.1806  0.2250 -0.1308
15958W        W31089   6.400  12.150   2.622 -0.1852  0.1552  0.0551
15959W        W31090  11.523  13.485  11.351  0.1081  0.1806 -0.0847
15960W        W31091   4.180  10.469   2.661  0.1810  0.1476 -0.0309
15961W        W31092   6.699   8.248   3.291 -0.0310  0.1693  0.1524
15962W        W31093   3.684   1.037   1.380  0.1467 -0.1102 -0.2441
15963W        W31094  16.413   4.937  10.665  0.4807 -0.2212 -0.3164
15964W        W31095  11.634  12.855   3.093  0.2604  0.2507  0.2400
15965W        W31096  12.286  11.890  10.795 -0.4395 -0.2192 -0.2359
15966W        W31097   5.128   8.389  10.154 -0.0522 -0.1333 -0.0977
15967W        W31098  10.353  16.548  13.832 -0.0824 -0.0374  0.1683
15968W        W31099   6.949  13.674   3.027 -0.0320  0.1321 -0.2124
15969W        W31100   8.210  18.199   3.155 -0.2326 -0.0986 -0.0317
15970W        W31101  17.777  12.487  14.981  0.3682  0.0652 -0.0075
15971W        W31102   7.591  14.708  13.449 -0.0681  0.2655 -0.0719
15972W        W31103   8.332  14.143  11.243  0.0229 -0.1759  0.0033
15973W        W31104   9.847  18.749  12.882  0.0521  0.0671  0.2192
15974W        W31105  16.705  13.778  15.474 -0.1270 -0.3346 -0.1157
15975W        W31106   6.868  12.898  13.545  0.0405  0.1183 -0.0882
15976W        W31107  15.010  14.566  13.693  0.0179  0.0821  0.0259
15977W        W31108   7.765   5.228  11.410  0.0957 -0.2404  0.0495
15978W        W31109  12.206   4.140   4.587  0.1531 -0.1606 -0.2730
15979W        W31110  16.553   1.276   5.218  0.6254 -0.1453 -0.1935
15980W        W31111   8.327  16.820   4.051  0.1038 -0.1588  0.2176
15981W        W31112   6.468   2.806  12.567 -0.2122 -0.4117 -0.2624
15982W        W31113   7.599   8.364   0.695  0.2551 -0.3133 -0.3364
15983W        W31114  18.467  12.281   0.705  0.0063 -0.1015 -0.0003
15984W        W31115   1.871   0.627  13.050 -0.3072  0.1060  0.1476
15985W        W31116   3.009  10.985  11.371 -0.4640 -0.0075 -0.0226
15986W        W31117   6.369  14.269  14.371  0.4657  0.4993  0.1962
15987W        W31118  12.474   0.221   3.648 -0.3788  0.6233  0.2472
15988W        W31119  14.366  12.714   3.451  0.3206  0.0203 -0.1507
15989W        W31120  14.159   0.294  10.962  0.0108  0.0210  0.1717
15990W        W31121  11.786  11.594   6.212 -0.0512  0.1332 -0.0558
15991W        W31122   7.087  17.398   1.431  0.2056 -0.3595  0.0845
15992W        W31123  12.437  15.666  15.383  0.1577  0.1604 -0.4029
15993W        W31124   0.580   0.604   0.684  0.3650 -0.0735 -0.0442
15994W        W31125   4.856   0.372   0.956  0.0776 -0.2649  0.1246
15995W        W31126  17.830   6.492  11.211  0.2707  0.0490 -0.2805
15996W        W31127   6.948   6.276   5.452  0.1725 -0.1030 -0.0421
15997W        W31128   4.210  14.188   0.348 -0.1724 -0.0237 -0.1287
15998W        W31129  17.292   3.953  14.354 -0.0389 -0.1364  0.5423
15999W        W31130   0.061  11.223   0.548  0.1144  0.2416 -0.2828
16000W        W31131   5.386  13.966  11.598  0.0304 -0.0100  0.3247
16001W        W31132   6.701   9.002   4.413  0.0941 -0.0498 -0.1566
16002W        W31133   6.617  16.327   2.052  0.1456  0.3058 -0.2739
16003W        W31134  16.954   9.754   0.002  0.3106 -0.2507 -0.0045
16004W        W31135  10.927   4.732  10.823  0.3139  0.0274  0.2665
16005W        W31136   3.734   2.294  13.086 -0.0861  0.0801 -0.3142
16006W        W31137  17.678  10.524   1.404  0.1550 -0.4647 -0.1099
16007W        W31138  15.639  12.506   1.632 -0.0182 -0.1284  0.0130
16008W        W31139   5.561   9.174  14.859 -0.1817 -0.1781 -0.0988
16009W        W31140  17.173  13.316  12.925 -0.1129 -0.0560  0.1228
16010W        W31141   2.996  14.189   5.115 -0.2208  0.0783 -0.0226
16011W        W31142  11.240  17.640  12.005 -0.0959  0.0067  0.0263
16012W        W31143  16.382  15.184   5.794 -0.1029 -0.0232 -0.0038
16013W        W31144  12.469   8.495   2.699 -0.0738  0.1803 -0.0012
16014W        W31145   7.940   6.240   1.301 -0.0698 -0.1654  0.3196
16015W        W31146  13.233   9.412  11.784 -0.2221 -0.3026 -0.3606
16016W        W31147   4.712  11.557  11.793  0.1471  0.1275  0.1767
16017W        W31148   5.644   6.085  15.294 -0.0201  0.4453  0.3417
16018W        W31149  16.777  18.059   5.619  0.0418  0.0591  0.1550
16019W        W31150   8.984  17.030   5.343  0.0852 -0.0850 -0.1565
16020W        W31151   8.167  13.274  15.690 -0.1943  0.2446  0.1928
16021W        W31152   5.589  15.599   2.058 -0.0889  0.1151  0.0887
16022W        W31153   2.695   2.508   3.694 -0.1574  0.3374 -0.0821
16023W        W31154   9.797   7.675  15.262 -0.0950 -0.0561  0.1543
16024W        W31155  12.876   9.688   2.403 -0.1154  0.1048 -0.0912
16025W        W31156   4.564  16.395  11.687 -0.0776  0.2461 -0.0928
16026W        W31157  12.253   3.346  14.448  0.0549 -0.0112  0.0861
16027W        W31158   8.279  17.790  10.541  0.1216  0.2769  0.0215
16028W        W31159   6.171  16.542  11.045 -0.1681  0.3207 -0.0894
16029W        W31160   5.534   2.558   1.565  0.0424 -0.0781  0.2038
16030W        W31161  15.676   9.106   1.801  0.0323 -0.0385 -0.1593
16031W        W31162  17.209   8.861   3.652 -0.0798  0.2880  0.1168
16032W        W31163   6.738   9.213   1.406 -0.3202  0.2936 -0.0811
16033W        W31164  14.214   0.335   1.254  0.0690 -0.3465 -0.3060
16034W        W31165   1.729  16.107  12.960 -0.0349  0.1020  0.1463
16035W        W31166  16.438  17.432  12.211 -0.0483  0.0345  0.0387
16036W        W31167  17.527   8.818  12.078 -0.1790 -0.1817 -0.0791
16037W        W31168  12.284   6.116  15.253  0.2966 -0.1217  0.2095
16038W        W31169  16.535  16.049   2.095  0.0561  0.0417  0.2029
16039W        W31170  15.417   1.428   2.331 -0.1035  0.0829  0.0743
16040W        W31171  11.605   6.301  14.100 -0.3342 -0.2428  0.0796
16041W        W31172  17.489   1.555  13.720  0.0820 -0.0430  0.3186
16042W        W31173   0.925  11.761  10.583 -0.1177  0.2001  0.1964
16043W        W31174   8.126   4.324   4.132 -0.3768 -0.0581 -0.0694
16044W        W31175   3.813   8.355   2.994  0.3863  0.1776  0.1709
16045W        W31176  13.179  16.669  15.632  0.0202  0.3880 -0.1165
16046W        W31177   5.041   1.537   9.379  0.0986  0.2555  0.1128
16047W        W31178  10.115  18.414  13.205  0.2631 -0.1095  0.1085
16048W        W31179  14.724  12.405  12.336  0.1100 -0.2935  0.0570
16049W        W31180  16.527  13.283  11.701  0.0802  0.3287 -0.0009
16050W        W31181   5.843   6.585   2.035 -0.0002 -0.1438 -0.1825
16051W        W31182   3.905  11.868  11.725  0.2207  0.2228  0.0131
16052W        W31183   7.357   1.079   0.037 -0.0464  0.3774  0.0663
16053W        W31184   9.318   1.905  10.445 -0.0590  0.2312 -0.1453
16054W        W31185  11.546  16.062  10.540  0.2329  0.1681  0.0190
16055W        W31186  12.971   9.621   4.627 -0.1375 -0.2419 -0.1152
16056W        W31187  11.773  10.335   0.082 -0.2195  0.0696 -0.0512
16057W        W31188   8.805  17.967   1.886 -0.0273 -0.0946 -0.0979
16058W        W31189   3.751   3.544  15.161  0.0365 -0.1662 -0.3558
16059W        W31190   4.641   6.765   4.178  0.3845  0.3912  0.0208
16060W        W31191  18.641  14.662   2.046 -0.1744  0.2426  0.1571
16061W        W31192   1.905   8.014   3.083 -0.2434 -0.1439  0.0899
16062W        W31193  13.083  15.363  11.932  0.2655 -0.2026 -0.1471
16063W        W31194   1.224  17.575  14.710  0.1250 -0.1598 -0.1005
16064W        W31195  15.339   0.880   5.870 -0.0766  0.1419 -0.1164
16065W        W31196   6.428  13.870  12.943 -0.2085  0.1776 -0.1165
16066W        W31197   7.683  18.646  13.528  0.3993 -0.1126 -0.0354
16067W        W31198   3.227  13.971   1.756  0.0113 -0.1445  0.3266
16068W        W31199   7.359   3.048   4.256 -0.2137  0.4313 -0.1022
16069W        W31200  11.034  13.557   4.681 -0.0678 -0.1765  0.2314
16070W        W31201   5.438   9.607  10.951 -0.0442 -0.0021  0.3759
16071W        W31202  10.273  16.338   0.588  0.2992  0.0991 -0.0085
16072W        W31203  10.700  18.158   2.721 -0.2964 -0.0014  0.1394
16073W        W31204   0.947   2.717   1.021 -0.0960 -0.0927  0.0895
16074W        W31205  11.829   5.679   1.913  0.1298 -0.4179 -0.2424
16075W        W31206  10.675  16.257   2.450 -0.0102 -0.1948  0.1188
16076W        W31207   5.088   2.225  10.984  0.0610  0.3790 -0.1374
16077W        W31208  15.575  14.137  15.730  0.0703 -0.0863  0.0954
16078W        W31209  18.677  16.668   3.217  0.3725  0.1416 -0.0077
16079W        W31210  11.283  12.180  11.142  0.4029 -0.2098  0.0332
16080W        W31211  17.691  18.120   4.375  0.1611 -0.1592 -0.1229
16081W        W31212  12.373  18.228   0.436 -0.0141 -0.1037  0.0732
16082W        W31213   3.773   5.733  11.727  0.5566  0.0098 -0.0577
16083W        W31214   0.621   3.088   5.262  0.1413 -0.1384 -0.1752
16084W        W31215   1.902   8.919   2.765  0.1812  0.1818  0.0842
16085W        W31216   9.913   2.216   4.840  0.1559 -0.0818  0.0113
16086W        W31217  18.586  17.260  14.654 -0.0054 -0.2805 -0.3981
16087W        W31218  15.855  13.540   3.420 -0.1720  0.0543  0.0958
16088W        W31219  17.101   9.016  11.976  0.2424  0.4142  0.0333
16089W        W31220   8.679   5.793  14.305  0.0817 -0.0397 -0.0813
16090W        W31221  15.211  11.188  12.297 -0.3133 -0.0206 -0.0583
16091W        W31222   1.464   0.521  13.596 -0.0261  0.1087 -0.0474
16092W        W31223   2.216  12.103  10.426  0.2682  0.1177 -0.0211
16093W        W31224   1.770  12.535  14.682 -0.0486 -0.3038  0.2520
16094W        W31225   3.333   0.775  11.633  0.0778 -0.2359  0.0396
16095W        W31226   2.892   3.764  10.932 -0.2479 -0.2849 -0.3144
16096W        W31227  10.896  11.780  12.918 -0.2356  0.0219 -0.2832
16097W        W31228   9.395   7.570   5.195 -0.1603 -0.1218 -0.1348
16098W        W31229   2.067   2.167  13.502  0.0475 -0.2423  0.3622
16099W        W31230   9.292   3.133  12.643  0.2351  0.2451 -0.1943
16100W        W31231   6.303   8.337  12.999  0.0513 -0.4020 -0.0213
16101W        W31232   4.598  11.246   3.829  0.2950 -0.0199 -0.0010
16102W        W31233  14.059  15.687   3.599 -0.0648  0.0633  0.3139
16103W        W31234  16.287   5.931   3.166  0.2763  0.2741 -0.1639
16104W        W31235   9.624   7.063   4.404 -0.0848 -0.5569 -0.2303
16105W        W31236  13.115   3.643  14.875  0.0850 -0.2083 -0.2271
16106W        W31237  12.201  14.938   5.131 -0.0671  0.2384 -0.4815
16107W        W31238  15.040   7.655  15.744  0.0896  0.1237  0.1611
16108W        W31239  16.730   2.082   4.804  0.0429  0.0990  0.0616
16109W        W31240   5.037   2.011  13.168  0.0958 -0.0760  0.1690
16110W        W31241   2.627  14.867  12.829  0.0962 -0.1142  0.0053
16111W        W31242  15.124   0.236   3.152  0.0902  0.1129  0.3525
16112W        W31243  11.055  17.812  12.441 -0.0464  0.0645 -0.2238
16113W        W31244  17.669  14.623   3.810  0.0350 -0.0272 -0.1832
16114W        W31245  16.614  17.341  11.664 -0.0069  0.0467 -0.2199
16115W        W31246   3.671   1.992   3.503  0.0365 -0.0836  0.1029
16116W        W31247  17.162   5.717   4.939 -0.3201 -0.0706 -0.3585
16117W        W31248   6.733   3.650   0.219  0.3439  0.2066  0.0706
16118W        W31249   7.620   2.149   2.909 -0.2582 -0.2369 -0.1160
16119W        W31250   4.333   2.107  11.852  0.0173 -0.1878  0.0687
16120W        W31251   5.922   3.496   2.280 -0.0680  0.4821  0.1365
16121W        W31252   8.532  17.996   0.811 -0.6316 -0.1662  0.1201
16122W        W31253   5.752  18.331  14.232 -0.0563  0.0877 -0.0266
16123W        W31254  13.793  11.817  13.631  0.2590 -0.4247  0.2578
16124W        W31255  18.340  12.929  10.811 -0.4044 -0.0678  0.2243
16125W        W31256   7.189  15.727   0.481 -0.1038 -0.1487 -0.2579
16126W        W31257   4.025   0.968   0.125  0.2525 -0.2008  0.0950
16127W        W31258  10.425  11.416   5.693  0.3512 -0.3269  0.1546
16128W        W31259  17.182   8.504  13.202  0.1703  0.0311 -0.0358
16129W        W31260   8.129   4.911  12.990  0.0421 -0.2263 -0.3663
16130W        W31261  11.035  18.546   4.200  0.2808  0.1575 -0.3274
16131W        W31262   8.922   7.859  14.712 -0.1068 -0.0036 -0.1252
16132W        W31263  14.524  12.627   2.143  0.0593 -0.1863  0.0439
16133W        W31264   6.991  15.377  12.544  0.1311  0.1205 -0.1078
16134W        W31265   7.490  11.884   3.372 -0.1182  0.3267 -0.1016
16135W        W31266  16.898  12.932   3.304  0.1394 -0.0057 -0.0280
16136W        W31267  17.020  13.102   4.196  0.0555 -0.5218  0.2635
16137W        W31268   3.905   1.746   1.549  0.0709  0.2166  0.4650
16138W        W31269  14.703  14.749   0.073 -0.0920 -0.3526 -0.0241
16139W        W31270  11.472  15.612  14.186 -0.2245 -0.1906  0.0458
16140W        W31271   7.233   0.285   3.418 -0.1174  0.0401  0.1850
16141W        W31272   2.287  13.922  11.295  0.0374 -0.0231 -0.0004
16142W        W31273   1.401   5.016   3.584  0.3762  0.0862 -0.2977
16143W        W31274   8.940   1.948  12.724 -0.1137 -0.1112 -0.1368
16144W        W31275   0.098   4.523   4.066  0.3139  0.0482  0.3053
16145W        W31276  14.072   6.922  15.380  0.3072 -0.0043  0.1195
16146W        W31277  11.941  17.921  14.386  0.2113  0.1172  0.3462
16147W        W31278   9.997   8.953  15.045  0.2361  0.3129  0.1188
16148W        W31279  16.215   6.665  10.677  0.3707  0.1398 -0.0678
16149W        W31280   5.178   7.089   5.134  0.0942  0.1657 -0.1454
16150W        W31281  14.251  17.177  15.596  0.1362 -0.2240  0.1218
16151W        W31282  16.929   3.025   1.449  0.3526  0.0580 -0.2415
16152W        W31283  11.315   7.985  15.687 -0.0521  0.1351 -0.1324
16153W        W31284  17.606   1.281   4.189 -0.3691 -0.0359  0.1785
16154W        W31285  15.580  12.429  13.020 -0.2120  0.0225  0.0164
16155W        W31286   5.254  17.493  13.904 -0.1353  0.0307  0.0741
16156W        W31287  13.395  13.830   5.300 -0.0625 -0.1525 -0.4028
16157W        W31288   1.701  16.398  10.229 -0.0598 -0.0053  0.1813
16158W        W31289   8.474  16.812  12.733  0.0135  0.1703  0.0756
16159W        W31290  10.838   9.382   6.112 -0.1393 -0.2126 -0.0128
16160W        W31291   6.426  17.325   2.005  0.0907 -0.1588  0.1265
16161W        W31292   0.031   8.210  10.337  0.0323 -0.0230  0.3114
16162W        W31293   7.010   4.548  13.725 -0.2947 -0.2878 -0.4457
16163W        W31294   2.723  14.368  12.033 -0.0371  0.0391  0.1330
16164W        W31295   1.171  12.725  10.709 -0.0984  0.0573  0.1649
16165W        W31296   5.013  13.598   4.143 -0.2474 -0.0005 -0.2455
16166W        W31297  17.323   7.085  14.901  0.0270 -0.1544 -0.1315
16167W        W31298   8.838   9.615  12.447 -0.1180 -0.2530  0.0554
16168W        W31299  13.507   8.753   2.420 -0.1053  0.0720 -0.1154
16169W        W31300   4.254  14.159   5.813 -0.0070  0.1436  0.3358
16170W        W31301  17.897   9.277   5.620 -0.0096  0.5216  0.3928
16171W        W31302  15.909  16.566   2.454 -0.0248  0.0085 -0.1049
16172W        W31303   3.263  14.592   3.501  0.1155  0.1669  0.2322
16173W        W31304   3.187  15.843  11.687  0.1176 -0.2787  0.0333
16174W        W31305  17.897  16.955  13.417  0.0625 -0.2623 -0.1017
16175W        W31306   2.057  18.506  14.028 -0.0347 -0.3745  0.1757
16176W        W31307  14.344  16.304  15.201 -0.0593 -0.4217  0.0951
16177W        W31308   3.418   0.230   3.035 -0.0161  0.0002  0.0548
16178W        W31309  11.212  17.463   1.914 -0.0457  0.0241 -0.1209
16179W        W31310  16.231  18.326   1.776 -0.1589  0.2799  0.2975
16180W        W31311  18.658  17.723   5.457 -0.1396  0.1541  0.0292
16181W        W31312  12.190   9.105  11.994 -0.2680 -0.1600 -0.0038
16182W        W31313  16.812   4.062  15.153 -0.3062  0.0843  0.2018
16183W        W31314   5.040   9.131   0.392 -0.1425 -0.0754 -0.0404
16184W        W31315  12.091   3.745   3.725 -0.2663  0.0151  0.0251
16185W        W31316  17.886   3.294  14.543 -0.0748 -0.1357  0.0979
16186W        W31317  10.493   0.219  13.946  0.0322  0.2706 -0.2860
16187W        W31318  13.713   1.393   1.505  0.0649 -0.0531  0.2957
16188W        W31319   7.507   8.646  14.009 -0.0705 -0.3334  0.0533
16189W        W31320   0.417   5.721   3.657  0.0768  0.2147 -0.0577
16190W        W31321  11.201   8.367   1.267  0.1987 -0.1657  0.1815
16191W        W31322  11.247   2.228  10.893 -0.0434 -0.0019 -0.1017
16192W        W31323   9.147  14.199  11.005  0.1902 -0.0205 -0.4500
16193W        W31324   5.017   3.233   0.518  0.2355 -0.1709 -0.0995
16194W        W31325   8.390   2.143  14.913  0.0593  0.1560  0.0923
16195W        W31326   5.543  18.327   5.187 -0.1012  0.2643  0.1967
16196W        W31327   7.800   6.435   1.702 -0.3551 -0.2525 -0.1903
16197W        W31328   2.540   9.220   5.128  0.0856  0.0216 -0.0560
16198W        W31329  10.789   9.924   2.167 -0.3213  0.1311  0.2999
16199W        W31330   7.657  14.234   3.856 -0.0194  0.3204 -0.1226
16200W        W31331   1.402   2.597   3.295 -0.1947  0.2154  0.0606
16201W        W31332  14.706   9.335  14.452 -0.1121  0.1334  0.0611
16202W        W31333  14.415  15.943  13.640  0.2112 -0.0114  0.6831
16203W        W31334   3.159  13.970   3.743 -0.0382  0.0124  0.0330
16204W        W31335   9.334   4.662   5.235  0.0129  0.0281  0.4337
16205W        W31336   3.808  16.255  14.777 -0.1892 -0.0060  0.0460
16206W        W31337  12.710  18.445   3.819  0.0260 -0.0365 -0.5319
16207W        W31338  18.296   7.280  13.866  0.3652  0.0241  0.1027
16208W        W31339  14.166  14.698   3.466 -0.1924 -0.1318 -0.0575
16209W        W31340   1.092   5.230   1.147  0.0033  0.2279 -0.1726
16210W        W31341  12.435   1.906   1.325  0.1056  0.1909 -0.4478
16211W        W31342   4.064  14.706   4.582  0.0720  0.1307  0.1777
16212W        W31343  11.503  17.796   4.267  0.1569  0.2065 -0.0949
16213W        W31344  14.937   4.955   0.779  0.1642 -0.0401 -0.3811
16214W        W31345   5.278  10.418  11.131  0.3470 -0.2433  0.1097
16215W        W31346  18.602   4.354   2.012  0.2136  0.2442  0.1781
16216W        W31347  11.461   1.754  12.089 -0.2646  0.0858  0.1043
16217W        W31348  11.286  12.024  13.768  0.0646 -0.0223  0.1496
16218W        W31349  10.323  16.571  15.460 -0.3476  0.0025 -0.0875
16219W        W31350  12.641   8.824   1.397  0.0574 -0.0637  0.0387
16220W        W31351  16.003   8.343  14.476  0.0176 -0.1884 -0.1251
16221W        W31352  15.890  17.928   0.757 -0.2135 -0.2857 -0.0641
16222W        W31353  15.265  15.292   2.904 -0.1380 -0.0107 -0.1133
16223W        W31354   9.327   4.738  12.055 -0.1044 -0.0985  0.0035
16224W        W31355  18.176   8.776   0.305  0.1715 -0.1541 -0.2696
16225W        W31356  14.674   0.435  14.305  0.2206  0.0070  0.2770
16226W        W31357  15.300   1.954   4.354  0.1228  0.1818  0.1697
16227W        W31358  16.364  10.372  10.946 -0.2080  0.3336  0.0498
16228W        W31359  14.621  11.170   4.533  0.4439  0.1787 -0.2041
16229W        W31360   2.265   2.749   5.331 -0.3080  0.0293  0.0356
16230W        W31361  11.912  17.660  15.258 -0.2075 -0.2263  0.2522
16231W        W31362   8.368   0.563   0.078  0.1968  0.0199 -0.2701
16232W        W31363   3.850  12.899  11.434  0.1105  0.1367  0.0005
16233W        W31364  12.085   6.180  14.247  0.0485  0.1311  0.0720
16234W        W31365  16.979   5.738   3.469 -0.2647  0.0882  0.0221
16235W        W31366  14.930   8.896  14.263  0.0903 -0.0433  0.1312
16236W        W31367   6.795   1.589   3.896 -0.0860  0.0604  0.1243
16237W        W31368  12.975  11.793   2.784  0.2224 -0.0672 -0.4413
16238W        W31369  14.182   7.670  13.627 -0.0829 -0.4192 -0.1269
16239W        W31370   3.994  18.744  11.904  0.1788 -0.1340  0.2107
16240W        W31371  12.998   5.814  14.596 -0.2874 -0.1451  0.1936
16241W        W31372  16.462   3.229   3.334  0.0883  0.0624  0.0277
16242W        W31373   6.733   1.064   5.207  0.2056  0.1826 -0.0402
16243W        W31374  16.469  15.371  10.609  0.0672  0.1329 -0.0240
16244W        W31375   1.231  12.296  14.538  0.1869  0.2812  0.0055
16245W        W31376  13.014   9.916   4.186 -0.3604 -0.3024 -0.0056
16246W        W31377  12.271  15.246   5.567  0.0554 -0.0007  0.3323
16247W        W31378  18.336  12.033  12.063  0.1041 -0.1607 -0.1296
16248W        W31379   4.516  10.762  12.342 -0.0870  0.1093 -0.2882
16249W        W31380   0.899   0.300   2.542 -0.0211  0.1220  0.0112
16250W        W31381   9.016   1.662  10.793 -0.4327  0.1190 -0.0933
16251W        W31382  17.294   5.056  10.253  0.2876 -0.1376  0.2180
16252W        W31383  18.030  13.951  11.760 -0.1426  0.0783  0.1844
16253W        W31384   3.622  11.428  10.745 -0.3347  0.0486  0.3183
16254W        W31385  11.386  13.088   2.678  0.0626 -0.0030 -0.1439
16255W        W31386   0.056  18.702   0.037  0.0415 -0.0766  0.1471
16256W        W31387  18.295  16.643  13.531 -0.0674 -0.4008  0.3684
16257W        W31388  18.694   7.414   0.745  0.2326 -0.1790  0.2470
16258W        W31389   9.376   6.409  13.360 -0.2347 -0.0618 -0.3018
16259W        W31390  16.859  18.413   5.095  0.0293  0.3017  0.1456
16260W        W31391  11.297  14.556   0.796  0.2548  0.0803 -0.3034
16261W        W31392  10.073  18.102  10.967 -0.6415 -0.1005 -0.1342
16262W        W31393  14.161   2.015  10.871  0.0220 -0.0082  0.0091
16263W        W31394   6.172   5.846   3.849  0.1807 -0.0450  0.1944
16264W        W31395  18.418   7.595   2.280 -0.1075  0.0518 -0.5179
16265W        W31396  10.300  15.430   2.435  0.2276 -0.2393 -0.1173
16266W        W31397  13.172   9.633   0.801  0.1800  0.1980  0.0626
16267W        W31398   7.614  16.116   1.381 -0.0261 -0.0789 -0.3038
16268W        W31399   6.091  15.738  15.242 -0.1031  0.1840 -0.1175
16269W        W31400  13.746  17.975   1.189  0.0601 -0.0611  0.2834
16270W        W31401  17.600   1.979   3.536  0.0061  0.0753  0.0134
16271W        W31402  16.190  13.056   3.184  0.0746  0.1452  0.3307
16272W        W31403   4.617   8.026   0.858  0.2051  0.0802 -0.1444
16273W        W31404   6.045  14.115  10.527  0.0729  0.0641  0.3934
16274W        W31405   5.733  11.536   3.136  0.1480 -0.0689 -0.1121
16275W        W31406  15.080   5.344   4.457  0.1014  0.0267  0.0188
16276W        W31407   4.221  15.576   3.629 -0.0265 -0.2511 -0.0278
16277W        W31408   6.359  18.407  12.335 -0.0390 -0.0370  0.1493
16278W        W31409   4.075  12.706   1.961 -0.0847  0.0580  0.1566
16279W        W31410  14.004  17.115  13.610  0.1278 -0.0641  0.0368
16280W        W31411   1.260   3.688  10.884  0.2531 -0.1741  0.0992
16281W        W31412  14.000   1.633  13.770 -0.1760 -0.0258 -0.0532
16282W        W31413  11.218  13.012  12.313  0.0521  0.1769 -0.0012
16283W        W31414  17.144   1.767   0.112 -0.1721 -0.0776 -0.1310
16284W        W31415  12.488  13.668   0.273 -0.2449 -0.1255  0.2599
16285W        W31416   2.038  15.406   4.917 -0.4621  0.3374 -0.0968
16286W        W31417  10.165   3.208   4.921 -0.1645  0.0573 -0.1411
16287W        W31418  13.359   3.531   2.290 -0.0640  0.2217  0.1690
16288W        W31419   6.581   5.457   1.685 -0.1732  0.2448 -0.3538
16289W        W31420  13.706   4.257   2.435  0.1221  0.0535  0.0277
16290W        W31421  15.835   1.264   2.571  0.0880 -0.5697 -0.1315
16291W        W31422   9.399   9.763  15.157 -0.0926  0.2312  0.3695
16292W        W31423   9.681   5.911  15.277 -0.0129 -0.1199  0.0495
16293W        W31424  16.222   1.086  12.561 -0.2646 -0.2542 -0.0629
16294W        W31425  18.096   7.208   3.118 -0.0312 -0.5523  0.2348
16295W        W31426  18.652  18.159   0.946  0.1029  0.0062 -0.0166
16296W        W31427   7.417   7.480   3.352 -0.0867  0.2593  0.2475
16297W        W31428   7.564   5.678   0.231  0.2231 -0.1188  0.2973
16298W        W31429   6.777   1.429  13.998 -0.0026  0.0341  0.3054
16299W        W31430   7.957   2.616   1.966  0.0273  0.0469 -0.1026
16300W        W31431  10.215   3.275   1.191  0.2429 -0.0219  0.1833
16301W        W31432  14.508  17.063  13.644  0.4202  0.3795  0.4132
16302W        W31433  16.422   4.080  14.698  0.2926  0.0583  0.2364
16303W        W31434  10.794   1.046   0.402 -0.2614 -0.3341  0.1026
16304W        W31435  16.450   8.132  11.012 -0.3779 -0.1073  0.1877
16305W        W31436  12.574  13.835  15.112 -0.1449 -0.1437 -0.4144
16306W        W31437   5.989  11.032   0.230 -0.0352  0.4165  0.2214
16307W        W31438  11.700   1.605  12.533  0.3057  0.1376  0.1911
16308W        W31439   1.859   6.873   2.295 -0.2255  0.1063  0.0373
16309W        W31440  17.913  11.628   2.856 -0.1448  0.0093  0.0575
16310W        W31441   2.523   2.957  13.892 -0.1885  0.1905  0.3090
16311W        W31442   5.927  16.493   2.915 -0.2226 -0.1072  0.4184
16312W        W31443   8.148   4.912   1.256 -0.0530 -0.0935 -0.0487
16313W        W31444   3.433   6.734   1.470  0.1276  0.1080  0.0830
16314W        W31445   4.684  11.673  12.937  0.3231 -0.3254  0.1707
16315W        W31446   1.036   3.616  13.612 -0.1242  0.4647 -0.2396
16316W        W31447  15.453  12.207   5.050  0.0770  0.0938 -0.0159
16317W        W31448   8.200  12.909   3.128  0.3654 -0.0404 -0.0434
16318W        W31449  18.508   8.498  13.799  0.2309 -0.1922  0.3050
16319W        W31450   2.333  13.676   3.580 -0.1229 -0.0596 -0.0176
16320W        W31451   5.873   1.590  15.535 -0.2955 -0.2619 -0.0035
16321W        W31452   9.981   5.726   3.952  0.2581 -0.0242 -0.1381
16322W        W31453   1.066  10.792  14.777 -0.0818  0.0505  0.2488
16323W        W31454  17.036   6.279  15.621 -0.2410  0.1908  0.1664
16324W        W31455  13.466  16.008   0.985 -0.2460  0.0981 -0.1331
16325W        W31456   0.583   7.426  11.648 -0.2343 -0.1553 -0.3008
16326W        W31457   2.917  12.813  13.331  0.0794  0.1964  0.3344
16327W        W31458  15.227   9.224  15.160 -0.1148 -0.0317  0.1227
16328W        W31459   0.188  15.973   5.416  0.1187 -0.3505  0.1372
16329W        W31460   7.308   8.482   4.221 -0.0684 -0.1384  0.0650
16330W        W31461  14.932  11.863   1.577 -0.1428 -0.3996  0.1977
16331W        W31462  11.881   9.723  10.686 -0.2791 -0.1933 -0.2432
16332W        W31463  13.435  10.186   2.733  0.0240 -0.2843 -0.0937
16333W        W31464  14.196  13.586  10.851 -0.1900 -0.1568 -0.1055
16334W        W31465   9.374  14.504  12.037  0.2673 -0.1818  0.0345
16335W        W31466  16.014  12.803   1.802 -0.0074  0.0592  0.0738
16336W        W31467   2.044   8.582  14.507 -0.0867  0.2654  0.0783
16337W        W31468  10.805   8.631   5.134 -0.1178  0.1579  0.0734
16338W        W31469  14.229   1.110  15.297 -0.0766  0.0050 -0.0312
16339W        W31470   8.957   4.757   3.639  0.0187  0.2968 -0.0393
16340W        W31471  14.927  10.403   3.736 -0.1918  0.0203  0.0422
16341W        W31472  15.340   3.691  13.881 -0.0345 -0.1705  0.3446
16342W        W31473  10.581  14.462  13.466  0.1995  0.1176  0.1491
16343W        W31474   6.676  15.951  14.094  0.1170 -0.4229  0.3344
16344W        W31475   7.515  10.446   5.760 -0.0697  0.0787 -0.1709
16345W        W31476   6.123  18.065   1.800  0.1620  0.0387  0.0006
16346W        W31477   0.579  10.044   4.760 -0.0426 -0.1451  0.0791
16347W        W31478   7.046   5.854  11.212 -0.0660 -0.3141  0.0188
16348W        W31479   1.586   5.662  11.841  0.0316 -0.0240  0.1302
16349W        W31480   1.337  13.891   1.236  0.2429  0.2412 -0.0394
16350W        W31481   8.177  17.831  12.324 -0.0165 -0.0963  0.2542
16351W        W31482   8.808  16.334   2.446 -0.0697 -0.0784 -0.0368
16352W        W31483   9.015   8.212   3.136  0.0732  0.1417  0.2191
16353W        W31484   1.398  15.324  14.773 -0.2007  0.0364 -0.1057
16354W        W31485  17.173   9.761   2.773  0.1068 -0.0766  0.0035
16355W        W31486   1.442   4.894   5.531  0.1405 -0.0241 -0.2050
16356W        W31487  13.144   3.598  14.390  0.2421  0.0455 -0.1160
16357W        W31488   3.150   2.976   4.902 -0.0383 -0.0751 -0.0055
16358W        W31489  13.193   1.868  14.095  0.2182 -0.1638 -0.0963
16359W        W31490   0.777  14.926   2.376 -0.0677 -0.2006 -0.2496
16360W        W31491  17.885   1.007   0.040 -0.0972  0.1637  0.3417
16361W        W31492   2.100  13.929  13.428 -0.1672  0.0276  0.0347
16362W        W31493   6.212   2.950   3.040  0.3131  0.0085  0.2554
16363W        W31494  10.526   8.696  11.106 -0.1218 -0.1741 -0.0187
16364W        W31495  16.237  10.994   2.390  0.0374  0.0222 -0.1180
16365W        W31496  12.063   0.069  14.504  0.1321  0.0291  0.0765
16366W        W31497   3.098  12.385  10.860  0.0220  0.0760  0.1454
16367W        W31498   2.043  13.525  11.003  0.3146  0.1516  0.4472
16368W        W31499  16.947   6.883   2.492 -0.0595 -0.0652  0.1046
16369W        W31500   0.672   9.350   4.184 -0.0604  0.2443 -0.0058
16370W        W31501  10.266   1.415  10.774 -0.2168 -0.2800  0.1112
16371W        W31502  14.087   5.923   5.054 -0.2179 -0.2661  0.0206
16372W        W31503  14.253  14.208  14.433  0.0708  0.1125 -0.0146
16373W        W31504  16.399   3.596   1.445 -0.1261  0.1109 -0.1715
16374W        W31505   5.574  13.140  12.643 -0.1004 -0.0459  0.1638
16375W        W31506  12.411   8.542  13.342 -0.0444  0.2137 -0.2062
16376W        W31507  13.808  15.594  15.512  0.0810 -0.0085  0.1814
16377W        W31508   9.949  15.855   2.207  0.1069 -0.2942  0.0310
16378W        W31509  15.316   8.770   1.759 -0.1011  0.2964 -0.1104
16379W        W31510  11.825  18.223  12.319  0.1665  0.0084  0.1252
16380W        W31511   2.350   0.112  13.805  0.0576  0.3842  0.1326
16381W        W31512   1.704  11.404   1.525  0.2290  0.1584  0.0210
16382W        W31513   5.819  13.944  14.888 -0.2660 -0.1211  0.0829
16383W        W31514  11.686   1.161  15.102  0.0315 -0.5434 -0.0011
16384W        W31515   9.740   0.475  10.475  0.1423 -0.0386 -0.1636
16385W        W31516   9.169   4.612   4.107  0.0353 -0.2977  0.0356
16386W        W31517  18.244  11.993  13.957 -0.1260  0.2504 -0.0429
16387W        W31518   9.178   9.234   5.797  0.0155 -0.1306  0.0561
16388W        W31519   3.820  12.876  15.099  0.2267  0.2034  0.0703
16389W        W31520   5.412   0.516   4.626 -0.2196 -0.0047 -0.3638
16390W        W31521  10.132  12.150   3.836  0.0487  0.2843 -0.0164
16391W        W31522   7.145   2.849   3.828 -0.3496 -0.0928  0.4307
16392W        W31523  11.065   7.789  10.992  0.0719 -0.2620  0.1083
16393W        W31524  11.625  12.786  12.436  0.4962  0.1483 -0.2850
16394W        W31525  12.393   2.703  11.205  0.2991 -0.3226  0.0982
16395W        W31526  14.345  18.285  11.706  0.2334 -0.2411 -0.0005
16396W        W31527   5.289   3.327   3.416  0.3060 -0.2113  0.0292
16397W        W31528  10.084   4.242   0.246  0.0920 -0.0707 -0.0158
16398W        W31529   9.095  14.850  15.568  0.2395 -0.1196  0.2081
16399W        W31530   4.995   5.313  11.645  0.2366 -0.0952 -0.4411
16400W        W31531   3.160  13.430  10.580 -0.1468  0.0109 -0.1684
16401W        W31532  12.113  11.362   3.868  0.1688  0.1137 -0.2085
16402W        W31533   6.623   5.739  10.963  0.2454  0.0159  0.0972
16403W        W31534   6.570   0.665  11.387  0.0243 -0.4308  0.2144
16404W        W31535   7.959   8.176   2.257 -0.0853 -0.0205 -0.0745
16405W        W31536   7.591  10.811   3.707  0.1057 -0.2262 -0.0845
16406W        W31537   3.945   2.192   2.742 -0.1291 -0.0522  0.0835
16407W        W31538   8.075   0.876   0.319 -0.3223 -0.2388 -0.1591
16408W        W31539  11.252   6.161  14.614 -0.4346  0.0352 -0.0262
16409W        W31540  12.083  12.840  12.905 -0.1431  0.4288 -0.2833
16410W        W31541   4.858  14.737  13.516 -0.0756  0.0495  0.1697
16411W        W31542   2.093   8.237  12.654  0.0204 -0.0149 -0.0656
16412W        W31543  14.392   0.804   6.342  0.0816  0.0926  0.2543
16413W        W31544   5.550  13.497   2.561  0.2528  0.1590 -0.1093
16414W        W31545  16.217   4.705  14.995  0.3691  0.0735  0.1167
16415W        W31546  18.078   7.965  11.990  0.0434  0.0698 -0.1281
16416W        W31547   5.886   0.534   5.334  0.2351 -0.1458 -0.0459
16417W        W31548  14.373   1.118  10.005  0.1000 -0.0768  0.2316
16418W        W31549  14.930   9.643   3.159 -0.1575 -0.2283 -0.2594
16419W        W31550   1.696  14.002  12.235  0.1385 -0.1693  0.0483
16420W        W31551  16.365   0.923   0.318 -0.1514  0.0523 -0.1044
16421W        W31552   1.228  11.339  11.354 -0.1515  0.2818 -0.0775
16422W        W31553   6.830  17.622  11.342  0.1656  0.1825 -0.0999
16423W        W31554  13.155   3.375  12.571 -0.3019 -0.1618 -0.0354
16424W        W31555   1.060  12.615   1.123  0.2303  0.1660 -0.1034
16425W        W31556   9.634   3.444   4.852  0.0458  0.1141  0.1502
16426W        W31557   6.239   6.759   3.922  0.0465 -0.0020  0.0571
16427W        W31558   4.261  16.968   0.677 -0.2654 -0.0147 -0.0782
16428W        W31559   2.751  12.097   2.548 -0.0688  0.1141  0.0489
16429W        W31560  10.406  14.860   4.207 -0.0554 -0.1619  0.3135
16430W        W31561   0.317  15.150   3.461  0.2770  0.2799  0.0525
16431W        W31562   2.476  15.217  14.674  0.1520  0.0029 -0.1164
16432W        W31563  13.065   6.804   2.456 -0.1806  0.0347  0.1177
16433W        W31564  11.219   2.346  14.065  0.0949 -0.1064 -0.1122
16434W        W31565  10.765  13.843   0.585  0.1006 -0.0821  0.3063
16435W        W31566  18.422   5.647   2.067 -0.1258 -0.3886 -0.1078
16436W        W31567   2.462   6.129   9.594 -0.3487  0.0930 -0.2422
16437W        W31568  15.265  10.242  12.102  0.3377 -0.0809 -0.1118
16438W        W31569   3.936   2.257   4.496  0.2835  0.1703  0.3556
16439W        W31570   3.774   7.055  11.144 -0.2436 -0.0841 -0.4708
16440W        W31571   7.390  16.209   0.785 -0.0617 -0.0637 -0.0473
16441W        W31572   1.989   1.040  12.424  0.0614 -0.0451  0.0094
16442W        W31573   7.255  15.209   4.092 -0.2685  0.0091 -0.5529
16443W        W31574  10.097  18.474  14.109 -0.0491  0.0762  0.2337
16444W        W31575   1.067   1.680   3.194 -0.2980 -0.1830 -0.2535
16445W        W31576   6.110  15.983   3.031  0.0511 -0.0102 -0.0109
16446W        W31577   2.538  16.849  14.740  0.0925 -0.2214 -0.1785
16447W        W31578  18.520  16.310   1.406 -0.0273 -0.4266  0.1324
16448W        W31579  14.853   1.594   1.501  0.1221  0.0921  0.0973
16449W        W31580  18.372   1.230   2.727  0.5936  0.1205  0.0812
16450W        W31581  17.742   9.401  13.206  0.2412  0.0091 -0.3209
16451W        W31582   6.917   8.783   1.803 -0.1524 -0.1486 -0.0502
16452W        W31583  10.565  10.216   3.607  0.0097 -0.0889 -0.1544
16453W        W31584  12.280   8.711   3.095 -0.0226 -0.0027 -0.2772
16454W        W31585   6.840  14.260  10.209  0.1430  0.1805  0.1201
16455W        W31586   5.603  10.493  13.990 -0.2501  0.1746 -0.1239
16456W        W31587   1.574   4.651  15.340 -0.6668 -0.1122 -0.1957
16457W        W31588   0.084   9.215  11.561 -0.0013 -0.4898 -0.2407
16458W        W31589   1.320  10.618   2.436  0.2359 -0.0927 -0.2263
16459W        W31590   0.932  12.110  12.257  0.3632 -0.1563  0.0245
16460W        W31591  13.721   5.795  10.174  0.0821  0.3774  0.0189
16461W        W31592   6.926  14.590   2.830 -0.3751  0.0769 -0.2662
16462W        W31593  15.181   2.799   1.689 -0.0294  0.2104 -0.2948
16463W        W31594  15.205  12.301  12.556  0.5363  0.0738  0.0759
16464W        W31595  12.060   5.558   4.950  0.0962 -0.0028  0.1147
16465W        W31596   8.750   8.973   3.992  0.3928  0.0837 -0.0726
16466W        W31597  12.213  17.005  13.671 -0.3472  0.0567  0.2129
16467W        W31598  10.891   7.691   0.662  0.0042  0.0194 -0.1638
16468W        W31599  13.610  17.036  13.915  0.3149  0.0143  0.0368
16469W        W31600   3.172   9.730   3.964  0.0715 -0.0732 -0.0228
16470W        W31601  12.099   9.428  12.932  0.2648  0.1546 -0.1606
16471W        W31602   9.118  17.773   5.829 -0.1046 -0.0549  0.0315
16472W        W31603   1.762   7.245  12.932 -0.1582  0.0874 -0.1357
16473W        W31604  11.103  16.836  15.129  0.1714 -0.0772 -0.0590
16474W        W31605  16.495  18.365   2.618 -0.3319 -0.5154  0.0605
16475W        W31606   5.351  17.250  12.214  0.0542  0.0150  0.2078
16476W        W31607   4.377   4.831   4.614 -0.0638 -0.1600  0.0830
16477W        W31608  16.113  15.110  12.761  0.1313  0.1857  0.3861
16478W        W31609   7.485   3.985  15.374  0.0620 -0.2268 -0.0529
16479W        W31610  12.830  16.641   2.053  0.0782 -0.0558  0.0208
16480W        W31611   1.165   0.688  14.614 -0.2071  0.0417 -0.3191
16481W        W31612   2.373  11.551  15.283 -0.3507  0.0113 -0.0431
16482W        W31613  15.266   4.623   9.531  0.1193 -0.1073  0.3324
16483W        W31614  14.477   1.594  14.218 -0.0524  0.3990  0.0977
16484W        W31615  14.549  16.177   3.462 -0.0111 -0.0306 -0.0544
16485W        W31616   1.175  16.005  10.891 -0.3765 -0.2169  0.2174
16486W        W31617  18.629  18.697   0.990 -0.0777 -0.1433 -0.0303
16487W        W31618   9.936  10.602   0.520  0.2229  0.1577  0.0316
16488W        W31619  15.436  10.239  11.367 -0.2073  0.3590 -0.1893
16489W        W31620  10.716  13.342   3.854 -0.0334  0.3771  0.0045
16490W        W31621   6.295   9.173  14.163  0.2622 -0.3064  0.1826
16491W        W31622  12.632  16.112   0.356 -0.0320  0.5865  0.0570
16492W        W31623   2.777   8.451   5.328  0.1445  0.1216 -0.1658
16493W        W31624  11.396   2.598   1.213 -0.3159  0.0458 -0.4504
16494W        W31625   1.075   2.402  12.108 -0.0247  0.1744  0.1328
16495W        W31626   4.274  13.084   5.264 -0.2224  0.0853 -0.2715
16496W        W31627   4.802  16.906   5.516 -0.0497 -0.2179 -0.2252
16497W        W31628  15.779  11.022   2.183  0.2889 -0.3295 -0.1152
16498W        W31629  18.389   5.573   1.506  0.1491  0.0585  0.3227
16499W        W31630   5.944   1.797   1.123 -0.1664 -0.2050 -0.0551
16500W        W31631  11.784  13.468   3.981  0.0539 -0.1324 -0.0785
16501W        W31632  14.870  17.951   4.362  0.0222 -0.2464 -0.2007
16502W        W31633   0.519   2.468   2.258 -0.3474  0.1802 -0.1336
16503W        W31634   7.082   2.456   1.002 -0.1658 -0.0705 -0.0331
16504W        W31635  10.147  10.612   1.510 -0.3650  0.0309  0.2893
16505W        W31636   5.397   6.288   2.006 -0.0087 -0.0999 -0.1003
16506W        W31637   5.934  12.245  11.299  0.1699  0.0532  0.0993
16507W        W31638  13.170   6.664   5.492 -0.2611 -0.1716 -0.2254
16508W        W31639  16.754  14.409  12.120 -0.0401 -0.1261 -0.2095
16509W        W31640   2.271   8.569   2.595 -0.1476 -0.0482 -0.4480
16510W        W31641   9.668  13.748   4.545  0.0946  0.4321  0.0418
16511W        W31642  18.373  10.010  11.198  0.1978  0.1403 -0.1012
16512W        W31643  11.325  11.838  11.531  0.2072  0.4706 -0.0077
16513W        W31644  12.542  15.430   9.647  0.0728 -0.1672  0.0126
16514W        W31645   9.834  17.117   1.202  0.1136 -0.0012 -0.1058
16515W        W31646  10.260   4.184   4.999  0.1197  0.0639  0.2157
16516W        W31647   6.719   2.416  13.910 -0.1554  0.1390  0.0181
16517W        W31648   4.050   1.893   0.037  0.3650  0.0821 -0.1778
16518W        W31649  12.790   0.207   4.032  0.2711  0.3197  0.0508
16519W        W31650   8.217   4.591   1.697  0.3611 -0.0395 -0.1134
16520W        W31651   1.617   6.628   1.553 -0.2069  0.2792 -0.0083
16521W        W31652   9.019   7.995  13.035  0.0264 -0.1405 -0.0534
16522W        W31653  14.281   6.465   2.590  0.2038 -0.1042 -0.2525
16523W        W31654   3.799  13.170  10.607  0.0609 -0.0614 -0.1251
16524W        W31655  10.856   3.517  11.048 -0.1416 -0.1513  0.0315
16525W        W31656   0.131  13.912  14.745  0.1583 -0.2678 -0.0284
16526W        W31657   3.414  10.824  12.104  0.0009 -0.0889  0.0392
16527W        W31658   4.345   3.419   9.490 -0.0697 -0.1091 -0.1761
16528W        W31659   0.638   6.617   3.974  0.2513 -0.3084  0.0851
16529W        W31660   6.354   5.006   1.900  0.2472 -0.3138 -0.1814
16530W        W31661   9.575   1.729   3.835 -0.1835  0.1035  0.1132
16531W        W31662   9.580  18.180   4.094  0.0915 -0.1494  0.1614
16532W        W31663   8.310   7.418   3.798  0.0401 -0.1640  0.0405
16533W        W31664   3.493  14.382   2.829 -0.3968  0.0293 -0.3508
16534W        W31665   3.302   5.386   2.490  0.0602  0.1673 -0.0523
16535W        W31666  10.114  14.741  14.114 -0.2356 -0.1644 -0.3527
16536W        W31667   3.007  11.726  11.962 -0.1381 -0.0186  0.1781
16537W        W31668   8.643   9.261  10.948 -0.1629  0.0698  0.0777
16538W        W31669  15.018  15.303   5.043  0.0640  0.0938  0.0351
16539W        W31670   3.630  17.941   0.722 -0.1555 -0.0973  0.3413
16540W        W31671  10.024   3.202   2.883  0.3679  0.0255 -0.1803
16541W        W31672  14.455   2.466  11.701 -0.3056 -0.1011 -0.3348
16542W        W31673   9.993   0.369  13.927  0.3455 -0.0745 -0.1256
16543W        W31674   6.334  14.022   9.459  0.0718 -0.3661 -0.1609
16544W        W31675  14.740   7.030   3.491  0.1339  0.1904 -0.1767
16545W        W31676   4.383  18.625   4.791 -0.0955  0.3737  0.1855
16546W        W31677  11.612  10.489   2.225 -0.0133  0.1925  0.0779
16547W        W31678  12.348   3.424   0.881  0.0872 -0.0570 -0.0276
16548W        W31679   7.861   7.138   2.381  0.3297 -0.1410  0.3776
16549W        W31680  18.084  16.062  10.259  0.0787 -0.1169 -0.1942
16550W        W31681   7.117   7.237  10.502  0.2004 -0.0091 -0.1647
16551W        W31682  10.110   0.749   3.408  0.2693  0.3112  0.0264
16552W        W31683   8.734   5.868   3.742 -0.2381 -0.0250  0.2409
16553W        W31684  14.589   3.043   0.465 -0.0691  0.0770  0.0700
16554W        W31685   2.864  17.542  15.618  0.0478  0.2400 -0.0519
16555W        W31686  11.226  10.333  14.277 -0.0434 -0.0598 -0.2530
16556W        W31687  14.511  10.089   2.998 -0.2453  0.1405 -0.0092
16557W        W31688   6.181  17.855  13.596  0.0953 -0.1100  0.0945
16558W        W31689   7.599   3.265  13.819 -0.3141  0.2230 -0.1200
16559W        W31690   7.608  14.675  14.699  0.3825 -0.1624 -0.0439
16560W        W31691   8.758   6.829  11.684  0.1081 -0.2071 -0.1089
16561W        W31692   2.952  10.456   2.745  0.0754 -0.0624 -0.0410
16562W        W31693   3.089   1.534   0.357 -0.0052  0.1421 -0.3184
16563W        W31694  10.463  11.984   3.393 -0.0211 -0.0434  0.3395
16564W        W31695   8.992   4.867  10.510  0.0847 -0.1169 -0.0196
16565W        W31696   9.468   1.273  13.153  0.6865  0.0927  0.3875
16566W        W31697  18.090   7.447   9.353  0.0236 -0.1820 -0.2222
16567W        W31698  16.801   5.326  14.777  0.1834 -0.2149  0.0476
16568W        W31699   5.800   7.397  11.308 -0.1598 -0.0231 -0.3212
16569W        W31700   8.223  11.769   4.025 -0.0626  0.2589 -0.1086
16570W        W31701   3.207  12.506   0.045 -0.0216 -0.2745 -0.0618
16571W        W31702  12.678  17.961   3.690 -0.1358  0.0821 -0.2278
16572W        W31703   7.684   5.155  15.641  0.2108 -0.0199 -0.6255
16573W        W31704  15.970   2.558  13.705  0.3114 -0.5396 -0.4609
16574W        W31705  10.311  15.228  14.053 -0.0630  0.0870 -0.3818
16575W        W31706  18.395   4.176  15.323 -0.0358 -0.0553  0.0148
16576W        W31707  12.189  12.734  11.912 -0.2154 -0.3283  0.4940
16577W        W31708  18.637   1.153  12.877  0.1430  0.2777 -0.0185
16578W        W31709   2.085  15.170  14.986  0.0950  0.0713 -0.2287
16579W        W31710  16.338   5.583   2.775  0.1368  0.0190 -0.3232
16580W        W31711   0.239   7.538   3.662  0.1843  0.2969 -0.3604
16581W        W31712   5.914   9.489  10.849  0.1233 -0.0897 -0.3516
16582W        W31713  13.579  12.890   2.266 -0.0137  0.1865  0.1675
16583W        W31714  14.030   5.356   3.625 -0.1280 -0.1601  0.0219
16584W        W31715  14.303  15.079   0.174 -0.1070 -0.1609 -0.1562
16585W        W31716   4.507  17.369   1.613 -0.0648 -0.0661  0.0238
16586W        W31717   9.915   2.288  11.562 -0.2358  0.3737 -0.3321
16587W        W31718   7.051   8.251   4.736  0.1736 -0.0128  0.4269
16588W        W31719  10.591  16.104   3.823 -0.3087  0.2846 -0.0188
16589W        W31720  10.013   7.238  12.320 -0.0012 -0.1586 -0.1061
16590W        W31721   7.965  16.950   4.412 -0.0418 -0.2700 -0.0008
16591W        W31722  15.371   6.064   2.845  0.0010  0.4164 -0.3218
16592W        W31723   5.987   8.705  10.458 -0.1925 -0.0528 -0.2097
16593W        W31724  14.477  18.749  13.194 -0.0751 -0.0122  0.0480
16594W        W31725  10.044   6.729  12.420  0.2749  0.1125  0.3399
16595W        W31726  14.218  14.579  11.721  0.0185  0.2398 -0.0266
16596W        W31727  16.948   7.184   0.748  0.2609 -0.1779  0.0942
16597W        W31728  16.255  15.298   2.189 -0.0003  0.0964  0.0984
16598W        W31729   1.683   1.613  10.422  0.0005 -0.0108 -0.1246
16599W        W31730   5.240   1.048   0.136 -0.2235 -0.1489  0.3051
16600W        W31731  18.516   6.975   2.910  0.0530 -0.4493 -0.1138
16601W        W31732   3.066  13.640  14.111 -0.0134  0.1528  0.1015
16602W        W31733  11.339  13.781  15.700  0.2691  0.0799  0.1657
16603W        W31734  10.781   0.316  15.165  0.0488 -0.5672  0.1230
16604W        W31735  16.190   9.521  11.494 -0.3200 -0.2201 -0.1368
16605W        W31736   8.795   2.127   1.821 -0.2115 -0.1353 -0.1983
16606W        W31737   8.448  10.290  11.816 -0.2365  0.0723  0.0385
16607W        W31738   2.354  14.819   4.879  0.3723  0.1572  0.1617
16608W        W31739  15.329   1.675  14.545 -0.4145  0.1115  0.1617
16609W        W31740   4.061   5.341   2.197 -0.2194 -0.0414 -0.4038
16610W        W31741  16.911  17.502  13.473 -0.1868 -0.0582  0.1348
16611W        W31742   9.168  17.382  11.410 -0.2736 -0.1791  0.0474
16612W        W31743   0.284   5.498  11.219 -0.0266 -0.2062  0.1262
16613W        W31744  14.672  13.473   2.494 -0.0756 -0.2313  0.0450
16614W        W31745  13.845   8.578   1.489  0.1794 -0.1400  0.2440
16615W        W31746   5.915  13.492   0.744 -0.6039  0.0393 -0.2602
16616W        W31747  11.403   2.705  15.544  0.1743 -0.2893 -0.0985
16617W        W31748  11.854   4.740   1.817  0.2077  0.0644  0.3027
16618W        W31749   5.687  11.541  14.169  0.0986  0.1740  0.1017
16619W        W31750   9.980  10.918   0.111  0.1659  0.1170 -0.0052
16620W        W31751   2.279  13.189  12.402 -0.2208 -0.2885  0.1680
16621W        W31752  13.134  10.020  11.702 -0.1903  0.0078  0.4956
16622W        W31753  16.360   3.669  12.778  0.1595  0.0191 -0.0500
16623W        W31754   4.862   1.194  13.520  0.2499 -0.0532 -0.1695
16624W        W31755   6.343  15.595   9.830  0.2101  0.1286  0.0442
16625W        W31756   0.720  13.817  14.733  0.0822  0.2048 -0.0350
16626W        W31757   8.681   2.792  13.585  0.4019  0.2342 -0.1509
16627W        W31758   0.635  15.852   1.949  0.4955  0.2059  0.1131
16628W        W31759  15.729  17.582  12.856  0.1853 -0.2239 -0.2494
16629W        W31760   4.603   9.811  11.217 -0.4068 -0.3617  0.0071
16630W        W31761   2.461  15.320   4.651 -0.0849  0.0099 -0.2076
16631W        W31762   9.127  10.990   5.797 -0.1829 -0.3658 -0.0210
16632W        W31763   1.337   2.372   4.667  0.1538 -0.0606 -0.0094
16633W        W31764  10.988   3.941   5.298 -0.0369 -0.1926 -0.0276
16634W        W31765  17.365   8.879   0.911  0.0258 -0.0040 -0.2103
16635W        W31766  16.151  11.717   3.087  0.0889  0.1586 -0.0618
16636W        W31767  18.606  18.164  12.524 -0.0498  0.1565  0.0895
16637W        W31768  17.062  13.801   3.421  0.2411 -0.2275 -0.0542
16638W        W31769   2.659   2.013  11.699 -0.1526 -0.0821 -0.3212
16639W        W31770  10.591   7.104  14.497 -0.0355 -0.0116 -0.0808
16640W        W31771  14.599   7.053  14.592  0.1226  0.0947  0.0905
16641W        W31772   9.789   3.518   1.582 -0.0803 -0.0646 -0.3247
16642W        W31773  17.491   5.695  11.562  0.1736 -0.0259 -0.0837
16643W        W31774  13.918  15.075  10.939 -0.0921  0.0783  0.0587
16644W        W31775   0.462  12.253   4.390  0.2369  0.0297 -0.0331
16645W        W31776  10.214  16.610  11.504  0.0964 -0.2232 -0.2501
16646W        W31777  15.802   1.224  13.822 -0.0844  0.1144  0.3641
16647W        W31778   0.477  18.043  13.344 -0.0054  0.0195  0.0706
16648W        W31779  10.684  10.829   0.454  0.0309  0.1830 -0.0077
16649W        W31780  17.917  17.848  14.900  0.1953 -0.1219 -0.2712
16650W        W31781  14.209   5.048  11.027 -0.1152  0.2864 -0.2118
16651W        W31782  11.477  13.305   4.916 -0.4379 -0.2098 -0.0831
16652W        W31783   7.679   3.711  13.588  0.1389  0.1844 -0.0030
16653W        W31784  16.889   5.861  13.277  0.0617  0.0533 -0.1135
16654W        W31785   0.683  10.573  13.687 -0.3344  0.2709  0.2302
16655W        W31786   2.545   5.174   3.203  0.0445 -0.0893  0.2851
16656W        W31787  14.462  13.995  14.908 -0.1268  0.0264 -0.1104
16657W        W31788  10.486  14.020   4.586  0.1690 -0.0180 -0.2081
16658W        W31789  15.926  12.125   1.841  0.0937  0.2386  0.0399
16659W        W31790  14.674   5.904   1.051 -0.3400  0.3200  0.1316
16660W        W31791   4.088  18.621   2.291  0.2926  0.2075  0.1292
16661W        W31792   0.191  11.768   4.014 -0.0469 -0.0564  0.0333
16662W        W31793  17.584  14.746   4.267  0.0195  0.2401  0.1905
16663W        W31794   1.048   1.372  13.232  0.0274 -0.1435 -0.1337
16664W        W31795   7.256  12.375  14.956  0.0034 -0.0264 -0.0185
16665W        W31796  15.652   5.344  13.143 -0.0895  0.0413  0.2934
16666W        W31797  18.519   9.991   2.619 -0.1326  0.1504 -0.0520
16667W        W31798  11.365  11.787   6.127 -0.2963  0.0082  0.0970
16668W        W31799  18.250  11.942   5.415  0.2414 -0.0871  0.0218
16669W        W31800  11.085   6.923   5.460  0.2789 -0.5471  0.1278
16670W        W31801  13.239   9.451  10.161 -0.0300  0.0397 -0.2569
16671W        W31802  15.668   7.127  12.858  0.2345  0.0852 -0.1750
16672W        W31803   3.272   9.975   1.490  0.0087 -0.2364 -0.0122
16673W        W31804   2.130   0.240   1.232  0.0878  0.1059 -0.1363
16674W        W31805   4.285  12.817   0.919  0.1764  0.2212  0.1086
16675W        W31806  13.326   5.197  11.278 -0.0611 -0.0637 -0.0440
16676W        W31807  15.031   8.438   1.457  0.0867 -0.1225 -0.1649
16677W        W31808  18.371   3.189  12.378 -0.0021  0.1416  0.1288
16678W        W31809  17.454  16.026  12.557  0.1794  0.2290  0.0282
16679W        W31810   7.002  10.164   2.705 -0.1944  0.2719  0.1270
16680W        W31811  18.397   8.085  14.601 -0.0462  0.0794 -0.1392
16681W        W31812   7.307   2.057  13.685  0.1726  0.0096  0.2016
16682W        W31813   0.007   0.125   2.638  0.2330 -0.1570  0.2636
16683W        W31814  10.053   1.834  10.846 -0.0257 -0.2924  0.0573
16684W        W31815   6.272   3.664  15.657 -0.0651  0.0517  0.0341
16685W        W31816   8.343   8.519   0.398 -0.0198 -0.0305  0.0336
16686W        W31817  10.868  13.235  11.979 -0.3545  0.0828 -0.0831
16687W        W31818  14.037   1.223  13.553  0.5898 -0.0054  0.1211
16688W        W31819  11.278  15.292  14.563  0.0312 -0.1170 -0.0061
16689W        W31820  14.570   0.631  10.983 -0.2149  0.4398  0.4649
16690W        W31821   9.846   0.338   4.327  0.0188  0.0208 -0.2266
16691W        W31822  16.562  14.638  10.990  0.0435 -0.1359  0.1468
16692W        W31823   4.685   8.626  11.677 -0.1980 -0.2142 -0.0017
16693W        W31824   1.330  16.136   2.453 -0.1099 -0.0657  0.2506
16694W        W31825   6.410  12.835  10.966  0.0562  0.0648 -0.2010
16695W        W31826  15.728  18.589   2.070 -0.0357 -0.0639 -0.3841
16696W        W31827  17.245   3.108   0.421 -0.2713  0.3674 -0.4436
16697W        W31828  16.230   5.691   0.906 -0.1671  0.4029  0.1238
16698W        W31829  11.527  12.762  11.974 -0.1561 -0.1899  0.4527
16699W        W31830  13.359   2.643  14.781  0.3156  0.1222  0.1749
16700W        W31831   8.365  17.672   4.601 -0.0182  0.1495 -0.1750
16701W        W31832  11.320  14.821  14.688 -0.0071  0.3655  0.2124
16702W        W31833   6.808   2.303  15.030  0.1118 -0.0482  0.1702
16703W        W31834   3.769   7.297   5.297  0.0137 -0.3193  0.0434
16704W        W31835   7.473  13.816   3.317  0.1202  0.1987  0.0895
16705W        W31836   8.101  15.582   4.842 -0.3051  0.2627  0.2929
16706W        W31837   6.519  17.511  13.282 -0.3920 -0.2510  0.1826
16707W        W31838   8.617  11.026  13.542 -0.0564 -0.2205 -0.2113
16708W        W31839  11.470   2.669  10.962  0.0170 -0.2450 -0.2054
16709W        W31840  12.673  15.693  13.346  0.0473  0.1388  0.0288
16710W        W31841  10.758   3.036  12.852 -0.1557 -0.0460 -0.0620
16711W        W31842   1.764   9.903  12.400 -0.3310  0.0851  0.3922
16712W        W31843  14.323   8.213   1.600 -0.2848 -0.3740 -0.0895
16713W        W31844   6.434   6.628   2.256 -0.1288 -0.4238  0.1306
16714W        W31845  11.562  12.363   2.921 -0.1585  0.1711 -0.1369
16715W        W31846  14.299  13.798  15.533  0.0601  0.0143  0.1259
16716W        W31847   8.538  11.399   3.836 -0.0148  0.0596 -0.2854
16717W        W31848   6.109   0.327   2.990 -0.0755 -0.1931  0.1243
16718W        W31849  16.194   5.117  12.823  0.4716  0.2015 -0.0886
16719W        W31850  13.762  14.585   4.447 -0.0647  0.1148 -0.1993
16720W        W31851  14.911   9.770  12.771  0.1055 -0.0220 -0.1076
16721W        W31852  12.229   0.006  13.923 -0.0188  0.0532 -0.0785
16722W        W31853  10.559  17.964  13.814  0.0276  0.0197 -0.1893
16723W        W31854   7.529   4.322  13.698  0.1134 -0.0555 -0.2069
16724W        W31855  17.984   4.150   3.917  0.3845 -0.1820  0.0892
16725W        W31856   3.265   0.123   4.924  0.1039  0.1576 -0.1841
16726W        W31857  16.126   1.472  13.469 -0.1399  0.2014  0.0063
16727W        W31858   6.544  17.657   3.453  0.1156  0.0347  0.0696
16728W        W31859  11.723   2.482   2.495 -0.0121 -0.3894 -0.0498
16729W        W31860  12.587   6.034   4.503  0.1433  0.1328  0.0435
16730W        W31861  16.833   2.229   5.275  0.0829  0.0507  0.1788
16731W        W31862  13.322   4.473   3.337  0.2766  0.0948  0.0225
16732W        W31863  15.213  12.601  12.162  0.6891  0.1690 -0.1839
16733W        W31864   7.721   8.321  10.814  0.3154 -0.0417  0.0466
16734W        W31865  17.223  18.394   4.247 -0.0095 -0.0209 -0.2682
16735W        W31866  15.376  17.324  10.367 -0.1277 -0.1323  0.0822
16736W        W31867  16.089  14.430   4.742 -0.3037 -0.0964 -0.1281
16737W        W31868   2.406   1.108  14.993  0.2192  0.0072  0.0064
16738W        W31869   7.088  18.116  10.293 -0.0173  0.1510 -0.0823
16739W        W31870   6.101  17.886  14.083  0.2186 -0.0525  0.0376
16740W        W31871  17.907   1.834  12.144 -0.2400 -0.0291  0.5108
16741W        W31872  16.317   7.301   1.250  0.0047 -0.2234 -0.0374
16742W        W31873  10.704   8.736  11.718  0.1628  0.2894  0.1483
16743W        W31874   1.378   0.661   0.543 -0.1791  0.1178  0.2966
16744W        W31875   3.929  11.207  14.055  0.0730 -0.0881 -0.1968
16745W        W31876  14.309  17.265  12.414  0.2211  0.0690  0.0026
16746W        W31877  13.565  16.342  14.948 -0.4061  0.0729 -0.1988
16747W        W31878  18.412  10.870   3.586  0.1243  0.0630 -0.3139
16748W        W31879   5.183  12.986  13.476  0.3717 -0.2210 -0.2048
16749W        W31880  15.034   5.287  12.292  0.3505  0.1374  0.0569
16750W        W31881  11.510   2.836   3.415  0.3279  0.1431 -0.1503
16751W        W31882  14.621   4.278   0.370  0.2019  0.2102  0.2138
16752W        W31883   9.106   2.467   2.035  0.2611 -0.1685  0.4087
16753W        W31884  14.113  13.406   3.706  0.2758 -0.2903  0.1882
16754W        W31885   1.059   4.501   3.511  0.1281  0.2453 -0.2850
16755W        W31886   1.760   1.229   3.032 -0.1867  0.0045 -0.0411
16756W        W31887   9.222  17.106  13.152  0.1143 -0.0130 -0.1062
16757W        W31888  11.300   0.072   2.843 -0.0800 -0.3683  0.0949
16758W        W31889   0.506  13.207   4.609 -0.0820  0.2105 -0.2127
16759W        W31890   0.230  10.419  11.221 -0.0853  0.0854 -0.3243
16760W        W31891   1.086  10.274  12.654 -0.0425 -0.1067 -0.0482
16761W        W31892  17.668   1.861   4.861 -0.0075  0.0757 -0.0166
16762W        W31893   5.748  16.589   0.029  0.0258  0.3595 -0.0598
16763W        W31894   1.015  11.027   2.804 -0.1355 -0.4696  0.2844
16764W        W31895   3.622   1.135   0.871 -0.1709  0.0811 -0.0947
16765W        W31896  10.744  10.145   4.888  0.1068  0.1057  0.0066
16766W        W31897   5.140  10.044  15.716  0.0073 -0.0651 -0.2619
16767W        W31898  10.590   4.022   5.819  0.0209 -0.1853  0.0802
16768W        W31899  11.275  13.033   5.778 -0.1512  0.0602  0.2888
16769W        W31900  12.463  10.247  15.463  0.0489 -0.1253 -0.0100
16770W        W31901  17.892   1.597   3.277  0.0629  0.1000 -0.0940
16771W        W31902   9.222   8.633  15.098  0.4568  0.3473  0.2211
16772W        W31903   5.224   6.161  14.149  0.1284 -0.0887  0.3267
16773W        W31904   0.103  13.618   4.637 -0.0787  0.2915 -0.2394
16774W        W31905   3.897  12.123  10.729 -0.0129 -0.0153  0.1298
16775W        W31906   6.649   5.700  14.100 -0.0525  0.1498 -0.3433
16776W        W31907   3.981  16.333   2.350  0.0532  0.0696  0.2779
16777W        W31908   4.527   6.748   2.255  0.3081  0.2002  0.0461
16778W        W31909  18.672  11.457  10.996 -0.3124  0.0600 -0.0322
16779W        W31910  11.815  16.956  13.968  0.3560 -0.1771 -0.1020
16780W        W31911  14.329  10.128   0.213 -0.0068  0.0796  0.0529
16781W        W31912   8.321  13.772   5.097  0.1564  0.1053 -0.2680
16782W        W31913   0.863   4.538  10.582  0.1579  0.2182 -0.1501
16783W        W31914  10.768   5.062   3.475  0.2372 -0.1420  0.2714
16784W        W31915   1.782   4.606  12.700 -0.0016 -0.3213  0.1269
16785W        W31916  17.118   9.160   1.202  0.0657 -0.3506 -0.0523
16786W        W31917   2.504   2.050   0.335  0.1212 -0.2292 -0.1839
16787W        W31918   4.691   1.931  14.425  0.1202  0.0868  0.0084
16788W        W31919   6.182  15.906   4.843 -0.0408 -0.0298  0.2333
16789W        W31920  15.724  14.841   2.640 -0.3096 -0.3781 -0.4289
16790W        W31921  14.117  18.682   4.777  0.1064  0.0119  0.1003
16791W        W31922  14.376  12.040   2.947 -0.5831 -0.0548  0.0620
16792W        W31923   0.608   2.848  12.897  0.2857  0.1483 -0.0417
16793W        W31924   1.728  11.903  12.957 -0.0363 -0.0151  0.0638
16794W        W31925   0.306  15.589   5.067  0.2485  0.2904 -0.2077
16795W        W31926  10.313   8.324   3.698  0.2889 -0.1592 -0.0269
16796W        W31927   0.863  14.002   2.328  0.0759 -0.2773  0.1194
16797W        W31928   8.870   3.250  10.446 -0.0540 -0.0537 -0.0304
16798W        W31929   8.491   2.169  12.703 -0.1775 -0.3158 -0.0449
16799W        W31930   3.332  11.490   1.007  0.1186  0.1580  0.0707
16800W        W31931   3.746   6.471  11.327  0.2199  0.1265  0.0545
16801W        W31932   1.010  13.491   2.056  0.0063 -0.1721  0.0084
16802W        W31933  17.504   6.346  15.529 -0.3221  0.1042  0.0375
16803W        W31934  17.929   9.354   4.303  0.3986  0.1265  0.0694
16804W        W31935  10.325  12.949  13.433  0.2305 -0.2298 -0.1845
16805W        W31936  13.081   0.564  14.144  0.1974  0.0559 -0.1210
16806W        W31937   5.233   4.921   2.412 -0.4984  0.4301  0.3205
16807W        W31938   3.571  15.038  11.722  0.2033 -0.2113  0.3566
16808W        W31939  15.727   5.332   3.277 -0.0362 -0.1191  0.1692
16809W        W31940  14.752  17.769  14.304 -0.0868 -0.1746  0.4340
16810W        W31941   5.967   7.856   2.464 -0.0303 -0.1080 -0.0980
16811W        W31942   1.415   6.959   0.243 -0.1871 -0.2401  0.0172
16812W        W31943   3.844   5.698  14.301  0.1987  0.3829  0.1666
16813W        W31944   6.206   9.694   5.686 -0.2134  0.1613  0.0679
16814W        W31945   1.751  17.507  15.009  0.0699  0.1016 -0.1104
16815W        W31946  15.509   0.415  13.345  0.2792 -0.1269  0.0221
16816W        W31947  14.545  17.293  10.904 -0.0464 -0.0691 -0.0621
16817W        W31948  17.145   6.270   3.624  0.0874  0.0504  0.3312
16818W        W31949  13.659   5.056   3.481  0.1504 -0.1286 -0.0342
16819W        W31950  11.723   0.484  14.629  0.2407 -0.0581 -0.5017
16820W        W31951   8.412  12.421   5.358  0.1000 -0.1730 -0.0489
16821W        W31952   4.643   2.613   1.128  0.3081  0.2566  0.1012
16822W        W31953   1.473  13.337  13.050 -0.0996 -0.4230 -0.1393
16823W        W31954   7.072   3.982  10.542 -0.2566 -0.0396 -0.0778
16824W        W31955   3.320   3.456   4.585 -0.1525  0.2359 -0.2105
16825W        W31956   2.894  18.710   0.706  0.3421 -0.1912 -0.1308
16826W        W31957   2.921  16.602   5.079 -0.1024  0.2564  0.3432
16827W        W31958   0.719   5.032  13.223 -0.1889 -0.3844  0.0401
16828W        W31959  12.103  14.905   5.960 -0.0430 -0.1579  0.3335
16829W        W31960   7.068   4.331  12.735  0.1419 -0.2365 -0.1357
16830W        W31961  16.843  13.128   0.995  0.1921 -0.0306 -0.1747
16831W        W31962   1.167   0.264   2.995 -0.0997  0.0254 -0.5758
16832W        W31963  13.474   5.203   4.733  0.2880  0.2936  0.3197
16833W        W31964  10.941   6.636  13.735 -0.1062  0.0863 -0.1244
16834W        W31965  18.455  15.891  12.618 -0.0207  0.0091 -0.3839
16835W        W31966   0.060  10.250   1.648  0.1291  0.2948  0.1006
16836W        W31967   0.099   4.366  15.250 -0.2400  0.0549  0.2492
16837W        W31968  12.656  13.571  13.196  0.0351 -0.0550 -0.0229
16838W        W31969   6.614   8.217   5.476 -0.1525  0.0630 -0.1771
16839W        W31970  17.563  13.777   1.645  0.1264  0.0531  0.0528
16840W        W31971  11.329  14.043   0.632  0.3462  0.2641 -0.0285
16841W        W31972  14.041  16.913  12.098  0.1036  0.0965 -0.1978
16842W        W31973   9.281   1.892  14.537 -0.0519  0.1770  0.2920
16843W        W31974  15.579   9.274  11.026 -0.2769 -0.0205  0.1681
16844W        W31975   6.128   2.045  14.471 -0.0671 -0.2612  0.2129
16845W        W31976   1.984   6.874   1.706 -0.0594  0.2022 -0.0685
16846W        W31977   3.473   1.445   1.270  0.2795 -0.0907 -0.0225
16847W        W31978   4.174   2.750  10.532 -0.1308 -0.0884 -0.1693
16848W        W31979  13.592   9.252  11.434  0.1492 -0.0631 -0.3947
16849W        W31980  10.177   6.516   5.375 -0.1031  0.2827  0.2616
16850W        W31981   8.478  15.637   2.290  0.2038  0.1142  0.2106
16851W        W31982  12.089  14.528   0.652 -0.0396 -0.1448  0.0663
16852W        W31983   5.649  10.909  14.766 -0.0601 -0.2230  0.0305
16853W        W31984   9.961  11.404  11.521  0.0257 -0.1407  0.1857
16854W        W31985   0.538  12.852  13.751  0.0382  0.1007 -0.1701
16855W        W31986  13.426  16.961   1.224 -0.0451  0.0899 -0.0740
16856W        W31987   2.500   1.521   1.974  0.0821  0.2302  0.1559
16857W        W31988  14.449   2.660  12.204 -0.1226 -0.2082  0.1474
16858W        W31989  10.009  11.224   1.510 -0.1942  0.1164  0.1586
16859W        W31990   2.874  17.011  14.401 -0.0171 -0.2756  0.1424
16860W        W31991   0.393  17.182   1.008  0.0563  0.0332  0.2075
16861W        W31992   8.388   0.090  13.267 -0.1203 -0.1770  0.0880
16862W        W31993  14.259   4.974  14.801  0.0008 -0.0563 -0.0000
16863W        W31994   0.801  13.158   1.754  0.1362  0.3386  0.1513
16864W        W31995   2.546  11.814  12.454  0.1109 -0.2290 -0.1401
16865W        W31996   7.137  17.171  12.782  0.1390  0.0084 -0.1895
16866W        W31997  12.967   1.885  12.841 -0.2572  0.0845 -0.0630
16867W        W31998  14.396  17.649  13.937 -0.0719 -0.1000 -0.0475
16868W        W31999   4.141  13.841  12.575  0.4673 -0.0467  0.1216
16869W        W32000   9.081   6.097   3.415 -0.1625  0.3191  0.1227
16870W        W32001   1.488  13.966   9.915  0.0227  0.0737  0.0619
16871W        W32002  16.505  15.670  13.523 -0.0876  0.0206  0.0654
16872W        W32003   6.616   3.242   2.879 -0.4464 -0.1738  0.4218
16873W        W32004  17.798  15.576   0.397 -0.2945  0.0668  0.4866
16874W        W32005   0.393  12.645  15.559 -0.2019 -0.5803 -0.0861
16875W        W32006   3.758  14.102   0.478  0.4403 -0.0382  0.2334
16876W        W32007   6.852  14.848   4.042 -0.1406  0.3390 -0.0167
16877W        W32008  17.846   3.912   4.743  0.2251  0.1951 -0.3796
16878W        W32009  13.462  16.045   5.951  0.3090 -0.1070  0.0105
16879W        W32010   9.865  10.361  12.255  0.0237 -0.0398  0.3062
16880W        W32011   5.102  12.512  13.297  0.2251 -0.0437 -0.1966
16881W        W32012   2.633  12.339   4.145 -0.1524  0.2035  0.1347
16882W        W32013   8.194  14.673  12.179  0.2888 -0.1003 -0.1259
16883W        W32014  17.819  11.897   4.486  0.0189 -0.1098 -0.0092
16884W        W32015  13.387   0.329   0.169 -0.2392 -0.1326 -0.1944
16885W        W32016   7.270  12.846  13.050  0.5358  0.0207  0.2799
16886W        W32017  16.784  16.777   0.470  0.1782  0.1214 -0.1670
16887W        W32018   3.621  11.577  10.251  0.1255 -0.0156 -0.0758
16888W        W32019  11.253  18.331   0.330 -0.3093 -0.2977 -0.2225
16889W        W32020   1.569   7.981   1.363 -0.3759  0.1887  0.1113
16890W        W32021   6.078   9.210  10.462 -0.2601  0.0164  0.1779
16891W        W32022   8.601  14.652   9.888  0.2524  0.1621  0.2200
16892W        W32023  10.823   2.375   2.135 -0.2588  0.0281 -0.3798
16893W        W32024   4.586   8.924   4.451 -0.0043 -0.1749  0.0514
16894W        W32025  10.331  13.618  10.819  0.2713  0.0417 -0.4937
16895W        W32026  10.253   5.332  12.478 -0.4056  0.3548 -0.3774
16896W        W32027   6.819   7.804   3.488  0.0434  0.1740 -0.2361
16897W        W32028   5.505  13.580  12.799 -0.0781  0.2198 -0.3245
16898W        W32029  14.861   2.275   4.241 -0.3687  0.0878  0.0860
16899W        W32030   3.011  16.309  10.871  0.3076  0.1679  0.0575
16900W        W32031   9.658   6.613   5.141  0.1414  0.2797 -0.1388
16901W        W32032  11.035   4.002  10.852  0.1027 -0.2102 -0.2386
16902W        W32033   5.020   2.098   4.420 -0.0883  0.0968  0.0030
16903W        W32034   3.995  16.905   1.072 -0.0087 -0.6111  0.3033
16904W        W32035  16.688  14.932   2.346  0.1914 -0.4062  0.0689
16905W        W32036  16.710   5.782   0.903  0.0751  0.0548  0.1668
16906W        W32037   9.852   3.672  14.145  0.1167 -0.0169  0.0899
16907W        W32038  18.470  10.658   3.086 -0.2858  0.2314  0.3471
16908W        W32039  11.980  11.653  12.577 -0.0648 -0.0253 -0.0081
16909W        W32040  17.089   7.514  14.068 -0.2234 -0.2167 -0.3029
16910W        W32041   7.076   5.487   9.340 -0.0204  0.1880  0.0557
16911W        W32042   4.299   7.739  11.394  0.0154  0.1412 -0.3494
16912W        W32043  10.331   6.721   3.419 -0.1701 -0.0221 -0.0079
16913W        W32044   8.522   4.265   4.487 -0.0881  0.2362  0.2367
16914W        W32045  10.560  17.090  12.311  0.0218 -0.1132 -0.2261
16915W        W32046  15.376   6.159   5.551 -0.1691  0.0520  0.3461
16916W        W32047   7.182  13.290   5.221  0.1987 -0.1705  0.0426
16917W        W32048  18.309   1.756   4.199 -0.0640 -0.1694 -0.1067
16918W        W32049   4.205   2.701  14.554  0.1472  0.0422 -0.0038
16919W        W32050   8.004   6.723  13.239  0.0311  0.1822  0.0593
16920W        W32051  14.739   2.461   0.425 -0.4692 -0.0905 -0.0304
16921W        W32052   3.502   6.765  12.587  0.0176  0.0576 -0.0286
16922W        W32053   0.341   0.963  10.810  0.3603 -0.2579  0.0005
16923W        W32054   0.324   8.404  15.104 -0.0560 -0.0988  0.1126
16924W        W32055   8.425  10.896   3.630  0.1234 -0.1653  0.1490
16925W        W32056  14.387  16.312  11.624  0.4460  0.2138 -0.0810
16926W        W32057   3.165   9.386  12.214 -0.0263 -0.1838 -0.4205
16927W        W32058   9.758  16.253   1.954  0.1028  0.0547 -0.1956
16928W        W32059   2.151   6.425  15.001  0.1425  0.0233  0.3394
16929W        W32060  16.717   0.884   2.929  0.3527 -0.1460 -0.1778
16930W        W32061   0.580   2.597   2.779 -0.0375 -0.0255 -0.3898
16931W        W32062  16.337   8.217   5.553 -0.1116 -0.0556  0.4839
16932W        W32063   2.440   6.014   4.664  0.1153  0.1408  0.2725
16933W        W32064   9.136  17.854   3.085  0.4784  0.1766  0.1319
16934W        W32065  12.360  12.556   4.218  0.0041 -0.0553  0.1600
16935W        W32066  10.575  16.528   3.415  0.0365  0.0214  0.3065
16936W        W32067  11.241   1.086  11.300  0.0853 -0.0030 -0.3343
16937W        W32068  16.729  10.378  12.188 -0.2680 -0.2424 -0.0764
16938W        W32069   7.971  10.635  15.173  0.0699 -0.2017  0.0332
16939W        W32070  15.698  17.954  14.363  0.0480  0.0231  0.0219
16940W        W32071   5.346   7.753  13.016  0.0295 -0.2945 -0.3856
16941W        W32072  12.816  17.338  11.146  0.0531 -0.0637  0.0211
16942W        W32073   7.858  12.948  10.753  0.1042  0.3613 -0.0774
16943W        W32074   6.265  10.005   4.550 -0.0776  0.0082 -0.0644
16944W        W32075   4.216  10.891   0.503 -0.0482 -0.2037 -0.0218
16945W        W32076  14.153   2.492  14.988  0.2376  0.2035  0.1032
16946W        W32077  10.124  11.022   5.792 -0.3377 -0.0817  0.0837
16947W        W32078   7.838  15.484  14.061  0.0315  0.1379  0.2419
16948W        W32079  11.929   7.437  14.518  0.1789  0.0581  0.2109
16949W        W32080  14.423   9.483   2.883  0.1150  0.2069  0.1941
16950W        W32081   2.076  11.275   3.662 -0.0422  0.1102 -0.1344
16951W        W32082   3.298  17.923   1.110 -0.1713  0.0773 -0.3772
16952W        W32083  12.721  16.385  15.679 -0.3266  0.0311 -0.0510
16953W        W32084  13.309   4.490   1.513  0.2412 -0.0120 -0.0380
16954W        W32085   3.436  14.984   1.786  0.1309 -0.3930  0.0539
16955W        W32086  14.090   0.952  12.980 -0.0715 -0.0114 -0.0270
16956W        W32087   6.274  17.632   0.560 -0.4016  0.0913 -0.1087
16957W        W32088   5.419  18.522  10.241 -0.1887  0.0143  0.1068
16958W        W32089  10.164   0.902   3.879  0.0083  0.0324  0.2280
16959W        W32090   0.997  18.247   3.933  0.1734  0.1546 -0.2654
16960W        W32091  16.705  11.805   0.786  0.0318 -0.1529 -0.0894
16961W        W32092  18.445  10.062   4.827 -0.0171  0.0027  0.2795
16962W        W32093   0.046  16.831  11.408 -0.2521 -0.1943 -0.0054
16963W        W32094   3.614   2.025  13.512 -0.2012  0.2916 -0.0871
16964W        W32095  15.990   6.475   5.171  0.0669 -0.1364 -0.0450
16965W        W32096  16.748   0.291   3.999 -0.0029 -0.6065  0.0889
16966W        W32097   0.272   3.457  11.280 -0.1098 -0.0677 -0.3655
16967W        W32098  14.121   9.525  15.649  0.0258  0.3782  0.0615
16968W        W32099  14.564   8.815  12.804 -0.0390 -0.2415  0.2971
16969W        W32100   0.532   2.610  14.202 -0.1358  0.0058  0.0798
16970W        W32101   7.160  17.521  10.959  0.0974 -0.2522  0.1674
16971W        W32102  11.586   8.063  12.401  0.0934 -0.1707  0.1102
16972W        W32103   4.531  14.905  15.150  0.2561 -0.2398 -0.3737
16973W        W32104   3.386   3.747   0.272 -0.0877 -0.1101 -0.0493
16974W        W32105   1.082   8.810  13.096 -0.0814  0.3583  0.0151
16975W        W32106   3.052  18.296  12.025 -0.1169  0.1504 -0.0612
16976W        W32107   5.597   9.967   4.084  0.0709  0.1834  0.2854
16977W        W32108   6.722  13.713   1.626  0.0800  0.3572  0.1868
16978W        W32109  13.154  17.491  12.998  0.2686 -0.2168  0.2840
16979W        W32110   0.099   8.236   3.377 -0.1917  0.3380  0.3729
16980W        W32111  11.634  11.606  11.806  0.0489 -0.0724  0.1440
16981W        W32112   4.201   0.697   3.928  0.2655  0.3373 -0.0291
16982W        W32113  13.726   3.806  12.471  0.0777 -0.3015  0.0912
16983W        W32114   3.006   0.529  14.556 -0.2938 -0.0154 -0.1416
16984W        W32115   6.089  15.174   3.291 -0.1508  0.0043 -0.2224
16985W        W32116  12.144   8.585   5.848  0.1514 -0.2526 -0.1011
16986W        W32117  16.167   9.424   3.904  0.0775 -0.1037 -0.2536
16987W        W32118  10.101  11.288   4.044  0.2290 -0.1732  0.0754
16988W        W32119  14.734   5.481  13.242 -0.1012  0.0618 -0.0907
16989W        W32120  18.591   8.646  10.678  0.1524  0.0962  0.4079
16990W        W32121   1.829   9.957   0.338 -0.0310 -0.2222  0.0392
16991W        W32122  14.191   7.782   1.894 -0.2199 -0.1260  0.2044
16992W        W32123   2.805   1.079   0.220 -0.0347  0.1713 -0.0015
16993W        W32124  15.701  13.088  11.733 -0.4456  0.1999 -0.2385
16994W        W32125  15.791   9.287   3.617  0.1315  0.2656 -0.1268
16995W        W32126  11.614   4.990  13.890 -0.3826 -0.0762  0.3102
16996W        W32127   2.034   4.729  14.508 -0.0357 -0.1924  0.0070
16997W        W32128  16.216   8.030  12.252  0.3251 -0.0256 -0.1829
16998W        W32129   9.161   0.307   3.772  0.0639  0.0395 -0.1201
16999W        W32130   9.852   6.723  13.950  0.1228  0.2292  0.4201
17000W        W32131   8.125  10.725  11.755 -0.0107  0.1166  0.0543
17001W        W32132  13.972  15.753   1.340  0.1929  0.2416  0.2000
17002W        W32133  18.195  13.634   2.839 -0.2221 -0.1029 -0.1550
17003W        W32134   3.494  12.262   1.989 -0.0968 -0.2946 -0.0260
17004W        W32135   8.178  16.978   4.946  0.0411  0.1067  0.1245
17005W        W32136  11.266   2.162  15.091  0.1427 -0.1733 -0.5016
17006W        W32137   0.063   1.513  10.862 -0.1748  0.1437 -0.2453
17007W        W32138  12.289   5.604   4.435 -0.0353 -0.0733  0.0153
17008W        W32139  12.993   7.132  14.570 -0.2441 -0.0591 -0.0995
17009W        W32140   0.502   5.916   2.705  0.0577 -0.0481  0.0243
17010W        W32141  15.493   4.967   3.560 -0.2051  0.2198  0.1776
17011W        W32142  13.919  18.651  13.465 -0.0956  0.1572  0.0919
17012W        W32143   3.139  15.921   0.890 -0.1478  0.0670 -0.3823
17013W        W32144   8.222   2.813  10.999 -0.0301 -0.1438  0.1726
17014W        W32145  13.584  18.287   4.428  0.1367 -0.0725  0.2194
17015W        W32146   5.794  13.113  10.721 -0.1846  0.2562  0.1211
17016W        W32147   9.637  14.079   5.805  0.1865 -0.4965 -0.0379
17017W        W32148  15.288  11.971   3.286  0.2701 -0.0992  0.0129
17018W        W32149  13.894  13.263   0.398 -0.1044 -0.1293  0.1096
17019W        W32150   0.398  15.380   3.994 -0.0397 -0.2117  0.0191
17020W        W32151   0.998  13.130  13.120 -0.1925  0.1650  0.1785
17021W        W32152  14.447  10.436   3.396 -0.0445  0.3396 -0.1964
17022W        W32153   1.592   0.266  11.421 -0.1581  0.1383 -0.0123
17023W        W32154  16.221  13.342   0.946 -0.0039 -0.0462  0.1781
17024W        W32155  13.711   7.655  14.352  0.1195  0.0417  0.2460
17025W        W32156   7.732  15.457  10.750  0.2213 -0.0338  0.4326
17026W        W32157  16.566  17.722   4.374  0.3139  0.2753  0.3998
17027W        W32158   6.685  15.091   0.745  0.3424 -0.0294 -0.1646
17028W        W32159   9.875   6.522  13.223 -0.1327 -0.0235 -0.0981
17029W        W32160  12.059   0.633   2.747  0.2239 -0.1094  0.2380
17030W        W32161   2.812   9.983  11.694 -0.0689  0.1396  0.2210
17031W        W32162  14.525  15.250  13.823 -0.1453  0.0549  0.3393
17032W        W32163  11.929  15.887   5.006 -0.1595 -0.0906 -0.0406
17033W        W32164  16.364  16.009   2.574  0.0308  0.0212  0.1983
17034W        W32165   3.706  16.121   4.938  0.0314  0.0124  0.1622
17035W        W32166   8.233   0.407  12.281  0.0940 -0.2592  0.0762
17036W        W32167   3.154   5.774  15.459 -0.0871 -0.0211  0.0526
17037W        W32168   3.924  17.720   3.858  0.2289 -0.2438 -0.2521
17038W        W32169   5.365  12.224   4.669  0.1330  0.0115  0.1249
17039W        W32170  15.135   6.667  15.441 -0.1426  0.1588  0.2193
17040W        W32171  14.100  13.879  13.350  0.0749 -0.0567 -0.0017
17041W        W32172  10.153   7.053  15.364  0.0041  0.0895 -0.2320
17042W        W32173  18.060  12.420   5.541  0.0661 -0.3094  0.1622
17043W        W32174   1.507  11.533   3.046  0.1615 -0.0535 -0.0633
17044W        W32175   2.979   1.543  14.387  0.0364  0.2265 -0.0056
17045W        W32176  15.634  13.172  11.154 -0.0147  0.1015  0.1609
17046W        W32177   2.647   9.057   1.553  0.1277 -0.1511 -0.0587
17047W        W32178   2.941   7.154   3.654 -0.1267 -0.2245  0.0772
17048W        W32179  15.151   8.611  13.874 -0.0738 -0.2547 -0.0978
17049W        W32180  16.762  15.545   0.290 -0.0437 -0.1916 -0.2617
17050W        W32181   4.538   6.812   3.619  0.0685  0.1211 -0.1518
17051W        W32182  10.028   8.153  11.866  0.2367  0.1355 -0.0384
17052W        W32183   6.567   6.219   3.906 -0.0869 -0.1434  0.0019
17053W        W32184  12.625  13.152   3.715  0.1546  0.5384  0.0438
17054W        W32185  13.441   4.884  11.700  0.2258  0.0088  0.0249
17055W        W32186  12.292  16.040  11.844  0.1405  0.1016 -0.1336
17056W        W32187   4.175  13.790  11.642  0.0466 -0.0843  0.2027
17057W        W32188   8.811  11.677  12.203  0.0259  0.1088 -0.5426
17058W        W32189   8.008   3.744  15.333 -0.0456  0.1362 -0.2133
17059W        W32190  11.192  18.367   2.746 -0.0210 -0.4170 -0.2457
17060W        W32191  17.528  11.107  15.302 -0.0397 -0.1279 -0.0327
17061W        W32192  13.639  13.173  12.288  0.0160  0.0576  0.2750
17062W        W32193   4.444   6.605   5.566  0.0431 -0.1482  0.1164
17063W        W32194  12.705  11.955  11.020 -0.1527 -0.1385 -0.1615
17064W        W32195   2.775  12.574  14.318 -0.1397 -0.1874  0.0212
17065W        W32196   4.123   5.180   0.722 -0.0082 -0.1758  0.0311
17066W        W32197   7.891  13.698  13.918  0.0125 -0.2171 -0.1472
17067W        W32198   5.520   8.674  15.212  0.2489  0.2422 -0.0310
17068W        W32199   1.854   1.406  14.904 -0.2643 -0.1205  0.2261
17069W        W32200   4.194   9.088  13.731 -0.1120  0.0880 -0.0138
17070W        W32201   7.493   0.956  14.343  0.0532  0.1580  0.1334
17071W        W32202   9.140   9.616  13.689  0.1055  0.1037 -0.0964
17072W        W32203   7.366   2.257   4.723 -0.2000 -0.0990  0.2638
17073W        W32204   7.275   6.329  14.668  0.1734 -0.4470 -0.4248
17074W        W32205  16.307   0.669   5.441  0.2818 -0.0891  0.0362
17075W        W32206  12.468  15.619   2.146 -0.0344 -0.2762  0.0215
17076W        W32207  13.647  12.650  15.186 -0.1885  0.1616 -0.1709
17077W        W32208  15.748  12.967   2.313 -0.3759  0.0327  0.2595
17078W        W32209  13.626  15.956   0.050  0.3412 -0.0836 -0.2081
17079W        W32210   4.739  18.178  13.535  0.0768 -0.0871 -0.1148
17080W        W32211  15.157   6.443  14.592  0.0344  0.1694  0.2475
17081W        W32212   6.159  15.871   1.196  0.0870  0.3349  0.4374
17082W        W32213   6.776   7.156   9.210 -0.1005 -0.0245  0.2002
17083W        W32214  15.344  13.663   4.086  0.2490  0.2019  0.0418
17084W        W32215   0.044  15.408   5.577 -0.2515 -0.1785  0.1000
17085W        W32216  15.347  16.617  11.951 -0.3148 -0.1257 -0.1620
17086W        W32217   4.171  10.764  15.019  0.1667  0.0098 -0.1074
17087W        W32218   0.244  13.656  13.034  0.1545  0.2397 -0.1199
17088W        W32219  15.716  15.485   1.851  0.4798  0.1204 -0.1082
17089W        W32220   8.553   7.841  15.165  0.1811 -0.0403 -0.1084
17090W        W32221  10.509  15.687  13.958  0.0326 -0.0314 -0.0594
17091W        W32222   5.193   3.714  12.068  0.0190 -0.1900 -0.1459
17092W        W32223  12.374   2.350   4.978 -0.1531 -0.4164 -0.0105
17093W        W32224  13.737  13.910  15.546  0.1654 -0.1327  0.0037
17094W        W32225   1.785  18.433   0.686  0.0731  0.0178  0.0392
17095W        W32226   7.117  17.062   3.038  0.2983 -0.1786  0.4520
17096W        W32227  18.026   2.373   1.757 -0.3247 -0.1572  0.0373
17097W        W32228  11.310  18.421  13.693  0.1563  0.0902 -0.1559
17098W        W32229  17.184  14.343   3.667  0.0203  0.0061 -0.0104
17099W        W32230  11.506  16.045   3.456  0.2234  0.0143  0.2427
17100W        W32231  11.890  18.593  10.592  0.1482  0.0573 -0.1781
17101W        W32232   8.606   6.693  12.182 -0.1194  0.0789  0.1967
17102W        W32233  18.266  18.127   3.082 -0.2458  0.4138 -0.1924
17103W        W32234   6.009   5.052  14.541 -0.0158  0.1213  0.2016
17104W        W32235  17.137   7.407   2.841 -0.0035 -0.1253 -0.0378
17105W        W32236   0.968  18.584   4.962 -0.1449  0.1597 -0.1241
17106W        W32237  14.435  11.549   3.167 -0.3494 -0.2865  0.2652
17107W        W32238  12.956  10.932  13.113  0.2898 -0.4926 -0.1831
17108W        W32239   2.476  12.000   1.215  0.3152  0.0818  0.0834
17109W        W32240   5.391   0.841  10.616 -0.2568  0.2178 -0.3906
17110W        W32241   2.253  12.986   9.784 -0.0037 -0.0452  0.1225
17111W        W32242  15.921   8.917   4.937 -0.0631 -0.2882 -0.1341
17112W        W32243  18.670  18.308  11.967 -0.0094  0.0547 -0.1484
17113W        W32244  14.271   0.789   2.844  0.3798  0.2287  0.4334
17114W        W32245   9.577   9.299  15.281 -0.1760 -0.2308 -0.1341
17115W        W32246  10.915   6.439   4.609 -0.0219  0.3031 -0.3243
17116W        W32247   6.305   7.013  15.178  0.0077  0.2322 -0.1131
17117W        W32248  10.845  18.221   4.630  0.0640 -0.1226 -0.1237
17118W        W32249   3.971  11.625  14.335  0.3104  0.0772 -0.0630
17119W        W32250  15.998  15.204  10.781 -0.3659 -0.3493  0.1117
17120W        W32251   9.583   3.308  10.028 -0.1272 -0.3069 -0.3034
17121W        W32252   8.666   6.901  15.272  0.1045  0.3340 -0.0920
17122W        W32253  18.362  10.704   4.869 -0.2932 -0.1413 -0.0482
17123W        W32254  11.459  13.217   3.428 -0.0009 -0.0539  0.1628
17124W        W32255   1.913   7.751  12.937  0.1029 -0.1043  0.1248
17125W        W32256  11.920  10.766  11.432 -0.0833 -0.4183 -0.0242
17126W        W32257  10.479   7.401  13.444  0.0369  0.2201  0.1418
17127W        W32258  17.585   2.921   3.248 -0.1364 -0.3972  0.0508
17128W        W32259  17.128  10.631  10.994 -0.0975 -0.1405 -0.0977
17129W        W32260  17.535  12.585  10.600 -0.1491  0.0124 -0.2257
17130W        W32261  16.851   2.152   1.731 -0.0080  0.0304 -0.2309
17131W        W32262   2.691   5.760   5.028  0.0966 -0.1081 -0.2156
17132W        W32263   4.594   0.636  14.840  0.1141  0.0256 -0.0679
17133W        W32264   4.564   1.088  15.099 -0.4931  0.3033 -0.1793
17134W        W32265   8.406   4.429   5.401  0.0028  0.0117  0.0601
17135W        W32266   4.085  17.145  13.731 -0.0745  0.0305  0.0575
17136W        W32267  18.414  11.921   1.081  0.1126 -0.1388  0.0998
17137W        W32268   7.019   4.423   9.782  0.0310 -0.1663 -0.1401
17138W        W32269   6.445  15.769  11.379 -0.0701 -0.0682 -0.8309
17139W        W32270   5.553  11.818  13.380  0.2458  0.2106 -0.1967
17140W        W32271  14.509  16.472  14.777  0.0896  0.0023 -0.2283
17141W        W32272   8.849  15.401  12.224 -0.3528 -0.1206 -0.2304
17142W        W32273   2.599  17.570   2.457  0.0970  0.2638  0.3515
17143W        W32274   8.955  16.808   0.955  0.1558 -0.1874  0.1621
17144W        W32275   8.253   9.934   4.625 -0.0171 -0.2799  0.1900
17145W        W32276   4.615   2.036   3.408 -0.0578  0.2283  0.0939
17146W        W32277   5.171   6.328  14.687  0.0061  0.0858  0.0996
17147W        W32278   4.796  16.576  14.621 -0.1292  0.0440 -0.3741
17148W        W32279  12.593  11.122   5.966 -0.1086 -0.0929 -0.2326
17149W        W32280   2.597   5.707  10.899  0.0659 -0.0623 -0.0180
17150W        W32281   9.940   3.473   3.794  0.1820  0.1929  0.0790
17151W        W32282  17.320   0.935  12.889  0.1153 -0.1321  0.0481
17152W        W32283   1.091  12.226   5.213  0.0693 -0.2402 -0.2427
17153W        W32284   2.679   5.717   1.748  0.0315  0.1424  0.2361
17154W        W32285  11.976  14.788   0.157  0.0512 -0.0429  0.0648
17155W        W32286  13.518   6.936   2.259 -0.0029  0.1170 -0.2267
17156W        W32287   4.580   5.806   1.141 -0.0672  0.0419  0.0299
17157W        W32288   1.476   0.140   0.672 -0.1161 -0.1095  0.0736
17158W        W32289  16.255   2.927   4.698  0.4033 -0.1454  0.1422
17159W        W32290  12.300  14.047   1.494 -0.0931  0.0247  0.0885
17160W        W32291  13.726  10.570   2.701 -0.2788 -0.0382  0.2310
17161W        W32292   0.836  15.679   3.008  0.2213  0.0281 -0.0664
17162W        W32293  17.648  14.210   3.455  0.3307 -0.0788 -0.1009
17163W        W32294  13.457  10.207  11.242  0.0109  0.1599 -0.1443
17164W        W32295  12.471   5.921   1.878  0.0913  0.1255  0.2180
17165W        W32296   9.917   6.279   1.701  0.0957 -0.3883 -0.0204
17166W        W32297  16.362   6.203   2.596 -0.1761  0.1369 -0.2808
17167W        W32298  17.937   0.190   5.580 -0.1615 -0.1003  0.2317
17168W        W32299   8.109  16.535   3.689  0.2642 -0.5833 -0.0406
17169W        W32300   5.176   5.127  15.125 -0.2976  0.0301 -0.1146
17170W        W32301   2.610   7.028   2.483  0.3315 -0.1132 -0.2833
17171W        W32302  15.851  16.391  11.916 -0.2122  0.0216 -0.1532
17172W        W32303   6.935   7.919   2.824 -0.2066 -0.0654 -0.1189
17173W        W32304  15.829   4.271  14.066  0.1133 -0.0510 -0.4683
17174W        W32305   9.882  12.178   5.405  0.2716  0.0599 -0.2700
17175W        W32306  12.388   0.602  10.834 -0.0697  0.0722 -0.0679
17176W        W32307   0.748   5.357   2.413 -0.1955  0.2588  0.2486
17177W        W32308   8.087   1.026  11.795  0.0178 -0.0219  0.0283
17178W        W32309   8.190  12.677  14.512 -0.3077  0.0767 -0.0261
17179W        W32310  12.091   3.776   1.664  0.0224  0.1205  0.0050
17180W        W32311   4.030  17.392  15.651  0.2994 -0.1559  0.0954
17181W        W32312   1.912   5.868   2.073 -0.1695  0.1255 -0.4204
17182W        W32313  16.777  15.439   1.933 -0.3005 -0.0263 -0.1482
17183W        W32314   8.730   2.516  12.344 -0.0037 -0.0347  0.0609
17184W        W32315   0.951   2.863   3.967 -0.0607 -0.1145  0.2233
17185W        W32316   8.889  14.231  13.767  0.1689 -0.0127 -0.0891
17186W        W32317   2.751   8.929  15.644 -0.0695 -0.0282  0.2590
17187W        W32318  13.910  13.447  15.709 -0.1037  0.2432 -0.0857
17188W        W32319   7.066  10.351  12.027  0.2283  0.3113  0.0257
17189W        W32320  15.613   1.057   2.030 -0.0462 -0.1025 -0.0428
17190W        W32321  16.819   5.697  10.918 -0.0010  0.2240  0.1773
17191W        W32322  15.328   2.932   1.212 -0.1474  0.0273  0.0825
17192W        W32323  12.914   5.803  12.935  0.0007 -0.2208 -0.1877
17193W        W32324   6.142  16.842   3.302  0.1839 -0.0589 -0.2056
17194W        W32325   1.306   8.808   0.396 -0.0596  0.0072 -0.0627
17195W        W32326   9.984  13.086   2.961  0.1046  0.0058 -0.0043
17196W        W32327  17.027  15.865   2.274  0.2998  0.2080  0.2503
17197W        W32328   5.308  10.981  11.782 -0.2796 -0.2771 -0.0772
17198W        W32329  11.024  13.340  13.668  0.0588 -0.1504  0.2171
17199W        W32330  18.449  16.688   0.510  0.1310 -0.1242 -0.2339
17200W        W32331  12.206   1.081   0.649  0.1078 -0.0085 -0.4124
17201W        W32332   7.474  12.571  15.746 -0.1470  0.1955  0.1885
17202W        W32333  11.691   1.743   0.954 -0.0741  0.1150  0.2606
17203W        W32334   0.671   5.572   1.215  0.1545 -0.0166  0.1514
17204W        W32335   3.150  10.482   1.347  0.0260  0.2260 -0.2465
17205W        W32336   1.554   7.266  11.024  0.0902 -0.2347 -0.0952
17206W        W32337  17.882  13.363   4.088 -0.0110  0.0700  0.0087
17207W        W32338   9.460  12.009  12.648  0.1956 -0.0484 -0.0583
17208W        W32339   7.587   5.876  13.731  0.0430 -0.0183  0.3249
17209W        W32340   3.322   9.343   2.638  0.0582  0.2609 -0.0376
17210W        W32341   4.233   8.351  10.609 -0.0238  0.2374 -0.0457
17211W        W32342  14.191   5.300  12.562  0.0419  0.0526 -0.1220
17212W        W32343   1.234   9.063   3.978 -0.1534 -0.3513  0.2164
17213W        W32344   0.174  14.380   1.704  0.3619  0.0257  0.2142
17214W        W32345  18.681  17.480   2.181  0.0434 -0.2077  0.0558
17215W        W32346  10.359  18.709   3.959 -0.1603  0.0116 -0.0265
17216W        W32347   7.783   8.776  14.726 -0.2141 -0.0604 -0.2745
17217W        W32348  15.371   7.642   2.939  0.2256  0.0508  0.0705
17218W        W32349   5.051  10.333  14.059 -0.3193  0.0945  0.3623
17219W        W32350  18.081  15.083  15.580 -0.1933  0.0204 -0.2802
17220W        W32351  13.491   6.119  14.576  0.1022  0.0278  0.1691
17221W        W32352   7.033   4.261   4.668  0.0362 -0.2024 -0.2039
17222W        W32353  12.152   6.705  11.947  0.3904  0.0189  0.2815
17223W        W32354  13.169  18.571  14.083  0.0547  0.1503 -0.0986
17224W        W32355   4.103   7.479  12.023  0.0481  0.3396 -0.0238
17225W        W32356   8.084  10.041  12.051 -0.2074 -0.1364 -0.1186
17226W        W32357  18.035  17.389   4.000 -0.0858 -0.0498 -0.0763
17227W        W32358  13.162  18.293  13.260 -0.2166 -0.0524  0.0409
17228W        W32359  13.509   5.521  15.406  0.2355  0.1067  0.0510
17229W        W32360   9.321   5.097   4.019  0.0940 -0.0730  0.0752
17230W        W32361   2.569  12.240  15.734 -0.3531 -0.0227 -0.1353
17231W        W32362   7.019   6.025   5.896 -0.5240 -0.1385  0.0191
17232W        W32363   1.384  15.646  12.889 -0.0124 -0.1158  0.3758
17233W        W32364  14.501   2.583   5.493 -0.0001 -0.0381  0.2703
17234W        W32365  16.629   0.424  13.952 -0.1363  0.1848 -0.2561
17235W        W32366  13.588   3.442  10.042 -0.2850 -0.1334 -0.0705
17236W        W32367  15.392  12.781  15.558  0.0952  0.2469  0.0700
17237W        W32368   3.355   8.419   1.714  0.2819  0.1765 -0.1013
17238W        W32369   2.953  18.252   2.920  0.0659 -0.2290 -0.0406
17239W        W32370   1.846   2.621  10.325 -0.2862  0.1975 -0.1192
17240W        W32371  10.213   3.165   2.406 -0.1036 -0.0010  0.0547
17241W        W32372  11.110  10.474   4.743 -0.0660  0.3769  0.1894
17242W        W32373   5.769   2.195   4.740 -0.1173 -0.0347 -0.4501
17243W        W32374  16.324   0.994   0.878  0.2381 -0.1945  0.1197
17244W        W32375   0.229   2.884   1.106 -0.2616 -0.0353 -0.0295
17245W        W32376   0.706   3.948   1.224  0.4841 -0.3232  0.2637
17246W        W32377  16.891   5.070   1.242 -0.0732 -0.0371  0.1369
17247W        W32378   4.321  12.027  13.002  0.2967  0.3937 -0.2310
17248W        W32379   3.653  15.636  10.284 -0.2644  0.0273 -0.2790
17249W        W32380   0.652   8.661  12.380 -0.0435 -0.2016 -0.1551
17250W        W32381   2.616   4.942  13.899  0.1306 -0.2245  0.0518
17251W        W32382  16.906   8.932   0.647  0.1685  0.2691 -0.3800
17252W        W32383  16.799  14.081  10.831 -0.2717 -0.0109 -0.1589
17253W        W32384  13.639  17.688   1.691  0.2943 -0.1473  0.1227
17254W        W32385   5.654   1.106   3.036  0.3019  0.1109  0.2212
17255W        W32386  11.428   8.842   2.849  0.0228 -0.0618  0.1497
17256W        W32387   3.665  15.798  11.535  0.1754 -0.3299  0.2994
17257W        W32388   3.532   4.469   4.641  0.1427  0.5326 -0.1178
17258W        W32389  14.215  15.520   5.400  0.1401 -0.0689  0.2194
17259W        W32390   0.387   2.059   1.450 -0.1518 -0.2427  0.0523
17260W        W32391   5.713   3.456  10.354 -0.3004  0.2009 -0.1204
17261W        W32392  16.870  11.287  14.651  0.1356 -0.1793 -0.2178
17262W        W32393  16.511  15.192  13.237 -0.1615 -0.1618 -0.1641
17263W        W32394  18.598   6.355   0.508  0.2137 -0.1595  0.1566
17264W        W32395   1.857   7.639   0.013 -0.1904  0.2290 -0.0869
17265W        W32396  11.018  18.259  15.071 -0.2182  0.4087  0.0694
17266W        W32397   4.097  12.361   4.680  0.3602 -0.2420 -0.2233
17267W        W32398  14.451   4.982   2.041 -0.4544 -0.0951  0.0057
17268W        W32399   2.102   7.520  11.573  0.0943 -0.0778 -0.0927
17269W        W32400  12.126   1.426  14.846  0.1837 -0.2999  0.3619
17270W        W32401   2.241  14.661  13.850 -0.1348  0.1898  0.1126
17271W        W32402   0.249  16.895   2.840  0.2313  0.0698  0.1614
17272W        W32403   7.990  14.973  11.388 -0.1460 -0.0188  0.1236
17273W        W32404   9.376  10.042  13.604 -0.1808  0.1328  0.4403
17274W        W32405  15.822   8.046  12.984  0.0185  0.1002  0.2564
17275W        W32406   8.855   8.990  13.303 -0.0935 -0.1463 -0.0058
17276W        W32407   2.043  17.638  10.551  0.3017 -0.0528 -0.0082
17277W        W32408  17.175  10.207  15.708  0.0370  0.0302 -0.2873
17278W        W32409  10.285   5.856   1.840  0.3056  0.0586  0.0755
17279W        W32410  10.546   0.145   1.632  0.0219  0.4198 -0.1652
17280W        W32411   1.610   3.681  13.330  0.0519  0.2625 -0.0894
17281W        W32412   2.415  16.749   2.885 -0.2002 -0.2379  0.0956
17282W        W32413   2.836   7.547   1.574 -0.2686  0.1477 -0.3151
17283W        W32414  11.529  13.242   1.319 -0.0641 -0.1463 -0.0808
17284W        W32415   6.989  18.150  14.517  0.1655 -0.3505  0.0458
17285W        W32416  10.840   5.937   1.038 -0.4609  0.1182  0.0551
17286W        W32417   3.553  10.193   1.119 -0.3624  0.0569 -0.0336
17287W        W32418   5.688   6.081   3.764 -0.0087  0.0086 -0.1409
17288W        W32419   1.621   0.928   2.318 -0.0391 -0.1364  0.2267
17289W        W32420  16.280  13.961  14.599 -0.0526 -0.1274 -0.1324
17290W        W32421   2.894  16.084   5.610  0.0491 -0.1804 -0.0692
17291W        W32422   7.940  11.035   5.740 -0.1190 -0.1227  0.0458
17292W        W32423   5.253  14.736  14.882  0.0051  0.1704  0.1723
17293W        W32424   0.574  13.190  15.216 -0.0900 -0.2162  0.1969
17294W        W32425   3.951  12.651   2.796  0.0136 -0.4816 -0.1312
17295W        W32426   1.608   5.419  12.287  0.2147  0.1416  0.0312
17296W        W32427  12.085   7.414   2.151 -0.0257  0.1259  0.1315
17297W        W32428  11.033   2.019  12.839 -0.0477 -0.0399 -0.1509
17298W        W32429  18.240   8.784   4.816 -0.1215 -0.0667 -0.0065
17299W        W32430  14.526  10.062   1.507 -0.0588 -0.2054 -0.2588
17300W        W32431  18.237   0.675  11.228  0.2016 -0.2252 -0.0581
17301W        W32432  11.689  12.995   0.517  0.0204 -0.2492 -0.2875
17302W        W32433  14.418   8.828  14.414  0.0379  0.2590 -0.0381
17303W        W32434  12.582  17.765  10.952 -0.1729 -0.2340  0.3675
17304W        W32435  17.282   7.404   0.999  0.0344 -0.0696  0.1504
17305W        W32436  12.592  17.134   2.165  0.0132  0.4235  0.0429
17306W        W32437  16.772  14.429  14.817  0.1638  0.2856  0.0940
17307W        W32438  12.740   2.471   0.640 -0.4109  0.0266 -0.0398
17308W        W32439   9.900   6.223  12.607 -0.1941  0.0804 -0.0168
17309W        W32440   9.448   9.858   1.253 -0.1535 -0.3396  0.3216
17310W        W32441  15.130   4.331   0.730  0.3291 -0.1203 -0.0609
17311W        W32442   2.331  18.272   5.710 -0.6534  0.0553 -0.1072
17312W        W32443  15.836  11.589   3.846 -0.1088  0.1508 -0.2559
17313W        W32444  16.331  15.021   4.494  0.0071  0.1021 -0.0806
17314W        W32445  16.867  16.582  11.917  0.0300  0.0639  0.2059
17315W        W32446  11.577  11.703   0.712 -0.0203  0.2122  0.2848
17316W        W32447  15.465   9.575   0.885  0.1847  0.4424  0.0434
17317W        W32448  14.660  15.404   2.073  0.1752 -0.0173 -0.0494
17318W        W32449  17.070   3.669  15.360  0.0508 -0.1742  0.4771
17319W        W32450  17.998   2.349  12.100 -0.0276 -0.0276  0.1141
17320W        W32451  16.510   6.811  11.775  0.1228 -0.1084  0.2660
17321W        W32452   2.638  12.673  12.588  0.1802  0.0804 -0.2741
17322W        W32453   6.024   9.041  15.084 -0.2977 -0.2492 -0.0873
17323W        W32454  12.515  15.540  11.179 -0.1548 -0.0884  0.0922
17324W        W32455  18.649   8.207   0.133  0.1056  0.2759 -0.0228
17325W        W32456  15.805  17.048   2.306 -0.0109  0.2640  0.0589
17326W        W32457  17.885  13.938   4.733  0.3900  0.0084  0.0759
17327W        W32458  15.403  14.914  12.477  0.0933 -0.2127  0.2093
17328W        W32459   0.222   5.264  14.101  0.1233  0.0383 -0.2095
17329W        W32460  17.468  15.120  11.512  0.3083 -0.0197  0.0568
17330W        W32461   1.250   4.570   2.304 -0.0334 -0.0283 -0.0269
17331W        W32462  17.539   9.510   4.632 -0.1621  0.0754  0.1108
17332W        W32463  11.331  14.639  10.893  0.0162 -0.4402 -0.0527
17333W        W32464  13.122   5.311   1.732 -0.0124  0.2518  0.1582
17334W        W32465   6.525  15.875   2.205  0.0433 -0.1817 -0.0823
17335W        W32466  11.629  10.467   3.911 -0.4232 -0.2992 -0.1872
17336W        W32467  16.553   1.345   2.641  0.3674 -0.1712 -0.1280
17337W        W32468  15.781   8.739   0.972 -0.2718  0.0909  0.0087
17338W        W32469   2.832   5.229   2.366  0.0634  0.0658 -0.3861
17339W        W32470  11.236   3.334   4.957 -0.1776  0.1131 -0.1100
17340W        W32471  16.150  13.783  13.459  0.1540  0.3154 -0.2279
17341W        W32472  10.307   3.140  12.562  0.2961 -0.2072  0.2269
17342W        W32473  18.340   8.840   2.764  0.0675  0.1611 -0.0284
17343W        W32474  13.257   4.396   0.352 -0.3963 -0.0992  0.4062
17344W        W32475   9.226   3.713   2.119 -0.1045 -0.1706 -0.0045
17345W        W32476   5.014   9.990  15.195 -0.0957  0.1384  0.0629
17346W        W32477  15.442  14.622   3.581  0.2516 -0.0706 -0.1592
17347W        W32478  10.933  11.660   4.182 -0.0748 -0.1296  0.0035
17348W        W32479  18.368   2.949  11.524  0.0015  0.1625  0.2596
17349W        W32480   0.139   2.012  14.158 -0.4562 -0.0742 -0.1188
17350W        W32481  15.006  11.499   3.315  0.1906  0.2659 -0.0071
17351W        W32482  18.291   0.209  12.079  0.2799  0.1902  0.1495
17352W        W32483   0.680   8.824   4.133 -0.1178  0.5254 -0.0807
17353W        W32484  16.376  11.338  12.340  0.2818  0.1383 -0.1094
17354W        W32485   9.479  14.869   1.445 -0.3598 -0.2241 -0.2555
17355W        W32486   2.623  12.871   1.155 -0.3109 -0.0944  0.1486
17356W        W32487  15.565  17.827  12.462  0.2886 -0.0333 -0.3948
17357W        W32488   1.950  14.224  15.494  0.3940  0.0154 -0.1382
17358W        W32489   3.180  16.866   1.546  0.1249  0.0589  0.1677
17359W        W32490  14.788   2.637   1.331 -0.0087 -0.1462 -0.1613
17360W        W32491  18.530   0.590   6.151  0.0179  0.2153  0.1299
17361W        W32492  17.404   3.132  12.439 -0.1554 -0.1075 -0.0884
17362W        W32493   7.128  13.643  14.766  0.2711  0.0293  0.2491
17363W        W32494  14.221  11.661  11.783 -0.2920 -0.0628  0.0041
17364W        W32495   8.007  16.225  13.432  0.2913  0.0745 -0.0809
17365W        W32496  16.249  11.531   1.805 -0.0595 -0.1926 -0.2963
17366W        W32497  14.636  12.167   1.292  0.0736  0.1315 -0.0450
17367W        W32498   0.354   8.096  13.263 -0.2476 -0.1905 -0.0107
17368W        W32499   5.853  13.411  12.263 -0.1056 -0.0013  0.0827
17369W        W32500   3.360  12.335   5.364 -0.2700  0.1643  0.1760
17370W        W32501   3.105   2.701  12.338  0.0892 -0.2111 -0.0320
17371W        W32502  15.340  11.299  14.476  0.2946  0.1041 -0.3625
17372W        W32503  10.159  15.455  13.630  0.3210 -0.2313  0.1184
17373W        W32504  12.082  14.387   1.815  0.2588 -0.0862 -0.1228
17374W        W32505  13.219  16.183   2.188 -0.0936 -0.1054  0.3710
17375W        W32506   2.237   4.338  11.922  0.0404 -0.0948  0.2316
17376W        W32507   8.856   7.763   1.295  0.2317  0.0226  0.2368
17377W        W32508   8.046   4.400  11.491 -0.1289 -0.0579  0.0336
17378W        W32509  17.817   1.313   4.991  0.0529  0.2515 -0.3286
17379W        W32510   1.872  16.516  12.696 -0.0885 -0.0585  0.1445
17380W        W32511  11.389  17.737  12.882 -0.0854 -0.0008 -0.1049
17381W        W32512   7.144  12.362  13.182  0.1459  0.0114  0.0340
17382W        W32513  14.195   7.448   4.252  0.0814  0.1634  0.3639
17383W        W32514   8.271  16.305  14.865  0.2673 -0.0231  0.0102
17384W        W32515   7.876  17.537   3.371 -0.1394  0.2078  0.0199
17385W        W32516   1.371   9.566  13.213 -0.1239 -0.1995 -0.2537
17386W        W32517   8.348  10.197   3.639 -0.2007  0.1915 -0.2590
17387W        W32518   2.917   1.941   0.149  0.1459  0.1650  0.1668
17388W        W32519  15.250  18.198  13.007 -0.2933 -0.0045 -0.1698
17389W        W32520   3.872   9.634   4.576 -0.0903  0.0830  0.0970
17390W        W32521  17.429  15.811  15.174  0.2982 -0.4204  0.2201
17391W        W32522   2.025   4.477  13.078 -0.1306  0.2074  0.1675
17392W        W32523   1.901   8.379   1.343  0.1712 -0.2466  0.2492
17393W        W32524  17.264   0.768   5.519  0.0863  0.0200  0.1852
17394W        W32525   9.421  12.705   0.084  0.2988 -0.0824 -0.0068
17395W        W32526   0.725  16.314  14.140  0.2141  0.3221  0.0890
17396W        W32527   6.448   9.257  13.383 -0.1279 -0.0194 -0.4479
17397W        W32528   7.143   9.008  14.057  0.4518  0.1961 -0.1151
17398W        W32529   1.906   1.139  10.546  0.0482  0.1078  0.2791
17399W        W32530  10.688   4.370  10.529 -0.2381 -0.0024 -0.0170
17400W        W32531  18.214   5.574   0.943  0.3593 -0.4083 -0.1026
17401W        W32532   6.999   2.589  12.410 -0.0609 -0.2463 -0.0002
17402W        W32533   8.319   5.849  13.175  0.1129  0.0325 -0.3153
17403W        W32534   8.802   3.329   2.567  0.0957 -0.0576 -0.3905
17404W        W32535  12.574  16.982   4.782  0.2663 -0.1915  0.0130
17405W        W32536  16.268   4.304   4.322  0.3378 -0.0711  0.2927
17406W        W32537   4.113   7.377   0.805  0.2597  0.2479 -0.0050
17407W        W32538   3.857  12.630  10.538 -0.0463 -0.0640  0.0039
17408W        W32539   4.555  13.849  10.372 -0.0300  0.0087 -0.1060
17409W        W32540   1.594   9.388  11.534  0.3068  0.2487  0.2650
17410W        W32541   8.766   3.272  10.947 -0.2064  0.1039  0.0932
17411W        W32542   7.649  15.280   1.485 -0.0611  0.0981 -0.1746
17412W        W32543   7.724  15.484   4.025 -0.2667 -0.0714 -0.2593
17413W        W32544  17.339   1.056  11.332 -0.0479  0.0387  0.1918
17414W        W32545   5.495   3.619  14.492 -0.2195  0.1307  0.0098
17415W        W32546  16.927  14.445   1.416 -0.1424 -0.1282 -0.0043
17416W        W32547  16.556   1.807  12.668 -0.1526 -0.0088 -0.0785
17417W        W32548  12.833  15.720   1.734  0.0764 -0.0709 -0.1614
17418W        W32549   1.965  17.327   4.368 -0.0697  0.1997 -0.0910
17419W        W32550  12.249  10.027   1.069  0.1047  0.1527  0.1412
17420W        W32551  13.831   5.936   2.985 -0.2990 -0.0201  0.0972
17421W        W32552   1.618   8.045  15.704  0.2605 -0.1445 -0.1145
17422W        W32553  15.297  11.619  12.011  0.0899 -0.0076  0.2406
17423W        W32554  16.116  15.476  13.246 -0.3863 -0.1231 -0.1518
17424W        W32555   2.662  17.991  11.838  0.3660  0.3045 -0.1309
17425W        W32556   3.317  12.269   1.506  0.1111 -0.3019 -0.0079
17426W        W32557  18.245   4.790   3.164  0.4650  0.0290  0.3490
17427W        W32558   3.790  13.708   4.581 -0.1473 -0.3384 -0.2116
17428W        W32559  16.994   0.718   4.342 -0.1369 -0.3803  0.1904
17429W        W32560   9.920  13.640   2.842 -0.2287 -0.4025  0.0622
17430W        W32561  14.468  13.545   1.004 -0.0972 -0.1368  0.2498
17431W        W32562   4.954  16.261   1.661 -0.2536  0.1369 -0.1500
17432W        W32563   6.740   2.333   3.080  0.0318  0.1773 -0.2117
17433W        W32564  12.139   3.966   2.632 -0.0845  0.0498 -0.2010
17434W        W32565   1.515   0.888  13.882 -0.2480 -0.2678 -0.1333
17435W        W32566   4.307   1.493   0.173 -0.0965  0.1971 -0.1645
17436W        W32567   8.532   8.247  13.249 -0.1754 -0.2549 -0.0970
17437W        W32568  11.582   3.348  14.220 -0.1228  0.4552 -0.1391
17438W        W32569   4.525   1.455   9.214  0.1035  0.1778  0.0225
17439W        W32570   7.248   1.643   1.851 -0.2941  0.0074  0.0132
17440W        W32571   9.054  10.655  13.357 -0.0392 -0.2363 -0.0267
17441W        W32572   8.214   7.965  13.002 -0.2601 -0.0560 -0.1347
17442W        W32573   6.627   3.065  11.018  0.2640 -0.3491 -0.3273
17443W        W32574  10.132   1.901  13.299 -0.2245 -0.2580  0.3734
17444W        W32575  15.640  13.253   5.043  0.0093  0.2962 -0.0659
17445W        W32576  15.328   5.468   2.935  0.2996  0.2574  0.0033
17446W        W32577   2.433   6.621   9.569 -0.1115 -0.1877  0.1952
17447W        W32578   9.917   1.743  12.856  0.1515 -0.0912 -0.1077
17448W        W32579  13.688   7.136  13.933  0.1763  0.1505 -0.3480
17449W        W32580  13.295  18.308   2.319 -0.2088 -0.3087 -0.0210
17450W        W32581  10.534   7.878  13.233 -0.0574  0.0759 -0.3963
17451W        W32582   9.715  11.873  14.817  0.0401  0.1543 -0.1551
17452W        W32583   1.877  18.659  13.569 -0.4590  0.2804  0.1337
17453W        W32584  14.224   4.284   5.729  0.1281  0.1128 -0.1676
17454W        W32585   9.820   2.058  15.244  0.1117  0.3720 -0.3053
17455W        W32586  16.202  15.806   4.517 -0.0864 -0.0393  0.1253
17456W        W32587  16.728   1.239  14.146 -0.4244 -0.0714 -0.0302
17457W        W32588  15.198  13.884  15.493 -0.1841 -0.0449 -0.0707
17458W        W32589  18.694   3.764   5.492 -0.0893  0.2025  0.2259
17459W        W32590   2.110  10.651  12.360 -0.0550 -0.1966 -0.0103
17460W        W32591  13.961   1.889  15.573 -0.0507 -0.1327 -0.4062
17461W        W32592   6.358   4.083  13.166 -0.0869  0.0688  0.0289
17462W        W32593  12.498   9.762   5.522 -0.0383  0.1297 -0.1322
17463W        W32594  15.411  15.606  13.894  0.3261  0.0284  0.1576
17464W        W32595   0.068   0.170   1.948 -0.0411 -0.1458 -0.2319
17465W        W32596   2.473  14.965  10.566  0.0992  0.1406 -0.0205
17466W        W32597   7.256  16.413  13.341  0.2901 -0.0748  0.0159
17467W        W32598  15.634  15.063   1.122  0.0845  0.0294  0.0878
17468W        W32599  14.280   0.746  13.503  0.3208  0.2845 -0.2414
17469W        W32600   1.061  10.782  13.887 -0.2540  0.0595 -0.0096
17470W        W32601  18.424   0.243  13.673  0.1023 -0.0692 -0.2204
17471W        W32602   6.256  11.899   5.035 -0.3316 -0.1201 -0.0631
17472W        W32603  14.813  11.977  15.119 -0.0612 -0.0738 -0.0446
17473W        W32604   5.902  18.599   2.309  0.2086  0.0632 -0.1352
17474W        W32605  17.175  12.424  11.628 -0.1640 -0.1130 -0.0675
17475W        W32606   8.061  11.782   0.175 -0.0593 -0.1558 -0.0024
17476W        W32607  15.984   2.606  15.118  0.0770  0.0669  0.1305
17477W        W32608   8.711   2.151  13.591 -0.3081  0.2861 -0.1160
17478W        W32609   8.000  14.538  14.298 -0.2266  0.0550  0.0329
17479W        W32610  12.860   5.491   0.519 -0.0005  0.0705 -0.0603
17480W        W32611   5.513   4.912   5.264 -0.1394  0.1028 -0.1600
17481W        W32612  15.177  15.323  11.098 -0.2847 -0.1415 -0.1516
17482W        W32613   9.853  10.156  13.417  0.1002  0.5147  0.2042
17483W        W32614  12.630   1.743  13.650  0.3244 -0.2165 -0.1192
17484W        W32615  15.760  18.359  11.799  0.3603 -0.2589  0.1849
17485W        W32616   5.394  10.906  10.981  0.1750 -0.0531  0.0937
17486W        W32617   4.093  12.359   1.145  0.1279  0.1651 -0.2424
17487W        W32618  16.385   7.144   4.924 -0.3410 -0.3633 -0.1656
17488W        W32619   9.218  11.149   0.721 -0.1495  0.3341 -0.3575
17489W        W32620  16.706  14.428   6.427 -0.2002  0.0485 -0.2832
17490W        W32621  15.620  16.578  11.312 -0.3561 -0.0537 -0.0245
17491W        W32622  18.063  16.787  11.826 -0.0734  0.2669  0.0196
17492W        W32623  13.119  12.614   0.052 -0.0782 -0.3083  0.2159
17493W        W32624   1.507  17.564   2.187  0.3113 -0.3953  0.3188
17494W        W32625  14.213  14.427  13.309 -0.1533 -0.1796 -0.1397
17495W        W32626  10.507  14.794   1.359  0.0353  0.0792 -0.1557
17496W        W32627   0.656  16.625  12.174  0.1549  0.2509 -0.1616
17497W        W32628   8.510   4.038   9.808  0.0454  0.1133 -0.1435
17498W        W32629  13.253   9.612  14.433 -0.3667 -0.0875  0.0269
17499W        W32630  10.657  13.915  10.017 -0.0469  0.1588 -0.1154
17500W        W32631  13.756  10.831   0.515 -0.2195  0.0894  0.1289
17501W        W32632  13.210  17.302   5.295 -0.0846 -0.0471  0.0459
17502W        W32633   0.629   9.736  10.422 -0.2282  0.0419  0.1412
17503W        W32634  11.067   5.153  14.619 -0.3228  0.0951  0.1969
17504W        W32635  14.484   1.572   2.819 -0.0399  0.1511  0.2600
17505W        W32636  15.336  16.517   3.579  0.0473 -0.1697  0.0993
17506W        W32637   7.793  17.854   0.909 -0.1836  0.1437 -0.0351
17507W        W32638   9.615   9.140  12.539 -0.1835  0.0991  0.1296
17508W        W32639   0.496   6.496  12.464  0.0592  0.3629 -0.1353
17509W        W32640   0.599  17.130  14.984 -0.0037  0.2677  0.2435
17510W        W32641   4.553  15.667  14.858 -0.1509 -0.0512 -0.1331
17511W        W32642  16.566   2.779   1.774 -0.0888 -0.2225  0.2672
17512W        W32643   5.833   2.378   3.804 -0.0022  0.1523 -0.1892
17513W        W32644  11.918  14.063  14.319  0.1471 -0.2040  0.1492
17514W        W32645  10.540   9.286   0.061  0.1114 -0.0578 -0.0805
17515W        W32646  10.579   2.093   3.159  0.2049 -0.2760  0.1560
17516W        W32647  12.202   3.233  13.477 -0.0313  0.0775  0.1683
17517W        W32648  14.132  10.333  11.950  0.1545 -0.0396 -0.2761
17518W        W32649   4.858  15.425   1.441  0.1341 -0.1685 -0.2191
17519W        W32650  18.173   2.458  12.926  0.1750  0.0017 -0.1335
17520W        W32651   9.650  12.432  12.523  0.3206 -0.1213  0.1266
17521W        W32652   9.640   2.596  15.405  0.0781 -0.1135 -0.2573
17522W        W32653   0.344  13.197   3.397  0.1653 -0.0867  0.0820
17523W        W32654   8.355   2.650  12.873 -0.0854 -0.1094 -0.1851
17524W        W32655  14.727  16.879   1.255  0.0297 -0.2706 -0.0091
17525W        W32656   1.378  11.318   0.392 -0.3933 -0.0553 -0.0198
17526W        W32657   8.579  11.643  12.856  0.1144 -0.1697 -0.0330
17527W        W32658  13.010   0.481   2.745 -0.1681  0.0358 -0.0436
17528W        W32659   7.887  13.090   0.385 -0.0772 -0.1460 -0.1058
17529W        W32660   3.067  10.612  15.481 -0.0755 -0.1603  0.0866
17530W        W32661  16.316   1.069   5.792  0.2288 -0.0827  0.2637
17531W        W32662   4.049   0.982  11.852 -0.1474 -0.3961  0.1346
17532W        W32663  18.586   2.334   3.356 -0.0376  0.0403  0.2377
17533W        W32664   7.825   4.738  14.150  0.3077  0.1794 -0.0410
17534W        W32665  15.028   3.341   5.301  0.1238 -0.0230  0.0258
17535W        W32666   3.941  16.112  12.621  0.1623 -0.0514  0.2647
17536W        W32667  14.504  13.359   3.381 -0.1078 -0.2062  0.4561
17537W        W32668  16.926   7.228  10.756 -0.1392  0.5356  0.0014
17538W        W32669  17.134  10.257  12.491 -0.1105  0.0207 -0.0597
17539W        W32670  14.379  11.820  15.633 -0.0063 -0.1894 -0.3339
17540W        W32671   0.559  14.363   0.518  0.0871  0.1531 -0.0432
17541W        W32672   6.320  10.977  10.566  0.1003  0.1827 -0.1146
17542W        W32673  15.478  17.122  13.671  0.0796  0.0921 -0.1633
17543W        W32674   4.033   0.170  14.490  0.1865 -0.2095 -0.2177
17544W        W32675  15.882   6.239   4.687  0.0794 -0.1254  0.0862
17545W        W32676  10.311   8.845   1.266 -0.1124 -0.1010  0.3902
17546W        W32677  14.606   5.531  11.417 -0.0523 -0.2949  0.4717
17547W        W32678   8.801  17.059   1.811  0.3382 -0.0824 -0.1556
17548W        W32679   2.396   6.555   3.909  0.1567  0.0136  0.0964
17549W        W32680  17.791   3.492   1.344  0.0287 -0.0026 -0.0035
17550W        W32681  12.441  16.035   5.162  0.1682 -0.2823  0.3419
17551W        W32682  14.134   9.604   0.497 -0.0236 -0.0729 -0.0621
17552W        W32683  10.449   6.994   4.051 -0.1208  0.0346  0.2516
17553W        W32684   3.184  13.729   2.218  0.0755 -0.1148  0.2433
17554W        W32685  16.891   8.180   9.804 -0.0075 -0.0749 -0.1724
17555W        W32686  16.937  18.729   5.583 -0.1435  0.1001 -0.1664
17556W        W32687   9.684  16.461  11.402 -0.0227 -0.0062  0.0012
17557W        W32688   3.830  12.747   3.409  0.0159  0.1424 -0.0423
17558W        W32689   7.737  12.585   4.805  0.2478  0.0957 -0.1175
17559W        W32690  17.299   9.262  14.036  0.2406 -0.1319  0.1219
17560W        W32691  15.516   3.113  14.715  0.0146  0.0312  0.1813
17561W        W32692   2.306   4.619  11.217 -0.0236  0.0558 -0.1148
17562W        W32693  14.369   1.658  12.164  0.3271  0.1076  0.2663
17563W        W32694  17.721   0.195   1.282  0.0661 -0.1464 -0.4277
17564W        W32695   9.456   6.034   2.080 -0.0958 -0.1552  0.1182
17565W        W32696  13.714   4.300   5.574  0.3770  0.3019 -0.1018
17566W        W32697   3.147   1.412  11.742 -0.1261  0.3630  0.2611
17567W        W32698   7.034   5.854   1.491  0.0763  0.2013 -0.2880
17568W        W32699  16.740   2.518   4.281 -0.2307  0.3155  0.2315
17569W        W32700  12.216   8.821  13.736  0.2333  0.1225 -0.2080
17570W        W32701   8.188   1.600   4.557  0.0111 -0.0329  0.2552
17571W        W32702  10.916  10.644  14.005 -0.0706 -0.0759 -0.3014
17572W        W32703   8.731   5.555  10.963 -0.2032 -0.0064 -0.1093
17573W        W32704   0.581  17.929   0.227 -0.0906  0.0764  0.0373
17574W        W32705  10.696  12.846  13.033 -0.0288  0.4573 -0.1077
17575W        W32706   6.578  12.212   1.089  0.2682 -0.3226 -0.0584
17576W        W32707  16.270   8.185  14.078  0.1292 -0.0774 -0.3290
17577W        W32708  16.184  17.923  12.981 -0.2254 -0.2942  0.2477
17578W        W32709  15.202   0.202   1.027  0.1196  0.0437  0.0717
17579W        W32710   3.715  14.788   3.164 -0.1047  0.2813  0.0479
17580W        W32711   0.630   9.419  11.590  0.0782  0.1446 -0.1338
17581W        W32712   6.457   7.178   9.650 -0.2910 -0.2353 -0.1221
17582W        W32713  11.782   8.791   1.987 -0.4180 -0.1325 -0.4991
17583W        W32714  17.613   7.930   3.429 -0.1177 -0.0382 -0.1614
17584W        W32715   8.976  16.125  11.000  0.2695  0.1504  0.1377
17585W        W32716  14.613  14.002   2.575 -0.2332 -0.0261 -0.0804
17586W        W32717  16.198  16.822  11.401  0.2284 -0.4592 -0.1972
17587W        W32718  15.600   3.616  14.664  0.1002 -0.1777 -0.1838
17588W        W32719   9.220   5.946  14.067  0.1741 -0.1807  0.0972
17589W        W32720  16.336   8.444   4.253 -0.0888 -0.1088 -0.1022
17590W        W32721  11.292  16.036   1.621  0.1447 -0.0516 -0.0561
17591W        W32722   0.636   2.091  11.563 -0.0961 -0.3965 -0.1494
17592W        W32723  14.737   9.367  13.310 -0.3083  0.0441 -0.1796
17593W        W32724  13.318  10.702  14.656 -0.2300 -0.3027  0.1396
17594W        W32725  13.861  17.078   1.057  0.2943  0.0204  0.4631
17595W        W32726  14.514  12.242   0.731  0.1768 -0.3028 -0.3564
17596W        W32727   3.597  13.759   3.092  0.0957  0.0213  0.1281
17597W        W32728  15.986   1.281   1.570 -0.1408  0.3151 -0.1048
17598W        W32729  13.646  18.209  13.397 -0.0824 -0.2735  0.1571
17599W        W32730  11.886   5.137   1.485  0.3249  0.1463  0.1150
17600W        W32731  15.890   2.455  11.248  0.1419  0.2876  0.1573
17601W        W32732  13.004   3.270  13.960 -0.1350 -0.1784  0.1252
17602W        W32733  12.107  17.186   4.711 -0.4403 -0.0775 -0.2090
17603W        W32734   4.308  18.674   0.039 -0.0401 -0.2438  0.2589
17604W        W32735  10.821  13.718  10.875 -0.2199  0.4895  0.2233
17605W        W32736  18.075   8.972   5.300 -0.3095  0.2049  0.0450
17606W        W32737   2.049   6.997   4.520  0.0853  0.1263  0.1075
17607W        W32738  15.213   7.265  10.956 -0.0269  0.2529  0.3881
17608W        W32739   9.736  12.846  14.849 -0.1558 -0.0605 -0.2244
17609W        W32740   8.575  14.550   2.324  0.2711  0.2857 -0.1679
17610W        W32741  11.232   3.456   4.060  0.0495  0.2687  0.0632
17611W        W32742  16.624  15.997   1.067  0.3942 -0.0223  0.0026
17612W        W32743  16.705  11.131  12.658 -0.7857 -0.0283  0.1985
17613W        W32744   3.239   1.454   0.798 -0.2282  0.1026  0.3301
17614W        W32745   6.447  12.091   3.562  0.1455  0.0566 -0.1507
17615W        W32746   7.772   1.782   5.496  0.0938  0.2453 -0.3741
17616W        W32747   6.265  13.450  15.430 -0.1785  0.2475  0.1005
17617W        W32748   7.859   8.389  14.254 -0.0009  0.1963 -0.1409
17618W        W32749   8.853   6.424   3.833  0.0455 -0.0581 -0.0730
17619W        W32750  13.968   9.817  14.767  0.0388  0.2735 -0.0159
17620W        W32751  11.427   6.590  14.453 -0.0567 -0.5075 -0.1327
17621W        W32752   7.863   6.970   4.570  0.2080 -0.3080 -0.1073
17622W        W32753   5.039   5.494   1.930 -0.0830 -0.0441 -0.2442
17623W        W32754  10.167  18.175   1.998 -0.1265  0.1619  0.1553
17624W        W32755   7.120  10.741  12.986 -0.0040 -0.0012 -0.0811
17625W        W32756   0.270   9.788   2.694 -0.0888  0.0650 -0.4326
17626W        W32757  16.677   5.561   3.147 -0.0107 -0.1030  0.0164
17627W        W32758   7.812   9.976   4.337 -0.0511 -0.1292  0.0337
17628W        W32759  16.988   8.525  13.792  0.0324 -0.0793 -0.0641
17629W        W32760  18.356   2.560  15.759 -0.2310  0.1600 -0.2060
17630W        W32761   5.347  11.869   3.278 -0.1014  0.1925  0.1868
17631W        W32762  17.975  14.223   3.880 -0.1717 -0.0263  0.0694
17632W        W32763  18.130   7.058  15.721  0.2059  0.1942  0.6414
17633W        W32764  12.734   7.720   2.937  0.3544  0.1843 -0.1108
17634W        W32765  12.195  12.326  15.580  0.2350  0.1129  0.3516
17635W        W32766   3.429  15.760   4.867 -0.0014 -0.0279 -0.2398
17636W        W32767   6.135  16.399  13.185  0.0625  0.2071  0.0175
17637W        W32768  17.629   5.781  14.040 -0.0429  0.2150 -0.1159
17638W        W32769   1.006   4.659  14.593  0.2230 -0.1663 -0.0051
17639W        W32770   7.821   9.703   5.158  0.4637 -0.0334  0.1857
17640W        W32771   4.737   3.680  15.198  0.3119 -0.0681  0.1113
17641W        W32772   5.175   1.416   2.078  0.2621  0.2485  0.0188
17642W        W32773   3.074   6.096   0.534  0.3733 -0.1716 -0.0144
17643W        W32774  10.078   3.769   4.683  0.0243 -0.0728  0.2126
17644W        W32775   8.001  16.352  10.633 -0.1385  0.1615 -0.0683
17645W        W32776  11.236  13.783   1.500 -0.1774  0.0934  0.1296
17646W        W32777   4.567   4.889   0.643  0.2333  0.0142  0.0761
17647W        W32778  12.684  11.701  11.837 -0.1540 -0.1334  0.2048
17648W        W32779   8.054  15.652  11.199 -0.4349 -0.0535  0.0192
17649W        W32780  16.064  18.234  14.634 -0.2716 -0.2082 -0.2477
17650W        W32781   6.667   4.968  11.348  0.0559  0.2020 -0.0174
17651W        W32782  14.601   0.372  15.222 -0.3855  0.0459 -0.0549
17652W        W32783   6.485   3.545  11.045  0.1024 -0.4727  0.2730
17653W        W32784   6.780   0.549   4.337  0.1015  0.2106  0.0746
17654W        W32785  12.275   4.649   4.422  0.0466  0.2541 -0.0061
17655W        W32786  11.496  11.097   5.293  0.2287 -0.0399  0.0767
17656W        W32787   4.859  14.468  11.176 -0.4427  0.1479 -0.0038
17657W        W32788  12.103   0.898  14.883  0.0006  0.1815 -0.2377
17658W        W32789   3.584  17.600   0.313 -0.1834  0.0809  0.1464
17659W        W32790   1.963   9.581   3.205 -0.3705 -0.1621 -0.0834
17660W        W32791   8.343   4.152  12.563  0.0600  0.1365  0.0990
17661W        W32792  15.304  12.467  14.247 -0.2498 -0.1986  0.0092
17662W        W32793  11.542   3.656  15.663 -0.0714 -0.0747  0.5765
17663W        W32794  15.520   7.570   0.790 -0.2878  0.1023  0.1418
17664W        W32795   8.408  14.181  14.227 -0.0912  0.3397 -0.2645
17665W        W32796   4.218   3.605   1.497 -0.0194 -0.0801 -0.3660
17666W        W32797  18.425   7.620  12.042  0.1071 -0.1553  0.1093
17667W        W32798  12.534   4.082  13.419 -0.2556  0.3452  0.1698
17668W        W32799   6.451   4.170  14.392 -0.0059 -0.1033  0.1678
17669W        W32800  14.331   7.447   3.289  0.0495  0.3721  0.1538
17670W        W32801  15.230   4.345   0.168  0.3123  0.3078  0.1051
17671W        W32802  13.733   0.266  13.689  0.2671  0.2331 -0.0891
17672W        W32803   1.606   5.853   4.360 -0.0184  0.1401  0.0752
17673W        W32804  11.507   3.404   2.082  0.0715 -0.1946  0.0968
17674W        W32805  15.972   7.799  15.623  0.2280 -0.0524 -0.1294
17675W        W32806  12.577   8.562   0.858  0.2286 -0.0815 -0.2246
17676W        W32807   9.058   1.970   0.597 -0.3365 -0.3132 -0.3374
17677W        W32808  16.205  17.356   2.476  0.3607  0.2598  0.1560
17678W        W32809   8.449   6.609   2.940 -0.3003  0.1355  0.1509
17679W        W32810  18.567  15.413  13.963 -0.2462  0.0965  0.1704
17680W        W32811   3.126  17.912  14.887 -0.2051  0.0809  0.0570
17681W        W32812  12.214   1.499   1.725  0.2251 -0.3218  0.1457
17682W        W32813  11.735  18.300  11.841  0.1920  0.0069  0.0295
17683W        W32814   9.427  15.217   2.599  0.0643  0.0829 -0.0344
17684W        W32815   5.044  15.424   5.050 -0.0357 -0.1291  0.0866
17685W        W32816   5.691  14.282   5.165  0.0530  0.0382  0.1761
17686W        W32817   0.811   1.156  14.463 -0.2147 -0.2785  0.3870
17687W        W32818   0.115   5.174   0.093  0.3610 -0.0027  0.3113
17688W        W32819   4.735   1.941   3.885  0.1025  0.0640  0.0564
17689W        W32820  15.238   3.200  10.915 -0.3685 -0.0430  0.1751
17690W        W32821  14.405  16.855  15.172  0.1133  0.3519  0.2373
17691W        W32822   6.099   6.251   4.085  0.4456 -0.0675 -0.3704
17692W        W32823   1.765  12.664  13.913  0.0053 -0.0644  0.1013
17693W        W32824  10.590  11.801   5.960  0.0409  0.1785  0.0741
17694W        W32825  13.104   4.963   4.938 -0.0737  0.1228  0.0356
17695W        W32826   2.850   9.156  14.711 -0.1007 -0.0798  0.0612
17696W        W32827  13.936   3.392   2.713 -0.3306 -0.0517 -0.1149
17697W        W32828  10.833   7.174   3.816  0.1202  0.2116 -0.0581
17698W        W32829  18.114  11.908  15.141 -0.0277 -0.2151 -0.0779
17699W        W32830   7.329  17.642  12.576  0.1295 -0.0901  0.4710
17700W        W32831   5.508  17.551  15.757  0.0583  0.3577  0.1719
17701W        W32832  16.286  15.605   6.146  0.1407  0.0541 -0.0545
17702W        W32833   4.597  13.073   4.890  0.2656 -0.0584  0.3022
17703W        W32834   1.459  11.255  15.373  0.1312 -0.1658 -0.1037
17704W        W32835  14.151   6.184  11.236 -0.0499 -0.2180 -0.0960
17705W        W32836  16.158  18.188  11.589 -0.1375  0.2225 -0.0203
17706W        W32837  15.596   3.576   1.841 -0.2777  0.1901 -0.1884
17707W        W32838   3.524   2.491   1.925 -0.1430  0.2289 -0.0174
17708W        W32839  15.329  15.786  11.236 -0.1810  0.0678 -0.0925
17709W        W32840   3.686  13.805   0.008  0.2973 -0.0177  0.0731
17710W        W32841   4.742   7.969   3.053 -0.2315  0.1166 -0.1853
17711W        W32842  15.565   2.015  14.909  0.0684  0.0320 -0.3120
17712W        W32843   9.950  14.146   4.843 -0.0712 -0.5217  0.0750
17713W        W32844   9.267   6.212   0.132 -0.1135  0.0015 -0.0461
17714W        W32845   2.899   9.009  12.173 -0.2590  0.1195 -0.0238
17715W        W32846  17.439   2.863  11.302  0.1347 -0.4526  0.2960
17716W        W32847   3.505  16.476  13.427 -0.3090 -0.0854 -0.2151
17717W        W32848   1.169   1.484   5.757 -0.0162  0.0862 -0.2640
17718W        W32849   3.669  12.172  14.087  0.0289  0.1455  0.0327
17719W        W32850   9.244   7.283   1.600 -0.1821 -0.0119  0.1275
17720W        W32851   5.364  10.695   1.848  0.2402  0.3021 -0.0685
17721W        W32852   8.390  15.457   9.780  0.0107 -0.0862 -0.1328
17722W        W32853  15.354  11.841   4.639  0.0645 -0.1762  0.0728
17723W        W32854  15.453   0.312  14.775  0.0784 -0.2622 -0.0541
17724W        W32855  17.481  10.802  13.696  0.2831  0.2357 -0.0678
17725W        W32856   1.986   6.359   3.702 -0.0169 -0.0794 -0.1092
17726W        W32857  12.330   0.968   4.564 -0.1138 -0.1612  0.2029
17727W        W32858  14.669  11.959  11.440  0.0143  0.0673 -0.0456
17728W        W32859   4.095   2.833   3.044 -0.1976  0.2098 -0.0006
17729W        W32860   5.193  14.271  13.507  0.3219 -0.0377 -0.2933
17730W        W32861  10.910   0.146  13.075  0.1451  0.0006  0.1111
17731W        W32862   4.943   8.018  15.408  0.0082 -0.0273  0.1592
17732W        W32863   5.704   7.825  14.015  0.1354  0.1423  0.1143
17733W        W32864   5.620   3.790  13.027 -0.2464 -0.0883  0.0344
17734W        W32865   3.699  12.581   1.655 -0.1076  0.0655  0.3589
17735W        W32866  13.524   4.768   5.096  0.0301  0.0759 -0.0701
17736W        W32867   0.248   3.865   1.422 -0.1959  0.0437  0.0325
17737W        W32868  15.924   5.082  15.139 -0.2175  0.1890 -0.1045
17738W        W32869  17.296   3.950   1.969  0.1172 -0.0792  0.1128
17739W        W32870   7.289  11.031   3.251  0.1702 -0.3782 -0.0127
17740W        W32871  17.129  12.626  13.660 -0.2301  0.0485 -0.0315
17741W        W32872  17.382   5.112  14.755 -0.0967  0.3091 -0.1459
17742W        W32873   9.655   2.183  14.321 -0.5240  0.0431  0.1126
17743W        W32874  12.254   2.617   2.419  0.0385  0.1927  0.0496
17744W        W32875  14.426   5.474  10.739 -0.0277 -0.0403  0.0323
17745W        W32876   0.259   2.923   2.483  0.0001 -0.0507 -0.0893
17746W        W32877  14.352   4.473   3.486  0.0820 -0.1712 -0.1753
17747W        W32878  14.391  16.207  14.096  0.0883  0.3660 -0.1436
17748W        W32879  11.264   7.174   0.140 -0.1645 -0.0097  0.0297
17749W        W32880  12.426   1.333   2.470 -0.0087 -0.1202  0.0758
17750W        W32881   5.193  17.155   0.882  0.1787  0.0330 -0.0109
17751W        W32882  17.149  13.076  13.415  0.1927 -0.0503 -0.3078
17752W        W32883  11.305  12.688   3.990 -0.0783 -0.2362  0.0723
17753W        W32884  10.243   0.214   2.020  0.1587  0.2301  0.1213
17754W        W32885  10.262   3.986  13.033 -0.1345  0.3516 -0.4617
17755W        W32886   4.582  12.917  10.402  0.1743 -0.1380  0.0628
17756W        W32887   7.729  15.717  15.008 -0.0097 -0.0038  0.2457
17757W        W32888   4.841   6.465   3.812  0.2427  0.1956 -0.5063
17758W        W32889   2.814  10.992   4.291 -0.0722 -0.0839  0.1364
17759W        W32890  13.704   0.479   3.975  0.1474 -0.2059  0.1653
17760W        W32891   6.041   9.442  13.152 -0.2744  0.1279 -0.2869
17761W        W32892   5.016   0.699  15.149  0.2897 -0.1215  0.2242
17762W        W32893   2.318   3.521   3.795 -0.1016 -0.0450  0.6031
17763W        W32894   1.946  10.745   3.625 -0.1703  0.2637 -0.0649
17764W        W32895  14.895  14.675  15.310 -0.1246 -0.1661 -0.0598
17765W        W32896  16.687   6.593  14.577 -0.1727  0.2345 -0.2275
17766W        W32897  18.014   3.468   4.654 -0.1292 -0.0042 -0.1420
17767W        W32898  10.249  17.919  11.945  0.0671  0.1446 -0.0693
17768W        W32899   2.213   2.210   5.210 -0.0869 -0.3107 -0.1179
17769W        W32900  10.782   7.503   3.341  0.0915  0.0692 -0.0666
17770W        W32901   7.684  12.949   0.832  0.0731 -0.1879  0.5672
17771W        W32902   7.022   0.504  11.263 -0.0591 -0.2805 -0.2955
17772W        W32903  14.721  15.013   0.591 -0.0811 -0.2350  0.2498
17773W        W32904  10.606  11.669  12.096  0.0356 -0.3118  0.0953
17774W        W32905   5.843  17.863  15.391 -0.0358  0.4838  0.2121
17775W        W32906  14.802  16.324  15.526  0.3962 -0.0421 -0.0400
17776W        W32907  11.732  10.022  12.513 -0.0390 -0.1264 -0.1257
17777W        W32908  17.357  10.857  11.984  0.0264 -0.0334  0.2982
17778W        W32909  16.737   7.262  11.264  0.2760 -0.3042  0.1203
17779W        W32910   7.649  14.481   0.119 -0.1276  0.3017 -0.1231
17780W        W32911   6.315  13.775  14.961 -0.0514  0.1705  0.3077
17781W        W32912  14.718   9.481  12.372  0.3094  0.0492  0.0829
17782W        W32913   3.130  16.206   2.477 -0.3955 -0.3158 -0.2689
17783W        W32914   3.394  15.081  13.473 -0.3050  0.1200 -0.1818
17784W        W32915   6.855  13.168  14.050  0.0384  0.2063 -0.3279
17785W        W32916  12.773   4.855   4.532  0.0269 -0.1257  0.2381
17786W        W32917   2.960  17.013   2.066  0.2284 -0.0096  0.0595
17787W        W32918   4.995   9.875   2.110  0.2004  0.0049  0.0398
17788W        W32919   2.976  17.516   4.819  0.0911 -0.3749 -0.0545
17789W        W32920   3.095   2.683   3.968  0.2714 -0.2152  0.2232
17790W        W32921   7.347  16.809   9.605 -0.4359 -0.1288  0.2001
17791W        W32922  13.203   1.403   1.295 -0.1605 -0.3489  0.0439
17792W        W32923  18.091  13.389  11.814  0.1787  0.2902 -0.2467
17793W        W32924   8.995  11.210   3.026  0.3945  0.2439  0.0487
17794W        W32925   2.917  12.440  13.048  0.3078 -0.1003  0.1166
17795W        W32926   2.597   5.055   4.457 -0.0835  0.0954  0.0238
17796W        W32927   7.929  17.930  11.611 -0.0181 -0.0603  0.2092
17797W        W32928  12.563   6.216   4.987  0.0336 -0.1705  0.1452
17798W        W32929   2.675  15.299  12.360 -0.3326  0.1277 -0.1123
17799W        W32930  10.914  11.215   5.740 -0.0811  0.2387  0.1198
17800W        W32931   2.232  10.579  12.928 -0.3398  0.2247  0.2503
17801W        W32932   0.998  11.114  15.154 -0.1543  0.0503  0.2033
17802W        W32933  11.435  16.219  11.453  0.0439 -0.1585 -0.0756
17803W        W32934   0.271   5.625   2.309 -0.0923  0.3150 -0.1636
17804W        W32935   5.431   2.446  15.295 -0.1390  0.1758  0.0541
17805W        W32936  17.720  17.823  14.212 -0.3790  0.0175 -0.2565
17806W        W32937  12.207  16.699   4.537 -0.3297  0.0023 -0.1432
17807W        W32938   2.140   1.803   2.306  0.2778 -0.0949  0.0640
17808W        W32939  11.183  11.663  14.293 -0.2543  0.0572 -0.0570
17809W        W32940   8.192   6.447   4.839 -0.0848 -0.1544 -0.2897
17810W        W32941  16.157   0.745  10.396 -0.3309 -0.0268  0.0009
17811W        W32942  15.297  17.357   3.211 -0.0771  0.0961 -0.2032
17812W        W32943   9.018  11.912  11.370  0.3574 -0.1936  0.0038
17813W        W32944   4.159   4.484   1.842  0.1087 -0.1742 -0.1681
17814W        W32945  18.587   9.544  10.888 -0.1996 -0.1036 -0.1443
17815W        W32946  16.088   8.835  14.612  0.0524 -0.2447  0.2204
17816W        W32947  13.863  15.656   1.872 -0.0305 -0.0272 -0.2383
17817W        W32948   7.608   4.396  13.211  0.1529  0.1920 -0.2636
17818W        W32949  18.116  14.357  11.410 -0.1939 -0.1820 -0.0192
17819W        W32950   3.884   1.644   2.602 -0.2420  0.1243  0.1932
17820W        W32951   2.356   6.054   1.006 -0.0855  0.4324  0.0669
17821W        W32952  14.807   4.356  10.619 -0.1330 -0.0533  0.0502
17822W        W32953  15.615   2.164  14.407  0.0039  0.2439 -0.2404
17823W        W32954  10.039   1.875  14.147 -0.0404  0.0131 -0.2692
17824W        W32955   2.524  18.505   0.990 -0.0780  0.0184  0.1635
17825W        W32956   4.631   7.152   1.920 -0.2137 -0.2515  0.2113
17826W        W32957  18.701   4.396  10.566  0.0585 -0.0393  0.1178
17827W        W32958   5.393   7.525   2.202  0.0455 -0.0557 -0.0173
17828W        W32959  17.965   2.041   0.554 -0.2307  0.1631 -0.0269
17829W        W32960  13.698  10.602   5.362  0.2838  0.3500 -0.1617
17830W        W32961  14.417   0.750  14.781  0.1739  0.2014 -0.0485
17831W        W32962  16.690   7.263   2.657  0.0540  0.4023 -0.0715
17832W        W32963   0.434  10.291   5.331 -0.0748 -0.0045  0.1404
17833W        W32964  13.920   9.493   4.316  0.3013 -0.0896 -0.3456
17834W        W32965  11.376  11.947  12.653  0.3631 -0.0003  0.1556
17835W        W32966  11.907   3.003  14.293 -0.1006 -0.0545  0.4438
17836W        W32967   6.777   0.219  10.418  0.1584 -0.0243 -0.1774
17837W        W32968   3.282   0.316   2.560 -0.0629  0.2619  0.0112
17838W        W32969  13.477   2.368  12.840 -0.0805 -0.1159  0.2519
17839W        W32970  18.713   8.948  13.592  0.0288 -0.0387  0.1816
17840W        W32971  13.494  14.855   2.478  0.1769  0.0356  0.1627
17841W        W32972   2.062  10.563   1.790  0.2216  0.0767  0.2548
17842W        W32973   7.712  13.394   3.511  0.2166  0.0198  0.1909
17843W        W32974   2.161   1.291   5.904 -0.0405  0.0303  0.1734
17844W        W32975  16.930   0.769   3.847  0.0608  0.2220  0.0772
17845W        W32976  14.669   0.369  12.222  0.1316  0.1944  0.1661
17846W        W32977   6.186  16.708   5.118 -0.0894  0.0648 -0.0816
17847W        W32978   7.521  16.601   1.306  0.1587  0.1222 -0.0159
17848W        W32979  12.198  15.740  13.121  0.3468 -0.0908  0.4652
17849W        W32980  13.303   5.949  15.124 -0.1916  0.0108 -0.0799
17850W        W32981  13.490  10.400   2.259  0.0975  0.0892  0.0521
17851W        W32982   5.827   6.727   1.487 -0.4012  0.2550  0.0293
17852W        W32983  12.211  13.505   0.629  0.0222 -0.1745 -0.0422
17853W        W32984   1.587  10.370  12.347  0.1587  0.2414 -0.1184
17854W        W32985   0.882   2.523   1.567 -0.2548 -0.1055  0.0784
17855W        W32986  15.868  15.976  10.221 -0.0362  0.0185 -0.0440
17856W        W32987   8.437   8.866   2.055 -0.0256  0.2303 -0.2790
17857W        W32988  14.010   2.528  12.023 -0.0587 -0.3234 -0.1787
17858W        W32989   5.168  12.924   4.044  0.1897 -0.0163  0.0098
17859W        W32990   6.617   1.720   4.585 -0.1512 -0.0970  0.2152
17860W        W32991   0.859   4.880   2.172 -0.0084  0.0510  0.0485
17861W        W32992   5.728  12.571  12.608  0.3324  0.0324 -0.0680
17862W        W32993  14.723  13.779   0.710  0.3035 -0.1026 -0.2683
17863W        W32994   9.528  14.409  14.429  0.0847  0.2686  0.1197
17864W        W32995  10.127   6.907  13.487 -0.0764 -0.0084  0.3536
17865W        W32996   3.446  15.927   2.750  0.2098  0.0223 -0.0629
17866W        W32997  17.771   9.407   5.133  0.3025  0.1590  0.0899
17867W        W32998   1.954  16.487  14.131 -0.0236 -0.1604  0.0153
17868W        W32999  10.400   1.151   1.550  0.2086  0.4519 -0.1361
17869W        W33000   6.185  14.018   3.776 -0.2257 -0.5332  0.2478
17870W        W33001  16.735   5.262   1.642 -0.1457  0.1277 -0.1816
17871W        W33002   0.985   8.082  13.708 -0.1249 -0.1155 -0.1985
17872W        W33003   1.950  12.562   0.582 -0.1918 -0.1642 -0.0039
17873W        W33004   9.994  13.637   5.058 -0.0252 -0.1022  0.0791
17874W        W33005  13.383  17.735  13.366  0.1044 -0.1287  0.0545
17875W        W33006   2.771   4.891  12.495  0.1405  0.2310 -0.0461
17876W        W33007   0.610   6.573  10.695  0.1729 -0.2062  0.0008
17877W        W33008  10.218   2.865   5.851 -0.2250  0.2955  0.3525
17878W        W33009  12.890   8.281   4.742 -0.0673 -0.0728  0.2160
17879W        W33010   5.728   4.370  13.898  0.3291  0.3081 -0.0135
17880W        W33011  13.035   7.522   5.325 -0.1735  0.0684  0.0918
17881W        W33012  10.379  10.582  14.808  0.1777  0.0227 -0.2559
17882W        W33013   7.471   4.078   2.076 -0.0712  0.1769  0.3259
17883W        W33014  12.926   8.886   0.641  0.0255  0.1809 -0.1650
17884W        W33015   2.997   4.213   0.127  0.1181  0.1669  0.2524
17885W        W33016   8.723  14.807   4.852 -0.3067  0.2877 -0.1119
17886W        W33017   2.303   1.579  11.134 -0.0776  0.2390 -0.2377
17887W        W33018   9.821   4.142  12.749  0.2855  0.2639  0.0365
17888W        W33019   4.054  11.657  10.719  0.1063 -0.2841 -0.0668
17889W        W33020  16.207   0.329   3.161  0.3670  0.2111  0.2096
17890W        W33021  16.430  18.318   5.354  0.2904 -0.0082  0.1419
17891W        W33022   2.269  17.811   2.097 -0.1516  0.4084  0.0029
17892W        W33023   0.760   0.037   5.388 -0.1133 -0.1464 -0.1331
17893W        W33024   5.146  16.685  12.554  0.0931 -0.2921 -0.3128
17894W        W33025   7.398   5.122  14.180  0.2117  0.0575  0.2160
17895W        W33026  17.503   6.101  11.975 -0.0667 -0.2496  0.1607
17896W        W33027  18.494  16.657  14.704  0.1373  0.5262 -0.0996
17897W        W33028  17.052   0.250  15.037  0.0595  0.0419  0.0426
17898W        W33029  11.914  13.663  12.476 -0.2668 -0.0419  0.1093
17899W        W33030  16.689   9.124  13.688  0.3259  0.1013 -0.0372
17900W        W33031   9.160  10.198   5.503 -0.2197 -0.2038  0.0827
17901W        W33032   8.193   8.743   2.752 -0.0298  0.0279 -0.0740
17902W        W33033  17.847  10.482   1.880  0.3001  0.1735 -0.0398
17903W        W33034   2.647  13.947  11.725  0.1540  0.3025  0.0065
17904W        W33035  11.878  12.987  11.533  0.1828 -0.2017  0.4061
17905W        W33036  13.468   6.070   4.150 -0.3562 -0.1868 -0.0054
17906W        W33037  14.372  17.464  15.007 -0.0040  0.1135 -0.1573
17907W        W33038  16.218   9.550   9.951  0.1731 -0.3229 -0.0447
17908W        W33039   7.779  10.270  11.666  0.1895 -0.0451 -0.3799
17909W        W33040   6.696  12.490   2.354 -0.0994  0.2135  0.1359
17910W        W33041  17.640   2.676  12.148  0.1696 -0.1450 -0.1678
17911W        W33042   4.092  18.754  13.521 -0.0036  0.0806 -0.3955
17912W        W33043   3.197   7.344  13.387 -0.1726  0.2212 -0.0389
17913W        W33044   2.667  10.845  15.006 -0.0572  0.1547  0.3928
17914W        W33045   3.390  16.315   1.598  0.0216  0.2346 -0.1442
17915W        W33046   4.360  14.254   9.993 -0.2228 -0.1458  0.0266
17916W        W33047   0.476  17.714   1.666 -0.2589 -0.0452 -0.0996
17917W        W33048  12.115  17.389   3.060 -0.2089 -0.0443  0.0607
17918W        W33049  14.171  11.130   4.811 -0.1538 -0.3209  0.1700
17919W        W33050   0.508   8.385  10.343 -0.3195 -0.1904 -0.0772
17920W        W33051   7.966  17.397   4.675  0.0407 -0.3335  0.0934
17921W        W33052  12.521   8.960  13.088  0.4017 -0.1397 -0.0553
17922W        W33053  11.709   5.242  12.261 -0.5542  0.0275 -0.3825
17923W        W33054  13.851   8.956  13.084  0.0093 -0.0402 -0.0536
17924W        W33055  15.147   2.820  13.971  0.3105  0.0463  0.2227
17925W        W33056   3.441   8.354  11.326 -0.0600  0.1120 -0.0305
17926W        W33057   7.499   4.795   3.366 -0.0732  0.1870  0.0425
17927W        W33058  10.439  14.765  11.040 -0.2674 -0.1466  0.1029
17928W        W33059   6.487   5.224  10.910  0.2025 -0.1799  0.1574
17929W        W33060  18.252  12.030   2.030 -0.1907 -0.3240  0.3878
17930W        W33061  10.373  12.240   5.432  0.1048 -0.0034  0.1239
17931W        W33062  14.719   4.713  14.743 -0.1281  0.2462 -0.4370
17932W        W33063   1.646  12.439   1.764 -0.2240  0.0950  0.1306
17933W        W33064  17.397  15.493  13.346  0.1460 -0.1445 -0.3672
17934W        W33065  17.501   7.764  10.850  0.1730 -0.0887  0.0576
17935W        W33066   6.368   8.681   2.095  0.1263 -0.0182  0.2385
17936W        W33067   0.301   4.782  14.347 -0.1073  0.1635 -0.4220
17937W        W33068   2.577   6.218  14.637 -0.2798 -0.1757 -0.0830
17938W        W33069   8.895   8.277   2.527 -0.0908  0.0433  0.0887
17939W        W33070   8.723  18.349  13.890 -0.2337 -0.0221  0.0889
17940W        W33071  13.440  12.105  14.392 -0.0790 -0.0993  0.1883
17941W        W33072   7.598   2.198  12.936 -0.0505  0.3362  0.1213
17942W        W33073  11.063   8.827   6.143 -0.0491  0.2015  0.0012
17943W        W33074   8.177   7.749  11.325 -0.0559  0.0784  0.1407
17944W        W33075   2.414  10.240  13.698  0.0916  0.0192 -0.0063
17945W        W33076   1.368  16.745   3.593 -0.2381 -0.2044  0.1460
17946W        W33077   0.107  11.222  14.127 -0.2065  0.1214 -0.3100
17947W        W33078   1.855   0.370   3.842  0.1685 -0.1562  0.1042
17948W        W33079   9.829   1.844  12.303 -0.2620  0.1039  0.0902
17949W        W33080  16.429   3.675  11.918 -0.1537 -0.0375  0.0079
17950W        W33081  12.723  14.361   3.859  0.1116  0.0397  0.2560
17951W        W33082   4.966  15.668  10.148  0.2774 -0.0446  0.3339
17952W        W33083  15.009  12.237  11.891  0.1388 -0.1567 -0.3987
17953W        W33084   6.593   2.083   0.465  0.0024  0.2031  0.0295
17954W        W33085   2.863   6.885   5.378 -0.1367  0.1327  0.4010
17955W        W33086   0.878   0.830   3.491 -0.6334  0.2782 -0.0967
17956W        W33087   4.411   3.940  14.597 -0.1562  0.0123 -0.1460
17957W        W33088   8.460   9.836  15.609 -0.2658  0.0137 -0.0977
17958W        W33089  10.912  15.251  11.776  0.0519  0.1290 -0.1739
17959W        W33090   9.229   4.188  14.678 -0.1384  0.2167 -0.1334
17960W        W33091  13.400   1.956   5.618  0.1714  0.1477 -0.3854
17961W        W33092   7.996  11.017   3.401 -0.1351 -0.1982  0.1032
17962W        W33093   7.093  16.805  12.387  0.1247 -0.2439 -0.1753
17963W        W33094  10.039   3.712  14.617 -0.2197  0.2004  0.4290
17964W        W33095   1.577  13.251   3.190  0.1059 -0.0492 -0.2364
17965W        W33096  15.626   3.808   4.562  0.1197 -0.1534 -0.3849
17966W        W33097  10.286  15.239   0.432 -0.2261 -0.1294  0.1097
17967W        W33098  13.141  11.373   3.101  0.2484  0.0307 -0.0254
17968W        W33099   4.584  18.220   2.616  0.2023 -0.0485 -0.0089
17969W        W33100   1.394   4.131   5.107  0.4111  0.2281  0.0721
17970W        W33101   3.232   5.254   5.282 -0.3070  0.2741 -0.0102
17971W        W33102  10.316   7.459  12.940  0.3154  0.1342  0.1079
17972W        W33103  10.441  18.109  14.299  0.1020 -0.0100  0.1959
17973W        W33104  12.447   8.633   5.129 -0.2663 -0.3314 -0.0590
17974W        W33105   8.330  13.432  13.749  0.1191 -0.0262 -0.1508
17975W        W33106   4.491  18.382   1.419 -0.0349 -0.0370 -0.3074
17976W        W33107  12.911   5.494   2.684 -0.1307  0.1707 -0.0396
17977W        W33108  14.695  18.567  15.089  0.1965 -0.1160  0.1384
17978W        W33109   2.502   2.387   4.779  0.4191 -0.2732  0.3279
17979W        W33110   9.378  16.748   5.220 -0.0874 -0.1584 -0.0786
17980W        W33111   7.757   6.478  14.862  0.1348 -0.0296 -0.1251
17981W        W33112   5.870  14.920   2.808  0.2594 -0.1660  0.3199
17982W        W33113  15.259  15.774   4.964 -0.0975  0.2972 -0.2854
17983W        W33114   2.932  10.170   0.938 -0.1109  0.2126 -0.0375
17984W        W33115   5.694  16.240  10.378 -0.2593 -0.0449 -0.0283
17985W        W33116  18.534  18.112   4.533 -0.1564 -0.1477 -0.3250
17986W        W33117   9.144  17.971  10.699 -0.2448 -0.2119  0.1854
17987W        W33118  16.619   2.527  15.354 -0.1698 -0.2128 -0.1390
17988W        W33119  12.343   4.968  13.956  0.0421 -0.2901  0.1915
17989W        W33120  17.755  13.657  14.073 -0.2475 -0.0743  0.1682
17990W        W33121  18.367   3.545  10.639  0.2357  0.1652 -0.0129
17991W        W33122  10.686   0.238  15.631  0.1608  0.0369  0.1955
17992W        W33123  13.390   5.381  11.906 -0.3054  0.1144 -0.2680
17993W        W33124   4.034   5.482  11.327  0.2906 -0.0774 -0.1146
17994W        W33125  14.035  16.571   0.655 -0.1643  0.3151 -0.1726
17995W        W33126   5.013  12.871  11.307 -0.0312  0.0307  0.2771
17996W        W33127   7.323  10.438  13.376 -0.1111  0.2304 -0.0022
17997W        W33128   8.973   6.567   3.334 -0.3860  0.0487 -0.0717
17998W        W33129  17.030   0.710   4.836 -0.1878  0.1175  0.0015
17999W        W33130   6.369  14.049   0.302  0.0253  0.1128  0.0395
18000W        W33131  16.754  17.675  15.624  0.1029 -0.0011  0.1459
18001W        W33132   4.654  17.329   1.047 -0.1530 -0.0218  0.0180
18002W        W33133   6.739  16.641  11.033  0.1551  0.1778 -0.0456
18003W        W33134   6.839   3.972   1.416  0.0811 -0.0828  0.3666
18004W        W33135  17.404  16.925  12.697 -0.2178  0.1498 -0.0555
18005W        W33136   6.665   5.924   0.365  0.2364 -0.0156  0.0418
18006W        W33137   9.630  12.040   0.449  0.0621  0.1202 -0.0894
18007W        W33138   5.211   1.263   4.190  0.0730  0.2638  0.1794
18008W        W33139  10.189  12.091  12.285 -0.4361 -0.1694 -0.0767
18009W        W33140  10.663  15.445  13.086  0.2201  0.0569 -0.1114
18010W        W33141  11.296  17.210   5.201 -0.1527 -0.0255 -0.0922
18011W        W33142   6.733  11.550  13.432  0.0273 -0.2893 -0.2335
18012W        W33143  11.231   9.572   0.445 -0.1328  0.0268 -0.0918
18013W        W33144  18.486  14.592   5.231 -0.2511 -0.1536 -0.1847
18014W        W33145  12.724  14.169   0.210  0.1292 -0.3004 -0.3184
18015W        W33146  10.420   6.402  12.480  0.1917  0.3145  0.3631
18016W        W33147  17.908  12.453   4.929 -0.0801 -0.0555  0.2810
18017W        W33148  11.035   8.953  13.889 -0.4552 -0.2379  0.1264
18018W        W33149   8.854   6.841   0.085  0.1298  0.2254  0.1096
18019W        W33150   4.348   3.093   3.463 -0.1219 -0.0379  0.0505
18020W        W33151   9.271  13.877  11.414  0.1449 -0.0012  0.2235
18021W        W33152  18.370   5.216   2.472  0.2293 -0.1324  0.0088
18022W        W33153  11.515  10.639  11.076  0.1511  0.2974  0.0021
18023W        W33154  13.601  15.273  12.317  0.0664 -0.1389  0.2576
18024W        W33155   9.805  12.535  11.645 -0.0603 -0.3049  0.2420
18025W        W33156  15.619  15.493   2.452  0.0188  0.1165 -0.1674
18026W        W33157  10.210   8.873  14.340  0.1483  0.0682 -0.1341
18027W        W33158  12.377  10.098   0.132 -0.3947 -0.1830 -0.2291
18028W        W33159  16.680   9.196   1.408  0.2234 -0.0818  0.1424
18029W        W33160   6.921  18.053  11.132 -0.0854  0.0089  0.1011
18030W        W33161  17.811  11.838  11.060  0.4739 -0.0438 -0.2037
18031W        W33162  16.105  14.686   4.258  0.5686  0.0294  0.3025
18032W        W33163  17.714  14.156  14.008 -0.1284 -0.0354  0.0754
18033W        W33164   9.753  17.399  14.279  0.2676  0.1188  0.2028
18034W        W33165  12.481  10.454  13.674  0.3067 -0.2523  0.2257
18035W        W33166  17.222  17.888  14.323  0.3174  0.1608 -0.0193
18036W        W33167  17.294  11.722   3.553 -0.3033 -0.0054  0.0620
18037W        W33168   7.332  15.231   4.755  0.1237 -0.0652  0.1155
18038W        W33169   4.868  16.548   2.950 -0.0145 -0.0814  0.0529
18039W        W33170  13.163   3.969  13.423  0.1003  0.0235  0.2489
18040W        W33171   8.823  12.389  13.054 -0.2149 -0.1489 -0.1362
18041W        W33172  18.206   3.972  11.534  0.0044 -0.0463 -0.5428
18042W        W33173   4.500  16.207   9.920 -0.0228  0.2495  0.0561
18043W        W33174   7.840  13.776   5.047 -0.3368 -0.2904  0.0841
18044W        W33175   7.571  12.711  11.133 -0.1589 -0.0106  0.0659
18045W        W33176   3.574  16.938   9.619 -0.1289  0.3297 -0.1408
18046W        W33177   5.810   1.562  10.951  0.0413 -0.0639  0.0147
18047W        W33178   4.595   8.290   4.966  0.1796  0.0893 -0.3870
18048W        W33179   1.249  11.847   3.420  0.0351  0.1457 -0.0306
18049W        W33180  11.985   3.615  14.073 -0.2014 -0.0018  0.0058
18050W        W33181  17.519  14.242   2.904 -0.0733 -0.0698 -0.2950
18051W        W33182  12.334   7.608  12.121 -0.0283 -0.1244 -0.0499
18052W        W33183  15.426   7.332  14.844  0.3284  0.1909  0.3722
18053W        W33184  10.172  18.010  13.505  0.0241 -0.1527 -0.0174
18054W        W33185  12.661   0.557  12.893  0.0251  0.3062 -0.0141
18055W        W33186   2.933  16.416   1.730  0.1487 -0.0559 -0.0728
18056W        W33187   4.097   2.461  12.706  0.0377  0.0515 -0.1496
18057W        W33188  16.763   4.699  15.388 -0.0597  0.3507  0.2305
18058W        W33189  11.646  15.302   4.775 -0.0090 -0.2137 -0.1766
18059W        W33190   6.091  12.512   0.468  0.2680  0.1708  0.0590
18060W        W33191  17.403  14.654  11.763  0.1222 -0.1956  0.2578
18061W        W33192  17.702   6.039  11.087  0.0297  0.2747  0.2876
18062W        W33193   5.304   7.808  11.570 -0.1222  0.0029 -0.2676
18063W        W33194   2.310   8.022   3.930  0.1093 -0.0666  0.1453
18064W        W33195  13.518   3.906   1.958  0.2433  0.0994 -0.0220
18065W        W33196  13.120   0.413   5.414  0.1242 -0.1628  0.1333
18066W        W33197   5.943   5.765  14.361  0.2136  0.2317 -0.0516
18067W        W33198   0.878   5.948  11.450 -0.0658  0.2080 -0.2177
18068W        W33199   8.174  16.150   4.859 -0.1738  0.0607  0.2183
18069W        W33200   2.371   8.827   4.359  0.1798 -0.0282  0.1998
18070W        W33201   7.662   4.491  12.224  0.0791 -0.2295 -0.3269
18071W        W33202   2.921   6.505  15.446 -0.0942  0.0981 -0.0561
18072W        W33203   7.471   6.113   1.506  0.0181 -0.2952 -0.1375
18073W        W33204  10.433  12.746  15.498 -0.2294 -0.0346 -0.0301
18074W        W33205   4.189   3.582   4.837 -0.0019 -0.2307 -0.2753
18075W        W33206   7.660  16.311  14.586  0.1139 -0.1265  0.2431
18076W        W33207   0.617   1.459  12.884 -0.2099  0.2901 -0.1040
18077W        W33208  17.973  18.245  13.290 -0.1093 -0.0667 -0.0311
18078W        W33209  17.874   9.774  15.486 -0.2910 -0.2545 -0.1015
18079W        W33210   8.617  12.724  13.369 -0.0446  0.0317  0.0457
18080W        W33211   6.394  13.225   5.145  0.1484 -0.2438 -0.1485
18081W        W33212   4.881  10.477  14.516 -0.0298  0.0767 -0.0297
18082W        W33213   9.524   2.222  15.682  0.1464 -0.0004  0.3417
18083W        W33214   4.459  16.845   1.222  0.1163  0.2490 -0.0837
18084W        W33215   7.188  18.051   0.723 -0.1072  0.0432 -0.2647
18085W        W33216  17.849  16.053   2.488  0.4291  0.1684 -0.2195
18086W        W33217   8.315  12.393   6.030  0.0802 -0.1354 -0.0683
18087W        W33218   8.764   6.421  11.330  0.2819 -0.2097 -0.2335
18088W        W33219   3.933   7.966  14.603  0.1971  0.1149 -0.0787
18089W        W33220   3.046   4.059  15.402 -0.1921 -0.0784  0.0595
18090W        W33221   1.733  18.224  14.349 -0.0941 -0.0932  0.1817
18091W        W33222  15.549   4.769  15.019 -0.0641  0.0580  0.1628
18092W        W33223   4.976  17.604  12.032 -0.4102  0.0242 -0.0635
18093W        W33224   1.633   2.495  14.171  0.2020  0.0065  0.2620
18094W        W33225  15.122   0.916   2.023 -0.1737  0.1105  0.0286
18095W        W33226  10.584  16.302  13.286  0.1202  0.0207  0.1443
18096W        W33227   0.710   2.395   3.840 -0.1309 -0.2370 -0.2738
18097W        W33228  13.721   2.258   1.785 -0.0185 -0.0637 -0.4620
18098W        W33229  11.485  11.272   1.048 -0.0149 -0.0850  0.4166
18099W        W33230   7.853  16.853   0.254 -0.4366 -0.2159  0.0739
18100W        W33231  13.433  14.754   0.225  0.3271  0.0991 -0.1046
18101W        W33232   9.820  17.952  14.432 -0.1295 -0.4540 -0.0654
18102W        W33233  16.372   5.373   1.308  0.0214 -0.0698  0.0635
18103W        W33234  13.559  14.177   1.185  0.1430  0.0512  0.0738
18104W        W33235   4.924   9.433  12.973 -0.0157  0.0695 -0.1048
18105W        W33236  11.415   1.413  14.148 -0.2723 -0.3530  0.0329
18106W        W33237   9.964   1.205  13.011 -0.0579 -0.4444  0.0197
18107W        W33238  15.925   7.480  13.586  0.0129  0.1644 -0.0198
18108W        W33239   3.020  14.716   5.271 -0.2157 -0.3085 -0.0661
18109W        W33240   2.221  15.090  13.569  0.2292 -0.1858 -0.2864
18110W        W33241   0.665   6.727  14.726 -0.1280 -0.2667 -0.1146
18111W        W33242   6.245   9.830  13.371 -0.0181  0.2136 -0.2787
18112W        W33243   0.534   8.162   2.153  0.1160  0.0229 -0.2070
18113W        W33244   3.753   7.961   3.377  0.2831  0.2314  0.0379
18114W        W33245   8.748   6.162   3.058  0.0720 -0.1830  0.0388
18115W        W33246   9.780  10.970  13.826 -0.0954 -0.0402  0.0862
18116W        W33247   0.905   0.439   5.770 -0.0740 -0.3176  0.1692
18117W        W33248   9.330  11.707   1.970  0.1452 -0.2762 -0.2387
18118W        W33249   9.916  11.377   3.321  0.1082 -0.1219  0.2765
18119W        W33250  12.933  13.064   5.114  0.1322  0.0143 -0.2170
18120W        W33251   3.709   8.007   0.422 -0.0158 -0.2509  0.0814
18121W        W33252   9.586  13.233  15.115 -0.2334  0.2303 -0.2296
18122W        W33253  14.638   4.286  15.658  0.0220 -0.1317 -0.0294
18123W        W33254  11.331  12.063   0.203  0.1392 -0.0586 -0.1397
18124W        W33255  13.693  16.106  12.856  0.0406 -0.3428 -0.1326
18125W        W33256  17.426   6.412   3.091 -0.0937 -0.3913  0.1389
18126W        W33257  14.537   1.886  11.745 -0.0398  0.0302  0.1478
18127W        W33258  14.453   1.828   2.282 -0.0747 -0.0130  0.1046
18128W        W33259  14.634   6.857   0.831 -0.0898 -0.1552  0.3128
18129W        W33260  13.062  14.570   2.738  0.0589  0.1118 -0.1860
18130W        W33261   7.574  18.121   5.153 -0.3284  0.0947 -0.1313
18131W        W33262  13.938   2.904  12.918 -0.1068 -0.0661 -0.3002
18132W        W33263   8.017   7.492   0.437  0.0904  0.0917 -0.0557
18133W        W33264   5.081  13.789   3.352 -0.1215 -0.1950 -0.4694
18134W        W33265   3.220   8.435   4.294 -0.2755  0.0617 -0.0054
18135W        W33266   8.917   1.541  11.441 -0.0714 -0.2154 -0.1992
18136W        W33267   7.362  15.530  11.665  0.0158 -0.0039 -0.2125
18137W        W33268  18.597  15.162   3.277  0.1925 -0.4006 -0.0607
18138W        W33269   5.554   1.811  15.121  0.0755  0.1346  0.1009
18139W        W33270  10.738  14.792   0.864 -0.0476  0.0633  0.1487
18140W        W33271   4.553  18.690   5.299  0.2374 -0.0235  0.4180
18141W        W33272  10.016  13.147  13.862  0.0735  0.1157 -0.2291
18142W        W33273   5.870   5.373   0.049  0.0461 -0.1680 -0.2903
18143W        W33274  15.994  11.500   2.266 -0.0470 -0.2535  0.1768
18144W        W33275  16.514  10.005   0.039 -0.1868 -0.1173  0.0754
18145W        W33276   3.695   9.136  12.744 -0.1634  0.2175 -0.0587
18146W        W33277   3.486  10.332   3.978  0.3217 -0.0708  0.3144
18147W        W33278   4.532   2.490   3.211  0.2184  0.1642 -0.0089
18148W        W33279  11.949  13.342   1.672  0.2854 -0.2911  0.1092
18149W        W33280  13.476  18.468  14.488 -0.0413  0.0088  0.1034
18150W        W33281  13.035   1.589  12.409  0.1352 -0.0691  0.0501
18151W        W33282   5.526   9.643  13.376 -0.2102 -0.1834  0.0106
18152W        W33283   2.083   7.440   2.958 -0.2384 -0.2464  0.1155
18153W        W33284   5.621  14.748  11.195  0.0260  0.3088  0.1942
18154W        W33285   5.694  11.024  14.235  0.1957 -0.3139  0.1300
18155W        W33286  13.038  15.095   0.267  0.2042 -0.1287 -0.2808
18156W        W33287  10.563  13.113  14.279 -0.1988  0.1097  0.0324
18157W        W33288  12.370   2.816  14.394  0.0352  0.0196  0.0869
18158W        W33289  11.602   2.234   3.021 -0.1254 -0.1840  0.0158
18159W        W33290  12.348   2.314  12.479 -0.2006  0.0609 -0.2751
18160W        W33291  14.455  13.633  11.926 -0.1684 -0.2498  0.0459
18161W        W33292   3.719   2.591   4.213  0.0992  0.0766 -0.3206
18162W        W33293   8.192   6.303  12.994  0.2762  0.1325  0.1057
18163W        W33294   8.904   8.597  13.618  0.1587 -0.0611 -0.0991
18164W        W33295  15.198   4.194   3.839 -0.0272 -0.0244 -0.0274
18165W        W33296   2.434  16.346   1.502  0.0563  0.0684  0.0063
18166W        W33297   5.320   0.100  10.938  0.0332 -0.1172  0.0994
18167W        W33298   7.285   4.525  11.412  0.0365 -0.0422 -0.1299
18168W        W33299  18.535   1.506   5.536  0.1416  0.1905  0.2277
18169W        W33300   6.090  12.181  12.697  0.0371 -0.0454 -0.0745
18170W        W33301  12.310   9.417  11.525  0.0356 -0.1549  0.1460
18171W        W33302  16.561  18.602  12.254 -0.0531  0.2087 -0.1305
18172W        W33303  14.630   9.845  13.468 -0.3097 -0.1941 -0.1346
18173W        W33304  10.048   3.942  11.899  0.1082 -0.1612  0.0140
18174W        W33305  17.353  18.276  12.090 -0.2552 -0.1314 -0.1395
18175W        W33306   5.389  15.802  12.804 -0.3089 -0.0637 -0.0171
18176W        W33307   1.409   6.084   2.217  0.0776 -0.0057 -0.1412
18177W        W33308  12.920   4.276  15.219 -0.0148  0.3511  0.1465
18178W        W33309   1.430  18.507  12.704 -0.1744  0.0061 -0.0845
18179W        W33310   6.212  16.921  12.293  0.1137  0.1022  0.2504
18180W        W33311  18.386   2.500   3.773  0.1219 -0.0867 -0.2095
18181W        W33312  11.410  18.291  15.563 -0.1503  0.0019  0.1802
18182W        W33313   5.956   7.470   4.700  0.0173 -0.2364  0.1506
18183W        W33314  10.722  17.354   1.766 -0.1471 -0.0248 -0.2638
18184W        W33315   8.208   6.971  10.945 -0.1370 -0.4532  0.0470
18185W        W33316   6.359  15.999  10.263 -0.0546 -0.3729  0.1753
18186W        W33317  17.630  10.004   1.400  0.0122  0.2205 -0.0933
18187W        W33318  13.963   7.947   0.733 -0.2292  0.2312 -0.4864
18188W        W33319  11.928   6.402   4.020 -0.1267  0.1469  0.2776
18189W        W33320   4.459  12.517  11.220  0.0855 -0.1758 -0.0232
18190W        W33321  16.099  13.201   5.198 -0.1867 -0.0245 -0.0068
18191W        W33322   3.176   0.688   0.144  0.0331  0.0397 -0.3250
18192W        W33323   6.975   5.044  11.948 -0.3042 -0.1101 -0.4308
18193W        W33324   0.450  14.099  14.160 -0.2824 -0.0779  0.3246
18194W        W33325  17.423  17.696  13.438  0.0593 -0.2252  0.0129
18195W        W33326   3.829   0.722   3.000  0.1359 -0.0847 -0.2412
18196W        W33327   1.937   3.897   2.716 -0.1616 -0.0338  0.2824
18197W        W33328   5.428  10.290   2.830 -0.3991 -0.1994  0.1036
18198W        W33329  16.624  14.211   5.987 -0.0495 -0.2469 -0.1071
18199W        W33330   7.564   5.624   0.823 -0.0881  0.1648 -0.0201
18200W        W33331   5.153   4.881   4.240  0.1564  0.1785  0.0897
18201W        W33332   6.827  12.986   5.070 -0.0951  0.0563 -0.1090
18202W        W33333   4.945   7.613   1.982 -0.0383 -0.1083 -0.0827
18203W        W33334   5.482  16.992  14.096  0.0211 -0.1563  0.1366
18204W        W33335   3.278  13.632  14.999 -0.0962 -0.2366  0.0223
18205W        W33336  10.693   3.772   1.953 -0.2656  0.2215 -0.0250
18206W        W33337  11.111  16.250  14.011  0.0184  0.2502  0.2252
18207W        W33338   8.239   3.019   1.821 -0.2289  0.1152 -0.1745
18208W        W33339  13.626  10.092  13.393 -0.1429 -0.1560  0.1276
18209W        W33340  12.442   4.605   3.873 -0.3054 -0.4841  0.2532
18210W        W33341   1.581  12.108   3.831  0.0674 -0.1862  0.2477
18211W        W33342   3.186   9.344   2.122 -0.1723 -0.1873  0.1229
18212W        W33343  14.363   8.498   4.316 -0.3192  0.1628  0.0771
18213W        W33344   8.798  16.424  14.690 -0.0887 -0.0157 -0.0936
18214W        W33345  16.006   3.205   0.547 -0.2221  0.2464 -0.1564
18215W        W33346   6.411   4.487   2.623  0.1659  0.1815  0.1990
18216W        W33347  10.772  15.242  13.814  0.1184 -0.0202 -0.2200
18217W        W33348  12.348   6.686   4.779 -0.1869  0.1579 -0.1390
18218W        W33349  11.191   3.391   1.338 -0.0534  0.3104 -0.2294
18219W        W33350   6.346   0.190  11.263  0.0171  0.3115  0.0371
18220W        W33351  15.106  16.538  13.423 -0.0222 -0.1878 -0.3997
18221W        W33352  14.251   0.007  11.441 -0.4036  0.2291 -0.1346
18222W        W33353  14.154  15.903   4.110  0.2756 -0.1320  0.1670
18223W        W33354  12.584   6.904   5.567  0.1586  0.0346 -0.2338
18224W        W33355  14.660   7.829  11.440  0.1067 -0.0816  0.0381
18225W        W33356  17.064  12.947   0.549  0.4902  0.0359  0.4665
18226W        W33357  10.522  17.289  10.809 -0.1099  0.1092  0.0636
18227W        W33358  11.923   1.642  11.137 -0.0187 -0.2353  0.5063
18228W        W33359  14.035   5.991  14.422  0.0611 -0.5792  0.1468
18229W        W33360  11.548   3.938   1.866 -0.1392 -0.1108  0.3083
18230W        W33361  15.546   1.744  14.079 -0.2635 -0.1379 -0.0689
18231W        W33362  13.413   3.763  10.876 -0.1398  0.0168  0.1815
18232W        W33363   9.958  11.550   4.893 -0.2210  0.3646 -0.0655
18233W        W33364   1.294   1.415  14.617 -0.0149  0.1140 -0.3622
18234W        W33365   4.508   0.108  14.543  0.1198  0.5375  0.1595
18235W        W33366   9.456   0.942  12.329  0.0523  0.3047 -0.2643
18236W        W33367   7.099  16.121   1.246 -0.0366 -0.0633 -0.3838
18237W        W33368   7.791  12.560  11.553  0.1805  0.1531 -0.0307
18238W        W33369  10.652   2.064   0.785 -0.2676  0.3279  0.0564
18239W        W33370  13.060  11.153   4.686  0.2560  0.3335  0.0971
18240W        W33371   8.654  15.665  11.459 -0.1846  0.0741 -0.1141
18241W        W33372  17.264   5.364   3.404  0.0760  0.1337 -0.2309
18242W        W33373   5.090  15.733   1.885  0.0385  0.1847  0.0398
18243W        W33374   0.241  16.450  12.308  0.1796  0.2539 -0.0249
18244W        W33375   5.514   0.686  11.422  0.0594 -0.1344 -0.1354
18245W        W33376   9.655  18.374   3.574 -0.1920  0.0251  0.0901
18246W        W33377   6.171   2.589   0.882  0.2441 -0.3116 -0.2875
18247W        W33378  11.328   8.650   2.310  0.1503 -0.2234 -0.3229
18248W        W33379  10.511   7.591   2.873  0.1911 -0.5335 -0.2716
18249W        W33380   6.637  14.853   2.054  0.0832 -0.0810 -0.0426
18250W        W33381   9.892   5.296  14.421 -0.1865 -0.0522 -0.0539
18251W        W33382   7.314  18.582   0.921 -0.2133 -0.2216  0.0767
18252W        W33383   0.164   9.832  14.073 -0.1943 -0.0453  0.2136
18253W        W33384   1.927  18.427  14.857 -0.0732 -0.1291 -0.2516
18254W        W33385   4.284   9.398  15.038  0.2006 -0.3754  0.1622
18255W        W33386   5.429   1.275   4.869 -0.0638 -0.2735  0.0369
18256W        W33387  10.849  15.203   5.379  0.0384 -0.1638  0.3869
18257W        W33388  16.295   1.411   3.292 -0.1363  0.0451  0.2858
18258W        W33389   3.335  13.584   4.458  0.0149  0.1619  0.1650
18259W        W33390  14.354   7.076   2.976  0.0470  0.1288 -0.0984
18260W        W33391   4.225  17.787   3.224  0.0875 -0.0055 -0.1183
18261W        W33392   7.795   5.579  10.989 -0.3611  0.2126 -0.0826
18262W        W33393  16.677   6.389  15.049  0.0877  0.1247  0.2896
18263W        W33394   4.771   1.712  12.590 -0.0935  0.0382  0.4357
18264W        W33395   2.666   5.755  15.333  0.2332 -0.0274  0.0319
18265W        W33396  17.162   9.780  12.674 -0.0892 -0.0186 -0.3366
18266W        W33397  12.280  15.642   0.279 -0.0520 -0.1579 -0.1192
18267W        W33398  10.941   8.326   3.148  0.0409  0.1645 -0.2453
18268W        W33399  13.656  16.498  14.062 -0.2835 -0.1826 -0.0536
18269W        W33400  10.532   8.460  12.040  0.0984  0.0993  0.0938
18270W        W33401   6.118   0.550  11.630  0.1504 -0.1025  0.0199
18271W        W33402  12.863   3.838  15.746 -0.0295 -0.0116  0.1459
18272W        W33403  11.282   9.154   5.262  0.1657  0.2083  0.0347
18273W        W33404   0.962   9.432  12.304  0.0403  0.2254  0.0833
18274W        W33405  17.456  10.573  15.290  0.0809  0.1496  0.0622
18275W        W33406  13.426  11.052   5.483  0.2788 -0.1699  0.0626
18276W        W33407  14.814   0.855  15.128  0.1136 -0.0814 -0.3680
18277W        W33408  14.593  15.636  12.549 -0.4085 -0.3150 -0.2445
18278W        W33409  17.913   8.536  15.583 -0.1167 -0.0359 -0.0205
18279W        W33410  15.094   9.590  14.195 -0.1410  0.1252 -0.1603
18280W        W33411   3.514  17.495   4.639 -0.0783  0.0887  0.1376
18281W        W33412   2.763   4.264   2.229 -0.0855  0.0803 -0.0637
18282W        W33413   5.443   3.106   4.988  0.1890  0.3302  0.1399
18283W        W33414  10.983   9.338   3.206 -0.1632 -0.3711  0.0302
18284W        W33415   2.191  15.742  12.186  0.0931 -0.3106  0.0101
18285W        W33416  16.876   6.208  13.669 -0.0173 -0.2360 -0.4770
18286W        W33417  14.832  13.708   3.175 -0.1410  0.0857 -0.0454
18287W        W33418   5.225   9.229   2.687 -0.0660 -0.1768  0.1818
18288W        W33419  18.161  16.101  13.417 -0.1562  0.1982 -0.1086
18289W        W33420  12.382   3.152   2.566  0.1104  0.0771  0.1215
18290W        W33421   4.851  14.061   3.715  0.4402 -0.0762 -0.1242
18291W        W33422   3.676   5.989  12.268  0.0656  0.0906 -0.0388
18292W        W33423  10.697   9.729   3.489  0.0923  0.2395  0.1021
18293W        W33424   3.681  18.147  11.820  0.1744  0.1473 -0.3408
18294W        W33425  13.818  12.206  12.736 -0.1494  0.2042  0.2461
18295W        W33426  15.766   5.910  10.531  0.0874  0.2234  0.0434
18296W        W33427  15.048  12.329   1.601 -0.1305  0.1537  0.0103
18297W        W33428   4.985   5.331   4.560  0.2942 -0.0916  0.0368
18298W        W33429   2.907   0.023  10.365 -0.3285 -0.0581 -0.0034
18299W        W33430  10.268   3.404   5.940 -0.1798 -0.2970  0.3275
18300W        W33431  16.317   8.367   0.143 -0.0289  0.1274  0.0354
18301W        W33432   5.446   7.820  15.238 -0.2818 -0.0123 -0.0136
18302W        W33433  13.372  17.371  14.898 -0.3371  0.1948 -0.2790
18303W        W33434   5.743   7.827  10.169  0.1743  0.2046  0.0846
18304W        W33435  17.417  10.051  11.164 -0.0388 -0.0788  0.0323
18305W        W33436  15.571   0.880  15.534  0.1307 -0.0327 -0.0212
18306W        W33437  14.396  17.408  14.448  0.1452 -0.0158 -0.0839
18307W        W33438  12.591   9.515  13.285 -0.1259  0.0186  0.1121
18308W        W33439  15.319   0.829   0.366 -0.0150  0.1198 -0.3262
18309W        W33440  16.801  13.616  12.816 -0.3254 -0.1004 -0.0586
18310W        W33441  13.243   6.332  15.478 -0.0212 -0.1305 -0.2506
18311W        W33442  15.862   6.934  14.948  0.3622 -0.1283  0.0791
18312W        W33443   7.312   4.644   9.411 -0.2338 -0.1152  0.2599
18313W        W33444   5.220  18.236   4.638  0.1265 -0.3546 -0.1574
18314W        W33445  17.212  18.273   5.734 -0.0707 -0.0174 -0.3289
18315W        W33446   8.537   6.733   2.334  0.3179 -0.0363 -0.0691
18316W        W33447   9.490  11.747  10.222 -0.0595 -0.1853 -0.3050
18317W        W33448   9.909   4.014   4.255  0.0850  0.1273 -0.2989
18318W        W33449  14.491  16.125   4.971 -0.0467  0.2758 -0.1321
18319W        W33450   4.086   8.395   0.566  0.1268 -0.0304  0.2935
18320W        W33451   8.104  14.644  13.507  0.0910 -0.1041  0.1153
18321W        W33452  12.154  12.518   6.421  0.2298  0.2734 -0.1844
18322W        W33453   1.316  15.419   1.312  0.1726  0.0341 -0.0668
18323W        W33454   6.304   3.071   3.484 -0.2681 -0.0798  0.1010
18324W        W33455  18.229  16.598   2.269 -0.1407  0.3946  0.0143
18325W        W33456   4.147  15.832   1.925 -0.1284 -0.3029 -0.3055
18326W        W33457  12.476   5.102  10.627  0.0758 -0.0687  0.2415
18327W        W33458   5.595   0.204  12.316  0.3515  0.2422  0.3291
18328W        W33459   6.697  13.502  12.712  0.1422  0.0262  0.1381
18329W        W33460   2.519  14.335   2.361  0.1194 -0.1971  0.1519
18330W        W33461   4.226   4.290   0.478  0.1570  0.1874  0.2899
18331W        W33462   8.212  12.019   2.470  0.0345 -0.0782 -0.3083
18332W        W33463   9.432   9.639   6.083  0.2577 -0.1233 -0.2590
18333W        W33464   7.406  15.603   4.424 -0.4207  0.1947  0.4304
18334W        W33465   5.103   6.605   0.704 -0.2273  0.1537 -0.3057
18335W        W33466   8.256  14.244  11.738  0.0216  0.2386  0.1643
18336W        W33467   8.393   0.604   1.190  0.0395  0.1052 -0.1155
18337W        W33468  11.312  12.437   4.695  0.0884  0.0901  0.1966
18338W        W33469   5.456  11.197  12.689 -0.0957 -0.1342  0.3739
18339W        W33470   9.927   0.537  12.994 -0.2496  0.1030  0.4415
18340W        W33471   0.888  17.725  14.277  0.0134 -0.0135  0.1577
18341W        W33472  17.775  14.689  11.398  0.0295 -0.2269 -0.1586
18342W        W33473   6.104   8.759  12.612 -0.0509 -0.0179  0.0791
18343W        W33474   0.716  18.641  11.281  0.1059  0.0664 -0.0632
18344W        W33475   7.369  10.987   4.628 -0.1650 -0.3229  0.1957
18345W        W33476  10.687   7.779   5.337 -0.0341 -0.1922 -0.0347
18346W        W33477   4.191  17.033  12.870  0.0468 -0.1025 -0.0416
18347W        W33478   6.762  18.176  12.022 -0.1129 -0.0303 -0.0511
18348W        W33479  12.271  10.388  11.338 -0.1211  0.0369 -0.1520
18349W        W33480  17.049   0.186  10.802  0.0409 -0.0661 -0.0163
18350W        W33481  12.201  14.962   3.237  0.0802 -0.2224  0.1463
18351W        W33482  17.846   7.398   1.095 -0.1630 -0.1850  0.0519
18352W        W33483   2.898  13.683   4.236 -0.4897 -0.1052  0.0554
18353W        W33484  12.118  11.297   2.863  0.3361  0.0528 -0.0510
18354W        W33485  13.346   9.092   0.501  0.0030  0.0351  0.1128
18355W        W33486   6.579   4.052   4.819  0.0989  0.0831  0.0831
18356W        W33487  16.296  11.659   0.035 -0.0408 -0.1937 -0.0280
18357W        W33488  11.153   3.189  14.433  0.0177  0.0473  0.0581
18358W        W33489   9.659  16.194   2.452  0.0599  0.0265  0.1061
18359W        W33490  12.017   8.183   2.729  0.2976 -0.0524 -0.2283
18360W        W33491   1.091  16.627   5.387 -0.1231 -0.1353  0.3193
18361W        W33492   8.347  15.292  15.343 -0.2390 -0.1598  0.2072
18362W        W33493   5.665   1.649   3.121  0.2487  0.0736 -0.1756
18363W        W33494   6.237  12.620   5.917 -0.3752  0.2618  0.1032
18364W        W33495  12.820  12.096   0.222  0.0677 -0.2198  0.4233
18365W        W33496  17.767   1.994  10.768 -0.2586  0.3893  0.2146
18366W        W33497  15.178   9.611  14.806 -0.3479 -0.0010  0.1448
18367W        W33498  10.465   7.774   0.338 -0.2485  0.1285 -0.0310
18368W        W33499   5.417  17.351   0.431  0.2521  0.0967  0.3114
18369W        W33500   1.446   2.707  13.582 -0.1499  0.0912 -0.0770
18370W        W33501  16.093  14.863   0.255  0.2657 -0.1397 -0.0720
18371W        W33502   7.027   6.850  14.646 -0.1577 -0.2681 -0.0297
18372W        W33503   9.618  16.266  15.259 -0.4548  0.0839 -0.2040
18373W        W33504  14.517   7.754   1.496  0.0033  0.0092 -0.0238
18374W        W33505   3.516  12.165  12.403 -0.1005 -0.4557 -0.4077
18375W        W33506   8.742  15.184  14.213  0.0328 -0.0253 -0.0542
18376W        W33507  11.256  11.484  12.769 -0.2470 -0.3288 -0.2228
18377W        W33508  13.839   8.942   5.335 -0.2110 -0.2242  0.1497
18378W        W33509   4.925   0.764   1.296 -0.2347  0.0274  0.0878
18379W        W33510  14.564  11.332   0.728 -0.2022 -0.0307 -0.1799
18380W        W33511  15.816  10.502   1.602 -0.0360  0.0458 -0.0068
18381W        W33512   7.317  18.745  13.148  0.0510  0.0938  0.3260
18382W        W33513  15.913   1.929   5.277  0.0255  0.0227  0.0021
18383W        W33514  17.502   6.914   3.356 -0.1098 -0.3949 -0.4127
18384W        W33515  15.140   4.037  15.508 -0.2404 -0.0082  0.1653
18385W        W33516   6.930   6.722  13.249  0.2599 -0.2818 -0.0036
18386W        W33517  18.187   1.390   1.977  0.0546  0.0276 -0.4353
18387W        W33518   5.416   3.675   0.560 -0.3748  0.1355 -0.1939
18388W        W33519  16.700  11.990   0.188  0.3820 -0.3068 -0.1365
18389W        W33520   2.306   1.232  13.754  0.1012  0.0465  0.0993
18390W        W33521   4.136   1.732   0.623  0.0760 -0.1653  0.1714
18391W        W33522   3.796   1.431   4.439 -0.0278 -0.1208 -0.5219
18392W        W33523   1.671   0.723   1.368  0.1604  0.3199  0.1540
18393W        W33524  10.971  14.766  13.671  0.3690 -0.3898 -0.2041
18394W        W33525  13.873   2.513  13.637  0.0273  0.0851 -0.3743
18395W        W33526  12.451   6.153  15.707 -0.0248 -0.0344  0.0581
18396W        W33527  12.038   8.406  13.972  0.0541 -0.1200  0.1403
18397W        W33528   6.187   1.724   1.996  0.1899 -0.3355  0.0987
18398W        W33529  13.592  10.495   0.853 -0.4100  0.2139 -0.1145
18399W        W33530   1.509   5.616  14.655 -0.1952  0.1216 -0.1899
18400W        W33531  18.515   6.863   4.895  0.1254 -0.2336  0.0201
18401W        W33532   0.269  11.135  12.484  0.0866  0.0487  0.2694
18402W        W33533   7.852   4.228  12.643  0.1484  0.0791  0.2139
18403W        W33534   2.010  13.782   0.040  0.1591 -0.0672 -0.3636
18404W        W33535  14.211  15.027  12.687  0.1931 -0.1937 -0.2951
18405W        W33536   1.136  14.727   0.487  0.2389 -0.0910  0.1079
18406W        W33537  14.518  14.550  14.949 -0.1342  0.0347 -0.0829
18407W        W33538   2.866  17.501  14.214 -0.3383 -0.2146  0.1199
18408W        W33539  13.194  14.487  12.047  0.0969 -0.0260 -0.1645
18409W        W33540   1.019  10.292   5.666  0.1493  0.0156  0.0430
18410W        W33541   5.966   2.325   1.989  0.1362  0.0123 -0.0320
18411W        W33542   2.500  15.749  14.586  0.0849  0.1969 -0.1092
18412W        W33543  17.457   3.888   1.518  0.0103  0.1191 -0.1465
18413W        W33544  14.436   2.271   5.089 -0.1911 -0.1003  0.1114
18414W        W33545  14.605   0.253   3.382  0.2238 -0.0098 -0.1058
18415W        W33546  10.076   0.546  12.081 -0.1554 -0.1130 -0.2990
18416W        W33547  10.042  16.284  13.247  0.2982 -0.2865 -0.2961
18417W        W33548  13.398  10.033  12.976  0.4335 -0.0105  0.3060
18418W        W33549   4.127   2.386   9.376  0.1810  0.0192 -0.0683
18419W        W33550   9.572  18.299   5.454 -0.1367  0.2578  0.5068
18420W        W33551  13.083   2.569  13.068 -0.0103  0.1520  0.2571
18421W        W33552  12.749  15.165   5.128  0.2845 -0.0835  0.1537
18422W        W33553  10.032   1.515   1.359 -0.1248 -0.3350  0.2685
18423W        W33554   3.950   3.132   4.839  0.4759 -0.0960  0.0034
18424W        W33555   8.073  18.327  12.519  0.1846  0.0923  0.0094
18425W        W33556  17.820   0.096  15.020  0.0723 -0.0202 -0.1995
18426W        W33557  14.687  13.730   1.972  0.5148  0.0779  0.1336
18427W        W33558   8.783  11.821  13.733  0.0804  0.0358  0.1321
18428W        W33559  10.654   5.975   4.866 -0.0771 -0.1335 -0.1019
18429W        W33560  18.064  17.330  12.988 -0.2478 -0.3492  0.1541
18430W        W33561   0.540   9.993   0.120  0.1691  0.0900 -0.1026
18431W        W33562   7.406  11.820   4.625  0.1856 -0.0334  0.1818
18432W        W33563   6.453  12.617   3.530  0.2282  0.0215 -0.2258
18433W        W33564  18.244   9.195  10.388  0.1837  0.0378  0.1238
18434W        W33565  16.300   8.978   3.523 -0.0259  0.1211  0.0593
18435W        W33566   4.345   2.672   1.464  0.0757  0.2492 -0.0927
18436W        W33567  11.356   0.071   1.241 -0.0193 -0.2960 -0.0165
18437W        W33568   2.969   6.291  13.256  0.1900 -0.0114  0.2518
18438W        W33569   0.797  10.780   4.466  0.0923  0.1595 -0.0455
18439W        W33570   3.020   2.431   0.239  0.4746 -0.2298  0.4896
18440W        W33571  18.033  11.913  12.877  0.0349 -0.0537  0.1462
18441W        W33572   0.647  16.359  11.194 -0.2741  0.0698  0.0888
18442W        W33573   5.899  13.039   2.330 -0.2750  0.1811  0.1843
18443W        W33574  14.070  18.443   4.314  0.1665  0.0478 -0.0817
18444W        W33575  12.802   8.842   2.946 -0.0530  0.0010 -0.0545
18445W        W33576  11.295   9.380  12.190  0.2202 -0.2914  0.3238
18446W        W33577   2.789  18.506  11.606  0.2379  0.0338 -0.1895
18447W        W33578   4.134   4.627  11.158  0.1863 -0.0542 -0.1842
18448W        W33579   6.276   6.740   3.400  0.0397  0.1754  0.0573
18449W        W33580   0.931  14.112   1.359 -0.1444 -0.0072 -0.0956
18450W        W33581  15.898  14.602  15.107  0.3458  0.0755  0.3201
18451W        W33582  12.017   1.251   4.976 -0.0374 -0.3314  0.1641
18452W        W33583  14.000  13.703  11.667  0.2236 -0.0778  0.0781
18453W        W33584   2.191  16.191  15.412 -0.0175  0.1228  0.2389
18454W        W33585  10.727  10.409   3.212  0.0037 -0.2945 -0.1059
18455W        W33586   4.728   5.484  13.848  0.1827 -0.0171 -0.1455
18456W        W33587   8.882   5.778   5.549 -0.0582 -0.1184 -0.1568
18457W        W33588   4.130  16.769  10.572  0.0199  0.2147  0.0243
18458W        W33589  18.380   2.057  13.967 -0.1154  0.1228  0.2016
18459W        W33590   2.768  11.403  10.288 -0.0080 -0.5246 -0.1248
18460W        W33591   8.243  13.114  13.163  0.0752  0.0252  0.1484
18461W        W33592   0.871   3.733   2.546  0.2470  0.1845 -0.0869
18462W        W33593  15.848   2.203  15.725 -0.0872 -0.1072 -0.1609
18463W        W33594   4.351  14.049  14.030 -0.1321  0.2535 -0.1310
18464W        W33595  16.094  17.171  13.898  0.0231 -0.1190  0.4351
18465W        W33596  12.986   4.194   0.727  0.2093 -0.1472 -0.2387
18466W        W33597   5.386   1.877   2.827  0.1041 -0.2613 -0.2452
18467W        W33598  16.868   6.698  15.434 -0.2499  0.2062  0.2126
18468W        W33599  13.559  16.161   4.040  0.1152 -0.0043  0.1515
18469W        W33600   6.563  16.560  10.530 -0.1620  0.2168 -0.0769
18470W        W33601  15.643  11.214   3.633  0.0120  0.0255 -0.2423
18471W        W33602   4.934   6.816   5.850 -0.0388 -0.1953 -0.0127
18472W        W33603  14.256  18.589  10.174 -0.0388 -0.0502  0.0744
18473W        W33604  10.463   3.877   0.044  0.5263 -0.0604 -0.3326
18474W        W33605   5.916  17.912  10.319 -0.0487 -0.3795  0.2084
18475W        W33606  11.332   6.329  11.819 -0.2607  0.3386 -0.0383
18476W        W33607   6.528  11.089   0.160  0.1288 -0.0980 -0.2063
18477W        W33608  12.398   1.525   0.614  0.0240  0.0300  0.0371
18478W        W33609  12.950   6.105   3.409  0.4997 -0.0848 -0.0480
18479W        W33610  18.624   5.441  12.991  0.2707  0.1350 -0.0531
18480W        W33611  17.312  12.838   0.056 -0.2554 -0.0030 -0.0036
18481W        W33612  12.074  14.204  13.382 -0.0360 -0.1600  0.0526
18482W        W33613   1.852   7.297  14.641 -0.3190 -0.3754  0.2701
18483W        W33614   3.480   7.093  12.980 -0.2097  0.0592 -0.1540
18484W        W33615  11.671   8.267   4.351  0.0861  0.0267  0.0263
18485W        W33616   8.553  14.341   0.477 -0.2679 -0.3714 -0.1326
18486W        W33617  13.082  15.074  15.092  0.0511 -0.3185  0.1605
18487W        W33618   5.129   8.991  11.600 -0.1611 -0.0366  0.2269
18488W        W33619   9.673   7.534  14.224  0.1274  0.2187  0.0932
18489W        W33620  16.148  18.375   3.897 -0.1661 -0.1461 -0.2281
18490W        W33621  12.365  14.399  13.823 -0.1724 -0.0442  0.1401
18491W        W33622  18.064   4.540  10.947  0.0323  0.2549  0.1947
18492W        W33623  11.854   5.989   3.211  0.2100  0.0086 -0.4935
18493W        W33624   5.484  16.987   2.180  0.0025 -0.1316 -0.3003
18494W        W33625  10.642   9.104  14.286  0.1094 -0.0822  0.0110
18495W        W33626  13.258  14.309   0.813  0.1945  0.1350  0.0014
18496W        W33627  13.871  10.314  14.882  0.0240  0.1891  0.2253
18497W        W33628   3.543  12.419  11.026  0.1601 -0.1183 -0.1840
18498W        W33629   9.853   6.409   4.697  0.0352  0.3845  0.1291
18499W        W33630   8.773  13.822  11.274 -0.3477  0.3842 -0.1064
18500W        W33631  12.772   8.866   5.484  0.0253 -0.3103  0.1105
18501W        W33632  12.483   4.267  12.202  0.1127 -0.1942 -0.2821
18502W        W33633   7.295  15.598   1.549  0.0393  0.2531 -0.1081
18503W        W33634   1.604  16.043  11.120  0.1067 -0.0717 -0.4679
18504W        W33635  10.489  18.124   0.676 -0.0799  0.2828  0.0889
18505W        W33636  13.443   1.028  12.474 -0.0263 -0.2427 -0.1556
18506W        W33637   2.576   1.685  14.182 -0.1795 -0.4455  0.3391
18507W        W33638  15.043   5.553  14.365  0.1792 -0.0391 -0.1984
18508W        W33639  11.024  11.461   4.742  0.0134 -0.0712  0.0505
18509W        W33640   5.623  11.036   3.260  0.3130 -0.2368 -0.0086
18510W        W33641   0.033   5.963   5.316 -0.0168 -0.2283  0.2053
18511W        W33642   0.998   8.428   0.603  0.0081  0.0145 -0.0001
18512W        W33643   9.418  10.340  13.218  0.3834 -0.1810  0.1124
18513W        W33644   8.660   6.423  12.659  0.2169  0.2260  0.1516
18514W        W33645   6.101   5.051   2.332  0.1595  0.3792 -0.0619
18515W        W33646  12.509   5.228  15.676  0.1578  0.2187  0.0538
18516W        W33647   2.002  10.389   4.846 -0.0671 -0.0579 -0.1487
18517W        W33648   0.149  13.237   4.945  0.0196  0.2340 -0.5025
18518W        W33649  18.109  18.439   5.802 -0.1273 -0.0371  0.1364
18519W        W33650  14.650  17.100  14.132 -0.0210  0.1214  0.0337
18520W        W33651  16.955   6.130   3.147 -0.3488 -0.0774  0.1548
18521W        W33652  13.045  12.397   4.893 -0.1319 -0.0348  0.0193
18522W        W33653   6.065  12.685   4.188 -0.3499 -0.0834 -0.4906
18523W        W33654  14.832   1.733   4.241  0.0215 -0.0407 -0.1073
18524W        W33655   0.847   3.855  11.788  0.0489  0.0829  0.1344
18525W        W33656   1.262  12.327   2.761  0.1471  0.0187 -0.1556
18526W        W33657  17.347   0.117   4.072 -0.0311  0.1733 -0.1757
18527W        W33658  16.653   2.709   3.723 -0.2172  0.0502  0.0295
18528W        W33659   4.850  15.958   1.254 -0.2506 -0.0131  0.1634
18529W        W33660   4.449   6.199   9.636  0.2165  0.2362 -0.2383
18530W        W33661  14.659  15.979  12.151 -0.3361 -0.0839  0.2239
18531W        W33662   5.683  10.543  13.260  0.2271  0.0690 -0.1555
18532W        W33663   9.048   3.549  13.001  0.0872 -0.0790  0.2054
18533W        W33664  15.175   5.873  14.707 -0.1098  0.2714 -0.0357
18534W        W33665   0.772  18.574   4.234  0.1226  0.0221 -0.0470
18535W        W33666   0.166   1.970  10.530 -0.1962 -0.0668 -0.1410
18536W        W33667   1.703   3.437   1.240 -0.1194 -0.1211  0.3005
18537W        W33668   4.151   7.498  15.326  0.1228 -0.1468 -0.0271
18538W        W33669   0.959  11.073   4.911 -0.1116  0.0668  0.0885
18539W        W33670   1.868  13.663   3.995  0.1228  0.0647  0.1370
18540W        W33671   0.811  14.009   4.731 -0.0302  0.0438  0.3587
18541W        W33672   5.734   1.674  11.885  0.0218  0.1126  0.0578
18542W        W33673  10.051   5.923   9.856  0.0235 -0.1452  0.0514
18543W        W33674  15.477  14.393  11.026  0.1970 -0.0488 -0.0648
18544W        W33675   0.363  18.611   2.195 -0.1332 -0.0468  0.0579
18545W        W33676  14.921  16.737  15.164  0.0278  0.3510  0.1875
18546W        W33677  15.150  17.058  12.021 -0.0479  0.2021 -0.2843
18547W        W33678  14.742  16.621   3.681 -0.0078  0.0452  0.2877
18548W        W33679   7.120   6.468  14.213  0.2139 -0.1726 -0.2846
18549W        W33680   0.325   2.936   4.388  0.2832  0.2985  0.3105
18550W        W33681   4.924  18.532  15.367 -0.1736 -0.0243 -0.3132
18551W        W33682  15.286   1.130  12.693 -0.2133  0.0131 -0.1227
18552W        W33683   2.525  14.807   5.664  0.2708 -0.3613 -0.5249
18553W        W33684  18.505   2.440  12.000  0.1225  0.1406 -0.1783
18554W        W33685  12.773  15.838   2.757  0.2519  0.3262 -0.1638
18555W        W33686   7.281  14.216  11.327 -0.2210 -0.1318  0.1154
18556W        W33687   0.158  17.926   0.418 -0.0331  0.0002 -0.2386
18557W        W33688  10.756   7.169  14.959 -0.0501  0.2578 -0.0288
18558W        W33689   7.752  11.805  15.058  0.2425  0.4025 -0.0643
18559W        W33690   0.234  15.408  12.164  0.4684 -0.0461  0.0489
18560W        W33691   3.110   2.703   0.698 -0.0052  0.0216 -0.0829
18561W        W33692  11.626   6.157  15.338 -0.1838  0.0531 -0.3846
18562W        W33693   2.430   3.482  11.871  0.1087 -0.2543 -0.0933
18563W        W33694   4.258  13.971   1.579 -0.0072 -0.1106  0.0037
18564W        W33695   8.407   0.095   3.254  0.2593  0.2501 -0.2966
18565W        W33696   3.975   4.073   0.886  0.0718  0.0640 -0.1832
18566W        W33697  13.455   4.172  11.161  0.1449 -0.2089 -0.1637
18567W        W33698  14.408   3.523  15.013  0.2003 -0.0853  0.0855
18568W        W33699   0.341   8.307  12.159  0.2432  0.0551 -0.1482
18569W        W33700  16.956   8.862   5.566 -0.0639  0.1636  0.2323
18570W        W33701  15.405  18.024   4.520 -0.0315  0.2157  0.0861
18571W        W33702  16.556   1.385  15.506  0.0573 -0.0826  0.1687
18572W        W33703  11.576  10.016   5.059 -0.1254  0.3415 -0.1039
18573W        W33704  11.355   9.524   1.303 -0.2790 -0.3853  0.1909
18574W        W33705   9.155  12.725  12.748 -0.0055  0.0473  0.1220
18575W        W33706   6.084   0.963   4.105  0.0634 -0.0695 -0.0245
18576W        W33707   2.696  18.590   4.241 -0.0598 -0.0259 -0.0640
18577W        W33708  16.182   6.516  11.529 -0.3499 -0.4367  0.3271
18578W        W33709   4.816  18.691  10.411 -0.0422 -0.1574 -0.0111
18579W        W33710  15.236   2.692  12.919 -0.1464 -0.0020 -0.2321
18580W        W33711   2.170  12.438   3.958  0.2450  0.1797  0.3574
18581W        W33712  12.099  12.635  12.404  0.0248 -0.2892 -0.0801
18582W        W33713  16.447   4.198  14.124  0.0347  0.1556  0.1432
18583W        W33714   1.955  13.191  15.301  0.1644  0.2266 -0.0463
18584W        W33715  13.570  17.199  14.462  0.0769  0.3079 -0.1942
18585W        W33716   0.975  16.727   3.977 -0.0018 -0.0242  0.1586
18586W        W33717   7.171   0.315  10.809 -0.1122  0.4291 -0.0806
18587W        W33718   6.440  13.634   1.216  0.0131  0.3021  0.2792
18588W        W33719   8.807  17.733  14.207  0.0119 -0.0915 -0.3297
18589W        W33720  16.806   5.385   2.118 -0.2559 -0.1244 -0.0983
18590W        W33721   7.412   3.559  10.568  0.0686  0.0460  0.0182
18591W        W33722  12.525   6.736  12.865  0.0243 -0.1392  0.1650
18592W        W33723   4.612   1.692   1.515  0.0621  0.1991  0.0311
18593W        W33724   3.869   4.096  14.118 -0.1549  0.1105  0.0876
18594W        W33725   1.557   0.297   3.474 -0.3496  0.2780 -0.0133
18595W        W33726   9.966  13.457   1.142  0.0422 -0.0836 -0.1645
18596W        W33727   6.150  16.435  10.165 -0.1045 -0.2050 -0.1972
18597W        W33728  14.058   4.610  10.906  0.0902 -0.0010 -0.0364
18598W        W33729   7.067  12.707  11.927 -0.2473  0.1206 -0.0377
18599W        W33730  17.157   1.890   1.382  0.1165  0.1039  0.1485
18600W        W33731   1.146  10.417   3.885  0.2356  0.3414  0.0089
18601W        W33732   6.728  14.887   1.319  0.2715 -0.1370  0.1904
18602W        W33733   8.386  18.154   4.544  0.1410 -0.1491  0.2996
18603W        W33734   9.908   0.139   2.639  0.0253  0.1957  0.1355
18604W        W33735  10.869   7.432   1.118 -0.1417 -0.1480 -0.1774
18605W        W33736  16.362  11.081   1.342 -0.1299  0.1280  0.3504
18606W        W33737   8.416   1.146  13.777 -0.0080 -0.0706  0.0735
18607W        W33738   0.860  13.947   3.814 -0.0758  0.1868 -0.0720
18608W        W33739   3.103   1.228  10.660  0.3588 -0.0229  0.1741
18609W        W33740   6.890   9.224   3.384  0.1659 -0.1280 -0.0497
18610W        W33741   9.387   2.059   1.957 -0.1100  0.3393 -0.1975
18611W        W33742  12.389   4.464   2.004 -0.0000  0.4240  0.0099
18612W        W33743   6.312   2.105   0.993 -0.3085 -0.0888 -0.1486
18613W        W33744  13.241  14.188  15.643  0.1956  0.0026 -0.1805
18614W        W33745  13.364  10.861   3.059 -0.1416  0.3523  0.1104
18615W        W33746  15.884   5.762  12.830  0.0949  0.1146  0.1563
18616W        W33747  17.860  13.758  12.660  0.0854 -0.1070  0.0380
18617W        W33748  11.985  17.733  13.209 -0.0305  0.4251  0.1042
18618W        W33749  11.593  16.971   6.126  0.4176 -0.1235 -0.2569
18619W        W33750   5.068   3.199  14.726  0.1208 -0.4523 -0.1632
18620W        W33751   5.974   9.533  13.625  0.0784  0.0027  0.0976
18621W        W33752   4.906   0.593  14.414 -0.1013  0.0177  0.0606
18622W        W33753   5.940   8.502   1.980 -0.0280 -0.0998  0.1726
18623W        W33754   0.649  12.643   1.539 -0.2018 -0.3056 -0.1746
18624W        W33755  10.227  15.680   4.500  0.0156 -0.0437 -0.2089
18625W        W33756  18.662   8.689   0.856 -0.0958  0.0160 -0.2083
18626W        W33757  11.341   0.172   1.768 -0.3490 -0.0866 -0.1815
18627W        W33758  17.833  12.377   0.501 -0.0344 -0.5332  0.0935
18628W        W33759   7.085   2.215  12.735  0.1214  0.0402 -0.1091
18629W        W33760  18.670   5.688  15.432 -0.0323 -0.0389 -0.0549
18630W        W33761   6.533  16.030  12.582 -0.0966 -0.2868  0.0105
18631W        W33762  13.914   0.768  12.256 -0.0879  0.1900 -0.1388
18632W        W33763  12.553  18.675   3.302  0.1790 -0.0222 -0.1970
18633W        W33764  16.135  12.057  11.772  0.0708  0.0350  0.0235
18634W        W33765   4.752   9.737  15.604 -0.0930  0.0318  0.2579
18635W        W33766  13.091  11.803  12.552  0.0058 -0.0581 -0.1638
18636W        W33767  12.287  17.905   1.257  0.1160 -0.4398  0.4943
18637W        W33768  12.265  18.180  15.286 -0.3102 -0.0673 -0.0759
18638W        W33769  13.385   1.229  11.641  0.1068  0.0944 -0.0715
18639W        W33770  14.707  10.526   2.882 -0.2366 -0.0162 -0.2505
18640W        W33771   0.988   0.787   2.974 -0.0485  0.1321 -0.2576
18641W        W33772   5.229   1.940  15.501  0.1492 -0.2690 -0.0392
18642W        W33773  14.445  18.299  12.868  0.1642 -0.1557 -0.2457
18643W        W33774   3.980   6.317  14.706 -0.2244  0.4384 -0.1007
18644W        W33775  16.226   6.002   4.157 -0.0744  0.0845 -0.2763
18645W        W33776  10.187  10.046  14.929 -0.0234  0.0482  0.0461
18646W        W33777   1.738   7.880   2.270  0.0672  0.1319 -0.1627
18647W        W33778   5.481   6.637  13.020 -0.2379  0.1345 -0.0674
18648W        W33779  11.406   1.319   1.009  0.1648 -0.0178 -0.0667
18649W        W33780  11.324   2.096   5.229 -0.0159  0.3552  0.2990
18650W        W33781  17.454   2.727  12.749  0.2663 -0.1533 -0.1517
18651W        W33782   4.017  17.600  13.424 -0.2491 -0.0040  0.1056
18652W        W33783  12.301  17.368  13.974 -0.0258 -0.4074 -0.0967
18653W        W33784   5.742   7.952   1.183 -0.1533 -0.1896 -0.3163
18654W        W33785   0.331  18.519  11.769  0.1970 -0.0244 -0.3588
18655W        W33786   1.580  11.425  13.981  0.2318 -0.1996 -0.3919
18656W        W33787  12.723   5.101   3.013 -0.3652  0.0740 -0.1603
18657W        W33788   3.721  14.622   4.979 -0.0605 -0.0035  0.1493
18658W        W33789  15.282   6.274  15.049  0.0848 -0.2879  0.2042
18659W        W33790   9.313  12.139   2.169  0.0616 -0.3767  0.2297
18660W        W33791   1.526   2.875   1.435 -0.0726 -0.0152 -0.0788
18661W        W33792  10.219   5.985  13.907 -0.0166  0.1133 -0.0243
18662W        W33793  15.681  12.033  12.630 -0.1155  0.1745  0.2528
18663W        W33794   4.175   3.001  12.652 -0.0843 -0.0094 -0.2073
18664W        W33795   2.556  14.329  11.370  0.1151 -0.2729  0.1053
18665W        W33796   5.694  11.282  15.053 -0.1149 -0.1863  0.1140
18666W        W33797   6.319   5.353   5.124  0.0803 -0.2395  0.3340
18667W        W33798   4.987   8.837   3.579  0.1944 -0.0273  0.3864
18668W        W33799  14.914  11.923  12.401  0.0509  0.0667 -0.1385
18669W        W33800   1.008  14.257   0.227  0.1513  0.0039  0.1446
18670W        W33801  11.662   6.589   1.088 -0.1705 -0.3061  0.2947
18671W        W33802   8.298   2.911  13.303  0.0716  0.2615 -0.0291
18672W        W33803   7.355   1.165   2.111  0.1059  0.2610  0.0783
18673W        W33804  11.936   1.220  10.175  0.0820 -0.0550  0.3406
18674W        W33805   8.800   2.178   2.353  0.4130 -0.5824  0.0084
18675W        W33806  14.870   1.321   3.468  0.0789  0.0928  0.0477
18676W        W33807   4.118   8.869   0.718 -0.1398  0.0355  0.1513
18677W        W33808  11.544   9.201  14.425  0.1733  0.1455 -0.1155
18678W        W33809   9.300   6.258   4.282 -0.0562  0.0767 -0.2048
18679W        W33810  10.974  11.984  11.965  0.1338  0.1501 -0.0035
18680W        W33811  18.471   5.310   4.245  0.2591 -0.0951  0.1289
18681W        W33812   5.723   2.375   0.197  0.3198 -0.0526 -0.0808
18682W        W33813  15.613   6.408  15.682 -0.0326  0.0848 -0.2272
18683W        W33814   8.557  15.777   4.982  0.1433 -0.3000 -0.1092
18684W        W33815  13.020   1.244   2.288 -0.1012  0.0436 -0.1187
18685W        W33816  10.689   5.706  13.771 -0.2107 -0.3000  0.1581
18686W        W33817   9.233  13.287   0.020  0.1037  0.4157  0.0064
18687W        W33818  16.752   8.302   1.813  0.0584 -0.2705 -0.0013
18688W        W33819  15.941  10.439   0.598  0.0116 -0.0016 -0.0134
18689W        W33820  17.313  15.624   3.935  0.3015  0.0846 -0.0662
18690W        W33821  17.857  11.680   1.013  0.1985 -0.2028  0.2655
18691W        W33822  17.907   6.540   1.486  0.1484  0.0649  0.0128
18692W        W33823  11.605  15.589   5.269 -0.0387 -0.3720 -0.3309
18693W        W33824   4.098  16.227  10.262  0.0245  0.4870 -0.2056
18694W        W33825  16.621  16.954   4.846 -0.2059  0.0007  0.0846
18695W        W33826   6.953   6.452   4.258 -0.0991  0.0649 -0.3162
18696W        W33827   7.152  14.606  11.034 -0.1253 -0.2208  0.0946
18697W        W33828  18.524  13.351  11.286  0.3013 -0.0947 -0.1044
18698W        W33829   6.992  16.169  11.136  0.1094 -0.3232  0.0926
18699W        W33830  11.593   7.872  14.603  0.2115 -0.1555  0.0003
18700W        W33831  15.980  18.104  12.246  0.3395 -0.1883  0.2059
18701W        W33832   2.616   8.739   3.519 -0.1043  0.0888  0.0910
18702W        W33833   3.230  13.230   2.375  0.0289 -0.0870  0.0524
18703W        W33834   5.014   8.587  11.242  0.1637  0.2251  0.1071
18704W        W33835  17.968  10.608  13.491  0.0528  0.0138  0.1158
18705W        W33836   6.870   6.785   6.244 -0.0538 -0.2500  0.1951
18706W        W33837  10.875  13.345   5.092 -0.1549 -0.1846 -0.1904
18707W        W33838   9.885  10.193  10.678 -0.0895  0.0205  0.3005
18708W        W33839  17.348  16.535   4.842  0.0096  0.1225  0.1624
18709W        W33840   1.572   7.579   3.813 -0.2815 -0.1149 -0.2255
18710W        W33841  11.501  11.988  15.064  0.1785 -0.0574  0.2661
18711W        W33842  16.324  12.761  14.373 -0.2137  0.0016 -0.1389
18712W        W33843   8.766   1.830   2.733 -0.2172  0.3207  0.1881
18713W        W33844  14.719   1.141  10.988 -0.4771 -0.0549  0.1301
18714W        W33845   0.379  12.080  14.290  0.3342 -0.1922  0.3017
18715W        W33846   4.607   3.505  14.736 -0.1073 -0.3032 -0.1639
18716W        W33847  10.926   9.021   2.729  0.0352  0.2410  0.3483
18717W        W33848  13.260  17.605   4.922  0.1484 -0.1916 -0.1007
18718W        W33849  16.233  13.740  15.470  0.0603  0.3673 -0.0833
18719W        W33850  12.112  11.763  10.387  0.1890 -0.3445 -0.0147
18720W        W33851   3.745  16.454  10.651 -0.0935  0.1334 -0.0934
18721W        W33852   1.926  13.773   0.890 -0.1421 -0.2471  0.0967
18722W        W33853  13.966  13.419   0.921  0.0570  0.1460  0.3143
18723W        W33854  13.754   7.633   0.347  0.3291 -0.1922 -0.0862
18724W        W33855   2.872  10.305  11.271  0.3354  0.0895 -0.0351
18725W        W33856   0.504  12.291  12.377 -0.3625 -0.0757  0.2022
18726W        W33857   4.535  13.905   9.233  0.0011 -0.2686 -0.1555
18727W        W33858   5.935   7.104   4.114  0.1255 -0.0216  0.0996
18728W        W33859  17.170   9.867  11.533  0.0919 -0.1226  0.2936
18729W        W33860  11.923  10.962   2.539  0.0849  0.0660 -0.0378
18730W        W33861  17.815   9.363   2.017 -0.0173 -0.2589  0.0867
18731W        W33862   9.726   0.829  13.966  0.3118  0.0722 -0.2881
18732W        W33863  14.532  13.917   4.394  0.0118 -0.2634  0.1172
18733W        W33864  16.766  12.373  12.298  0.0736  0.1353  0.1523
18734W        W33865   3.655  17.741   3.435  0.1128  0.3001  0.3168
18735W        W33866   7.037   4.437  13.226  0.1655  0.0100  0.3362
18736W        W33867  13.744   1.505   1.965  0.1542 -0.1100  0.0847
18737W        W33868  17.481   8.532   1.738 -0.1008 -0.1894  0.1133
18738W        W33869   2.162   4.654   3.389  0.1369 -0.2138  0.1158
18739W        W33870  11.956  12.040   6.479 -0.1419  0.1155  0.1650
18740W        W33871  10.054   9.256   1.440  0.1548 -0.1472 -0.0100
18741W        W33872  13.040  11.133  14.879  0.1245  0.2446  0.0238
18742W        W33873  11.643   4.977   5.218 -0.1492  0.0912  0.0812
18743W        W33874  17.756  18.729   2.430  0.1196 -0.0771  0.4848
18744W        W33875  10.443  16.515   1.043 -0.2140  0.0974 -0.2123
18745W        W33876  18.448   1.948  11.398  0.1854 -0.1686 -0.3083
18746W        W33877  12.447   0.391  11.311  0.0166  0.0085  0.1131
18747W        W33878  18.651   2.813  13.491 -0.2930  0.1597  0.2658
18748W        W33879  15.044  15.540  12.798 -0.3107  0.2215 -0.0085
18749W        W33880  17.267  10.161   5.616  0.2906  0.1636  0.1637
18750W        W33881  13.015   8.267  13.874  0.1732 -0.0506  0.1122
18751W        W33882  12.004  15.141  11.981 -0.1473  0.1216 -0.0906
18752W        W33883   7.839  16.003   0.824 -0.1851  0.1068  0.1258
18753W        W33884  12.972   5.375   1.186  0.0343 -0.0022  0.2252
18754W        W33885   8.052  13.677   1.265  0.3502 -0.1161  0.5271
18755W        W33886  12.840   5.336  11.091 -0.2878  0.1335 -0.0224
18756W        W33887   6.220   8.183  12.551 -0.1470 -0.1530  0.2776
18757W        W33888   9.431  15.321  12.111  0.1073  0.0414  0.0306
18758W        W33889  12.255  15.647  12.335  0.0321  0.3458 -0.0440
18759W        W33890   1.724   6.173  11.923 -0.2607 -0.4040 -0.1193
18760W        W33891  17.856   0.222   4.215 -0.0233 -0.1063  0.2256
18761W        W33892  12.616   2.962  12.375 -0.3468 -0.0183 -0.1579
18762W        W33893   4.403  14.553  11.002  0.1248 -0.1935  0.2908
18763W        W33894  13.231   0.314   4.497 -0.1386 -0.0412 -0.0783
18764W        W33895  12.900   6.228   1.713 -0.0041 -0.3644 -0.0581
18765W        W33896   8.553  15.726  10.954  0.0652 -0.0592 -0.0643
18766W        W33897   8.334   2.194   1.923 -0.1759 -0.3086  0.0225
18767W        W33898  11.444  13.715   1.062 -0.0374  0.0349  0.0248
18768W        W33899   8.398   7.918  14.422 -0.1795  0.1099  0.2631
18769W        W33900   9.174  14.937   3.094  0.3328 -0.0307  0.2711
18770W        W33901  13.604  17.309  12.963  0.0056  0.2990  0.3028
18771W        W33902   6.081   3.268   3.932 -0.0298 -0.1276  0.3195
18772W        W33903   0.273   2.409  15.043 -0.1413 -0.2762 -0.3132
18773W        W33904   9.831  12.957   1.344  0.0315  0.0598  0.0007
18774W        W33905   2.803   1.789   3.672 -0.1832  0.0982 -0.0361
18775W        W33906  17.404  16.028   3.068 -0.1028  0.2539  0.1055
18776W        W33907   3.010   6.321  10.512 -0.3623 -0.1336  0.2482
18777W        W33908  18.675   0.684  13.166 -0.1996  0.0401  0.1576
18778W        W33909  16.022   0.482   2.685  0.2425  0.0251  0.2779
18779W        W33910  17.861  12.862  15.383  0.1669 -0.0143 -0.0151
18780W        W33911   3.716   4.689   3.544 -0.1910 -0.1330  0.1827
18781W        W33912   1.312   6.784   4.176  0.1735  0.0662 -0.1145
18782W        W33913   0.930   2.254   1.150  0.0760  0.1525  0.0475
18783W        W33914   9.872   6.815  11.396 -0.3106  0.0290 -0.0402
18784W        W33915   5.688  12.227   3.303  0.1012 -0.1061  0.1446
18785W        W33916  17.968  12.240  12.473 -0.2244 -0.0360  0.1262
18786W        W33917  14.906   2.890  10.228 -0.0578 -0.2526 -0.1404
18787W        W33918  11.476   2.865   4.818 -0.0309 -0.0411 -0.0994
18788W        W33919   1.156  18.665  11.102 -0.2319 -0.0580 -0.0857
18789W        W33920   0.912   7.611  13.552 -0.1979  0.3907  0.2061
18790W        W33921   2.614   8.684  13.402  0.0552  0.2665 -0.0773
18791W        W33922  11.754  14.467   2.617 -0.2472  0.1054 -0.2257
18792W        W33923  14.196  16.423   4.096  0.1202  0.0897 -0.0431
18793W        W33924   1.544  17.252  11.334 -0.0622  0.1012  0.2544
18794W        W33925  17.442  18.132  13.906 -0.1830 -0.0004 -0.2881
18795W        W33926  12.759   0.975  11.636  0.2563  0.3118 -0.2849
18796W        W33927   1.607  16.851   1.879 -0.0683 -0.2871 -0.3783
18797W        W33928  16.415  17.293  11.208  0.0842 -0.1827 -0.0809
18798W        W33929  18.017   2.222  11.238  0.1606  0.1704 -0.0326
18799W        W33930   6.541   0.053   4.237  0.0563  0.3118  0.1886
18800W        W33931   5.067   1.889  14.969 -0.0444  0.0829 -0.1405
18801W        W33932   1.721  16.563   0.244  0.0359  0.2398 -0.1554
18802W        W33933   7.920   0.086  15.282 -0.2821 -0.0475  0.0147
18803W        W33934  12.867  18.357   1.394  0.1978  0.0831  0.0569
18804W        W33935   1.420  16.146  14.291 -0.0544 -0.4821  0.1242
18805W        W33936   7.701  16.184  12.506  0.2442  0.0533 -0.2687
18806W        W33937  17.361  18.672   5.251  0.1020 -0.2423 -0.1413
18807W        W33938  16.272   5.887   1.442 -0.1344  0.0916  0.3007
18808W        W33939  14.128  17.182   4.803 -0.0824  0.2781  0.0148
18809W        W33940  17.658   8.500   3.308 -0.0048 -0.4200 -0.1278
18810W        W33941   9.080   9.681   5.669 -0.0954 -0.1936  0.2759
18811W        W33942  11.924   4.232  10.737  0.1949 -0.1472 -0.1474
18812W        W33943  15.027   0.781  14.064 -0.0269 -0.2396 -0.0729
18813W        W33944   3.980   3.057   2.625 -0.0214 -0.0386  0.2330
18814W        W33945  14.770  11.425  12.526  0.2089 -0.0719 -0.1367
18815W        W33946   7.171  14.934   2.263 -0.2254  0.0667  0.3382
18816W        W33947   2.467  11.240  13.494 -0.1750  0.0230 -0.1244
18817W        W33948  18.572   6.482   9.891 -0.1269  0.1717  0.0553
18818W        W33949   9.115  11.276  14.723 -0.1179  0.0260  0.0715
18819W        W33950  17.395   3.962  15.010 -0.6355 -0.0642  0.3988
18820W        W33951   8.735   7.797  11.167  0.2837  0.0620  0.1964
18821W        W33952  14.816   2.853  15.696 -0.0644  0.1151  0.0618
18822W        W33953  13.866   9.187   1.581  0.0897  0.0288  0.2157
18823W        W33954  11.127   8.749   3.777  0.1354 -0.3949 -0.3156
18824W        W33955  10.439   8.465  13.558  0.5412  0.4284  0.0727
18825W        W33956   7.141  10.773  14.732  0.0334 -0.4574 -0.0470
18826W        W33957  15.435   8.187  15.151 -0.4623 -0.2366  0.1810
18827W        W33958  10.770   4.300  13.713 -0.3454  0.1205 -0.1558
18828W        W33959   7.103  17.006  15.091 -0.0236 -0.1882  0.1397
18829W        W33960   0.271   5.309  15.242 -0.2541  0.3565  0.1299
18830W        W33961   1.669  10.691  11.878 -0.1278  0.1353  0.2299
18831W        W33962   9.273   4.257   3.835 -0.0223  0.0703  0.0979
18832W        W33963  15.265   0.189   1.531 -0.2473 -0.1152 -0.0226
18833W        W33964   1.071   4.063   4.648  0.1487  0.0709  0.4340
18834W        W33965   3.047   2.317   1.122 -0.1063 -0.0987 -0.2439
18835W        W33966   7.511  15.153  14.709  0.1269 -0.0407  0.3454
18836W        W33967  11.932  16.619  15.442 -0.0467  0.0326  0.0954
18837W        W33968   5.954   0.821  10.653 -0.1422  0.2244 -0.2662
18838W        W33969   3.072   1.194  12.968 -0.0674 -0.1002 -0.1548
18839W        W33970  11.416  10.796  14.102  0.3198 -0.1093 -0.0352
18840W        W33971   4.099   3.950  15.040 -0.1229 -0.0097  0.0222
18841W        W33972  14.719   5.803   2.248 -0.1509  0.0134  0.3237
18842W        W33973  13.711  17.241   3.046 -0.2190  0.2286  0.0241
18843W        W33974   1.004  18.508   2.930 -0.1439  0.0555 -0.2169
18844W        W33975   4.357  13.347  10.695  0.0889  0.2001 -0.1877
18845W        W33976  12.629  11.297  11.510  0.0805  0.0765  0.0553
18846W        W33977   4.597  12.535   1.170 -0.0527  0.0364 -0.2808
18847W        W33978  18.148   7.140  14.836 -0.0511 -0.0780 -0.0399
18848W        W33979   2.193   9.128   4.791  0.1432  0.0981  0.0566
18849W        W33980  12.225   9.341  15.524  0.0995  0.1036  0.1410
18850W        W33981   0.552   4.535   5.109 -0.2922  0.2450 -0.0308
18851W        W33982   3.107   8.873  14.382 -0.0092 -0.1560  0.0541
18852W        W33983  11.864   9.928   5.464 -0.1547 -0.1747  0.0812
18853W        W33984   6.833  16.454  12.039 -0.3663  0.4268 -0.1168
18854W        W33985  18.147  15.418   5.472 -0.0417 -0.2158 -0.0878
18855W        W33986  12.250   0.461  13.718  0.1025  0.0902  0.0742
18856W        W33987   3.624   4.163  15.298  0.2051 -0.0147  0.0198
18857W        W33988  17.241   1.396   2.306 -0.0152  0.0492 -0.1522
18858W        W33989  17.548   8.412   0.758 -0.2579 -0.2040  0.1589
18859W        W33990  16.336   7.644   4.688  0.0816 -0.0349 -0.3879
18860W        W33991  18.022  13.590   6.394 -0.0963 -0.1829  0.2059
18861W        W33992   7.880   9.843   5.620 -0.0028 -0.2191 -0.1788
18862W        W33993  16.920   4.439  12.151 -0.1357 -0.0114 -0.1251
18863W        W33994   2.854   1.620   2.975 -0.0914  0.2089  0.3501
18864W        W33995  12.742   0.778  11.187 -0.2461 -0.1952  0.1361
18865W        W33996   9.142  17.544  15.265 -0.1165 -0.3369 -0.0776
18866W        W33997  13.188   4.473   4.788 -0.0133  0.0311 -0.2486
18867W        W33998  12.837  12.730   1.948  0.0561  0.3902  0.1043
18868W        W33999  10.643   1.240  11.056  0.1129 -0.0138 -0.0230
18869W        W34000   8.857   9.379   3.188 -0.4858  0.1333 -0.1017
18870W        W34001   6.394   9.118   0.572 -0.2378 -0.0393  0.2936
18871W        W34002  10.117   9.542   0.136  0.3219  0.2522 -0.1661
18872W        W34003  15.172  13.406  15.103  0.2313  0.2323 -0.0524
18873W        W34004   6.714   3.388  15.562 -0.0570  0.1680 -0.4513
18874W        W34005   4.850   7.954  13.038 -0.2029 -0.2269  0.1657
18875W        W34006   5.972  18.510  12.964 -0.2064  0.2472  0.1331
18876W        W34007   2.144  15.523   3.639  0.0510  0.0632  0.4517
18877W        W34008   0.251   6.491   4.816  0.1241 -0.2312  0.1619
18878W        W34009  10.366  12.769   2.941  0.1742 -0.2942  0.0434
18879W        W34010  13.695   3.095   0.400 -0.1839  0.2458 -0.0590
18880W        W34011   5.488  16.040   3.089  0.1513  0.1452  0.0183
18881W        W34012  12.327  16.178   2.961  0.0039  0.2604  0.2880
18882W        W34013   6.288  13.342  13.148 -0.3712 -0.0464  0.1038
18883W        W34014   8.577  15.992  14.549 -0.2674  0.1664  0.3852
18884W        W34015  15.600  15.383  12.593  0.1303 -0.3515  0.0824
18885W        W34016  11.539   5.454  14.125 -0.0710 -0.1752  0.4616
18886W        W34017   9.321  18.405   0.632  0.0661 -0.1891  0.1575
18887W        W34018   8.935   2.364   4.737 -0.0734  0.1156  0.0409
18888W        W34019  17.776  18.017   5.647  0.0786 -0.0667 -0.1391
18889W        W34020   1.827  12.646   9.658  0.1703  0.0490 -0.3426
18890W        W34021  15.611   1.013   4.109 -0.0600 -0.0280 -0.1293
18891W        W34022  14.457   6.623  15.263 -0.4340  0.0249 -0.2635
18892W        W34023   1.424   6.148   4.705  0.0253  0.0440  0.0246
18893W        W34024   7.624   1.244  11.429 -0.0961 -0.0095  0.0221
18894W        W34025   6.834   5.312  12.826 -0.1127  0.1772  0.0491
18895W        W34026  15.868  10.843   1.224  0.3543 -0.1583  0.2001
18896W        W34027   3.727   5.522   0.678 -0.0890  0.4011 -0.2369
18897W        W34028   5.469   7.320  10.867 -0.1675  0.2302 -0.0461
18898W        W34029  11.679  16.425  13.973 -0.0225 -0.1724  0.3762
18899W        W34030   3.031   8.549  13.870  0.1950  0.0441  0.1798
18900W        W34031   5.875   6.620   2.752  0.2577  0.0045 -0.3409
18901W        W34032   5.940  17.899   4.095 -0.3930 -0.0754 -0.1003
18902W        W34033  10.881   9.396   4.560 -0.2832  0.0694  0.1309
18903W        W34034   0.831  15.766  12.439  0.2515 -0.2282  0.1323
18904W        W34035  16.089  17.197   1.943 -0.3526 -0.0279 -0.0305
18905W        W34036  18.298  18.303   2.615  0.1280  0.1881  0.0168
18906W        W34037  14.164   9.556   3.465 -0.0983 -0.4361 -0.0115
18907W        W34038  16.266  17.081   4.409  0.1930 -0.2952 -0.4219
18908W        W34039   9.752   2.335   6.013 -0.0556  0.2178 -0.5207
18909W        W34040   2.480   8.374  10.955  0.1553  0.2031  0.2582
18910W        W34041   9.318  12.417  11.731  0.0653  0.1503  0.0024
18911W        W34042   6.909  13.316   3.775 -0.2678  0.0989  0.2060
18912W        W34043   1.575   7.073   4.478  0.0395  0.0520  0.4352
18913W        W34044   0.052  12.232   1.135 -0.2606  0.0460  0.1089
18914W        W34045   6.255  10.091   6.037  0.0320  0.1180 -0.0302
18915W        W34046  18.137  13.772  10.231 -0.1335  0.1472  0.0428
18916W        W34047  13.376  11.693  14.883 -0.0961 -0.1459  0.0661
18917W        W34048   8.010  12.110  15.292  0.1683  0.2806  0.1181
18918W        W34049  15.304   3.578  11.917  0.1110 -0.0479  0.1032
18919W        W34050   2.768   5.731  12.549  0.0719 -0.1247  0.0414
18920W        W34051  14.208   5.780  10.319 -0.0544  0.2964 -0.4380
18921W        W34052  12.880  13.403   4.528  0.1235  0.2704 -0.0655
18922W        W34053  12.091   6.526  12.780  0.2227 -0.0272 -0.1895
18923W        W34054   2.370   1.098  11.618  0.0233 -0.1409  0.1365
18924W        W34055   7.927  14.490   4.686 -0.2650 -0.2852 -0.2432
18925W        W34056  12.590   3.939   6.068 -0.2290  0.0965 -0.2293
18926W        W34057  18.165   5.484  12.793 -0.1737  0.1230 -0.1984
18927W        W34058   6.214   5.767  12.251 -0.2194  0.2606  0.1198
18928W        W34059  13.268  17.059   5.912  0.0703 -0.4545  0.0148
18929W        W34060  12.273  13.983   5.054  0.4142 -0.0832 -0.1879
18930W        W34061   1.397   4.761  14.320 -0.1002  0.2251  0.2285
18931W        W34062  17.530  14.956  11.053  0.0665  0.1501  0.0204
18932W        W34063   2.380   4.787   2.955 -0.3213  0.2362 -0.1724
18933W        W34064  11.079  12.912   4.818 -0.1637  0.1652 -0.4301
18934W        W34065   6.743  10.565   0.836  0.1075 -0.2829  0.0054
18935W        W34066  16.575  11.271   3.134 -0.1034  0.3791 -0.0404
18936W        W34067   4.524   3.350  13.028 -0.1296  0.0364 -0.0716
18937W        W34068   4.279   5.861   1.604 -0.4668 -0.0923  0.3214
18938W        W34069   9.211   9.365   0.994 -0.1333 -0.2614 -0.1877
18939W        W34070   1.889  18.550  13.006  0.0180  0.0082  0.2280
18940W        W34071  10.058  11.686   3.750  0.1045 -0.1471  0.2215
18941W        W34072  11.946  14.000   3.923  0.1792 -0.0321 -0.1470
18942W        W34073  16.566  11.274   2.143 -0.1195  0.2891  0.0025
18943W        W34074   1.838   5.538  15.013 -0.1972  0.0731 -0.1052
18944W        W34075   0.602  10.577  12.710 -0.1364 -0.1659 -0.0579
18945W        W34076   5.275  14.896   2.568 -0.0855  0.4593  0.1378
18946W        W34077   6.987   6.358   1.329  0.1070  0.0828  0.2528
18947W        W34078  17.346  10.667  14.215  0.0916 -0.0086  0.0045
18948W        W34079  16.016   3.798  14.307  0.1911 -0.2786  0.3603
18949W        W34080  13.773   3.099   5.483  0.2173  0.0146  0.2599
18950W        W34081   4.448   0.320  13.162 -0.0210 -0.1393 -0.0745
18951W        W34082  12.482  10.001   4.025  0.2439  0.0490  0.2493
18952W        W34083  14.853  12.274  14.282 -0.3370  0.2247  0.1421
18953W        W34084  10.197   3.231   0.688 -0.5636 -0.3197 -0.1999
18954W        W34085   6.905  11.646   1.613 -0.1186  0.2985  0.0464
18955W        W34086   4.314   6.615  11.808 -0.0406  0.1826  0.0146
18956W        W34087   0.245  16.695   0.883 -0.0408  0.1840  0.0406
18957W        W34088   6.782   5.446  15.621 -0.0261 -0.0457 -0.2719
18958W        W34089  18.017   5.158   2.888  0.0332  0.0249  0.1251
18959W        W34090   8.462  17.168  15.503 -0.2013  0.2319 -0.1257
18960W        W34091  18.148  17.041  14.864  0.1972  0.3084 -0.0085
18961W        W34092   3.585  10.835  15.275  0.4652  0.0838  0.0337
18962W        W34093   0.430   7.847   2.539  0.1395  0.0777 -0.5253
18963W        W34094   4.659   9.992  12.860  0.1756  0.1407  0.1101
18964W        W34095   6.849  10.172  12.494 -0.1445  0.0475  0.0929
18965W        W34096   4.860   8.917  13.213  0.0517 -0.0116  0.1422
18966W        W34097   2.551   5.757  12.072 -0.2480  0.3554 -0.0017
18967W        W34098   6.734   3.855   3.909  0.0444 -0.0977  0.1232
18968W        W34099  11.159   0.375  15.449  0.2699  0.1583 -0.0092
18969W        W34100  15.569  14.567   2.296 -0.0037 -0.0410  0.0488
18970W        W34101   4.798  11.687   0.441  0.1637 -0.4530  0.0426
18971W        W34102  12.629   8.424  15.187  0.1230 -0.0572 -0.2607
18972W        W34103  11.652  16.654   3.335 -0.2010  0.0743  0.1249
18973W        W34104   4.921   2.410   1.991 -0.3739  0.1008  0.2587
18974W        W34105  16.024  18.518   5.143  0.2283  0.0712 -0.0157
18975W        W34106  11.202   4.356  11.216 -0.1123  0.0135 -0.1346
18976W        W34107   1.689   4.327   2.989  0.2648  0.2373 -0.2038
18977W        W34108   5.324   0.232   0.059  0.0062  0.0963  0.0078
18978W        W34109  18.454  15.480   1.110  0.2362 -0.1243 -0.3112
18979W        W34110   2.886  17.105  13.192 -0.1369 -0.1217 -0.0898
18980W        W34111   9.570   1.845   2.379  0.0868  0.2940  0.0961
18981W        W34112   5.025  16.929   4.654 -0.0427  0.2816 -0.3049
18982W        W34113  14.288  12.541   4.001  0.3781  0.4155 -0.0003
18983W        W34114   2.909  13.262  13.729  0.1576  0.1084 -0.1641
18984W        W34115   5.988   7.123   3.534 -0.1611  0.2335 -0.2936
18985W        W34116  13.430   4.582  14.617  0.0236  0.1140  0.1406
18986W        W34117   5.855  12.060   1.820  0.1299 -0.1756 -0.0517
18987W        W34118  16.952   7.256   3.285  0.2804  0.1421 -0.0461
18988W        W34119   6.433  11.975   0.684 -0.0758  0.1126  0.1585
18989W        W34120   1.001  15.820   3.855 -0.2177  0.0514 -0.0200
18990W        W34121   4.556  12.574   4.732  0.1872  0.3143  0.0793
18991W        W34122   7.429   2.151   5.202 -0.1430 -0.3168  0.1180
18992W        W34123  17.327  16.185  11.254 -0.1744 -0.1817  0.0074
18993W        W34124  16.534   9.744  15.312 -0.1688  0.1955 -0.1809
18994W        W34125   9.940   2.034   3.709 -0.1834  0.1711  0.0330
18995W        W34126   0.048   2.790  11.205 -0.2677 -0.0470  0.1837
18996W        W34127  13.860   1.089   3.166 -0.1002  0.0940  0.0058
18997W        W34128  10.930  10.455   0.620  0.1711 -0.0995 -0.2613
18998W        W34129   4.711   9.492   2.678 -0.2567  0.1422  0.0872
18999W        W34130   3.435   8.112  11.834 -0.1789  0.0834  0.0780
19000W        W34131  11.633  16.842  15.083  0.4653  0.0400  0.1543
19001W        W34132   3.488  15.378  14.156  0.0287  0.2601 -0.1091
19002W        W34133   0.206   6.295   0.912  0.0229  0.1615  0.1729
19003W        W34134   2.118   8.835  10.190  0.1848 -0.0042 -0.5695
19004W        W34135   8.401   2.866  12.354 -0.1198  0.3144 -0.1422
19005W        W34136  18.303  10.200   3.335 -0.0061  0.0898 -0.0372
19006W        W34137  11.777   7.767  12.862  0.1134 -0.0749 -0.0040
19007W        W34138   7.319   2.553  15.270  0.0707  0.1006  0.1741
19008W        W34139   7.192  13.772   4.695  0.0564  0.1796  0.0361
19009W        W34140   9.737   9.697  15.581 -0.1727  0.1371 -0.0666
19010W        W34141   1.639   0.219  10.932  0.0362  0.0210  0.0364
19011W        W34142   7.347  12.157   3.997  0.2598 -0.4596  0.1390
19012W        W34143   4.999  12.192   3.504  0.1457 -0.3742  0.1226
19013W        W34144   7.911   9.381   3.781 -0.3047 -0.0501 -0.0354
19014W        W34145  18.159  13.590   1.357  0.3894  0.1134 -0.2786
19015W        W34146  12.645   0.307   5.264 -0.1909  0.1978 -0.1586
19016W        W34147   3.977  14.960   2.169 -0.3760  0.2238 -0.2760
19017W        W34148   3.842   6.530   1.104 -0.3235 -0.1617  0.3696
19018W        W34149  17.932   3.384  12.453  0.1318 -0.0521 -0.0691
19019W        W34150   8.942  10.959   3.417 -0.0988  0.2079 -0.0301
19020W        W34151  14.024   6.059   3.995  0.0838  0.2620 -0.1982
19021W        W34152  16.836  11.753   2.027 -0.0030 -0.0263  0.1463
19022W        W34153   3.170  11.128  15.110 -0.4208  0.1968  0.2457
19023W        W34154   4.780  15.075   1.109  0.4154 -0.2104 -0.0693
19024W        W34155  11.214   8.708  14.935  0.0318  0.0016 -0.1992
19025W        W34156   9.338  15.597   5.086  0.0512 -0.2697  0.2353
19026W        W34157  13.394  18.511   9.923 -0.1216  0.0932  0.0620
19027W        W34158  15.270  11.018   1.195  0.0618 -0.2119  0.1794
19028W        W34159  17.762   2.474  14.610  0.2362  0.3083 -0.1557
19029W        W34160  18.352  15.210  11.417  0.0781 -0.2158  0.2614
19030W        W34161   2.531   3.033  11.635  0.2385  0.0224  0.0652
19031W        W34162   0.208   6.862   1.916 -0.0088 -0.0162  0.3351
19032W        W34163  15.640  10.459   2.356  0.1213 -0.7306  0.0756
19033W        W34164  14.746  10.644   5.159  0.1877 -0.0980  0.0177
19034W        W34165   8.650  15.869  12.359  0.1424  0.1113 -0.0025
19035W        W34166  12.875   6.390  13.020 -0.1357  0.3592  0.0680
19036W        W34167   8.434  18.330  13.487  0.3041  0.2276 -0.2282
19037W        W34168  17.568   0.838   1.247  0.2531  0.0576 -0.1659
19038W        W34169  17.238   9.841   4.382 -0.2117  0.0139 -0.0369
19039W        W34170  17.760  17.297   3.574  0.2350  0.3400  0.0125
19040W        W34171  10.062  17.671  15.174  0.4783  0.5027 -0.0053
19041W        W34172  10.651  17.607   0.808 -0.2373 -0.2144 -0.1315
19042W        W34173   3.594  17.955  10.508 -0.0701 -0.1950  0.3841
19043W        W34174   9.826   2.222  13.015  0.1299  0.1739  0.3120
19044W        W34175  15.470   5.914   4.645 -0.0387 -0.1903  0.1186
19045W        W34176  12.069  15.438  14.605 -0.1586  0.1872 -0.0692
19046W        W34177  11.580   4.946   0.122 -0.1181  0.1453  0.1729
19047W        W34178  15.685   6.884   3.181  0.2005  0.0576 -0.4032
19048W        W34179  18.453   6.975  11.925  0.1005 -0.0843 -0.1721
19049W        W34180  17.641  11.301   3.212  0.0052 -0.1836  0.0510
19050W        W34181  11.764   0.147   2.914 -0.0376 -0.1109  0.4187
19051W        W34182   3.115   2.417  14.162  0.0084 -0.0193  0.2857
19052W        W34183   1.291   5.443   4.196 -0.0982  0.0315  0.0441
19053W        W34184  17.534  16.015   4.034 -0.2669 -0.0846  0.0308
19054W        W34185  10.698  13.293   5.719  0.2723 -0.3268  0.0060
19055W        W34186  11.917   6.301  15.690 -0.2546 -0.1535  0.1943
19056W        W34187   4.433   6.289  15.209 -0.1020 -0.0958  0.0350
19057W        W34188  13.380   3.253   1.888 -0.0983 -0.1655 -0.1735
19058W        W34189  16.338  10.745  10.538  0.1033 -0.0245 -0.0094
19059W        W34190   4.976   7.916   0.464 -0.1297 -0.1365  0.1084
19060W        W34191   3.313   7.627   5.035  0.3299 -0.0081  0.0335
19061W        W34192   1.014  16.294   0.933  0.0285  0.2924 -0.2204
19062W        W34193   9.631   3.117   4.354 -0.1407 -0.0867  0.1636
19063W        W34194  10.651   6.042   4.349  0.1282 -0.0464  0.2200
19064W        W34195  10.669  18.602   0.219 -0.0735  0.1433 -0.0712
19065W        W34196  17.984  10.148   5.018  0.1813  0.0031  0.0450
19066W        W34197  10.225  17.243   2.936 -0.0267  0.1427 -0.1488
19067W        W34198   2.556  15.080   0.492  0.1488  0.1950 -0.2474
19068W        W34199   8.769  13.399  14.852 -0.1734  0.1801 -0.2758
19069W        W34200  17.347  18.381   3.088  0.0409  0.0627  0.0725
19070W        W34201   1.943  14.115   1.362 -0.1454 -0.0327  0.3421
19071W        W34202  14.618   5.887   5.026 -0.4085  0.1251 -0.1587
19072W        W34203  13.681  11.147   5.933  0.1319 -0.2726 -0.1203
19073W        W34204   5.263   1.737  12.260  0.1424 -0.1229 -0.3630
19074W        W34205   7.848  17.326  11.090  0.0501 -0.0774  0.4743
19075W        W34206   0.592   3.574   5.364 -0.2381 -0.1572  0.4362
19076W        W34207  18.310  16.634  11.406  0.1707 -0.0282 -0.0998
19077W        W34208  14.372  10.311  13.730  0.1972  0.1444 -0.1488
19078W        W34209   6.448   9.918  14.979  0.0010 -0.2509 -0.0900
19079W        W34210   4.286  16.549  14.727  0.2132 -0.1818 -0.0462
19080W        W34211   1.289   0.549   1.045  0.0863  0.2675 -0.2713
19081W        W34212  14.794   9.360   4.035 -0.2590 -0.3145  0.0032
19082W        W34213   9.127  13.446   6.059 -0.2321 -0.2467 -0.1442
19083W        W34214   4.555  10.731   2.448 -0.2373  0.1494 -0.3362
19084W        W34215   8.448  10.004  14.156  0.2008  0.1755  0.1499
19085W        W34216  11.721  11.771  12.942 -0.0937 -0.0508 -0.1347
19086W        W34217  11.068   1.240  13.843  0.2020  0.1024 -0.0050
19087W        W34218   2.679  17.609  11.450  0.3491  0.0487  0.0544
19088W        W34219  16.447   4.640  14.492  0.2360  0.2093 -0.0296
19089W        W34220   2.970  14.264   0.229  0.3987 -0.0838 -0.0376
19090W        W34221   4.552  17.452  14.527 -0.1144 -0.4725  0.0906
19091W        W34222   6.354   9.622   1.672  0.2179  0.1510  0.1336
19092W        W34223  16.725  13.373  13.604  0.4019  0.1900 -0.1085
19093W        W34224   7.380  16.944  13.201  0.0118  0.0121  0.0480
19094W        W34225   5.494  18.394  15.247 -0.0829 -0.0531 -0.2423
19095W        W34226   2.437  16.341  10.954 -0.0262  0.0545  0.3431
19096W        W34227   3.321   6.439   1.060 -0.4022 -0.0057 -0.1907
19097W        W34228   5.773   1.529   0.571 -0.4235 -0.2204  0.2839
19098W        W34229  10.044   0.144  14.392  0.0942 -0.2801 -0.3775
19099W        W34230   3.815  16.942  15.527  0.3077  0.0816 -0.4921
19100W        W34231  16.529   0.968  15.150 -0.0144  0.4068 -0.1483
19101W        W34232   4.631  16.271  10.365 -0.1597 -0.3269 -0.2008
19102W        W34233   7.221  18.259   4.772 -0.3091 -0.2199 -0.1743
19103W        W34234  16.496  11.988  13.341 -0.2138 -0.0366 -0.1183
19104W        W34235  13.156  16.529  14.687 -0.1267 -0.1159 -0.1540
19105W        W34236   9.971   3.060   1.991  0.2838 -0.2846 -0.0424
19106W        W34237   2.054   1.433  13.419 -0.0387 -0.3776  0.1242
19107W        W34238   9.515  10.615  11.409  0.0376 -0.0813 -0.0893
19108W        W34239  14.638   6.692   2.909  0.0315 -0.0434  0.0072
19109W        W34240   3.491   3.819   3.782  0.2348 -0.0818 -0.1170
19110W        W34241   6.626   6.701  14.986 -0.0273  0.1628  0.2516
19111W        W34242  17.739   9.759  12.624 -0.0661  0.1955 -0.2117
19112W        W34243   3.620  13.281  13.008 -0.4601  0.3089  0.5891
19113W        W34244   8.325  12.199   3.077  0.1371  0.1469 -0.0561
19114W        W34245   5.853   6.699  11.454  0.2328 -0.2047  0.3294
19115W        W34246  14.554   8.365  11.647 -0.1790  0.2017 -0.1930
19116W        W34247   6.661   6.542  14.427  0.0527  0.0260 -0.0344
19117W        W34248   4.312   8.427  12.946 -0.1882 -0.2708 -0.0854
19118W        W34249  16.955  15.956   0.598 -0.0582  0.0893  0.0900
19119W        W34250   0.303  17.723   3.932  0.0212 -0.0356 -0.1963
19120W        W34251   8.058  10.463  10.798  0.1468  0.1039 -0.0492
19121W        W34252  10.642   0.727   1.380  0.0907  0.1898 -0.0027
19122W        W34253  17.917  10.966  10.905 -0.0917  0.1359 -0.1407
19123W        W34254   4.666   1.977  11.123  0.1642 -0.1080 -0.0234
19124W        W34255   9.527   5.356   4.447  0.2342  0.0863  0.0503
19125W        W34256  15.913   3.902  12.655 -0.0797  0.0397  0.1261
19126W        W34257  14.534  16.527   5.342  0.1236  0.1821 -0.2716
19127W        W34258  18.698  11.251   3.178 -0.1319 -0.0727 -0.1620
19128W        W34259   2.084   3.956  13.248  0.0492 -0.2086 -0.1473
19129W        W34260   2.864  11.947  11.484  0.1403 -0.1765  0.1504
19130W        W34261  18.748  11.478   1.049  0.1394  0.1377  0.0598
19131W        W34262   7.790   0.485   3.997 -0.0173  0.3429 -0.1692
19132W        W34263   5.515  10.856   4.562  0.1849 -0.1058 -0.0240
19133W        W34264   5.813  14.746   1.271 -0.3524  0.1257  0.0727
19134W        W34265   0.769   9.849  12.609 -0.2129  0.1770  0.0413
19135W        W34266  15.195   1.567  15.578 -0.1421 -0.1364  0.0361
19136W        W34267  17.587  12.754   5.318  0.1128 -0.1308 -0.2760
19137W        W34268   4.579   8.492   0.693 -0.3038 -0.0697 -0.1968
19138W        W34269   6.905   2.811   3.088  0.1543 -0.1488  0.1910
19139W        W34270  15.156   2.726  13.460 -0.0772 -0.3576 -0.0103
19140W        W34271  12.326   5.147  14.706 -0.1057 -0.1383  0.2775
19141W        W34272   6.872  12.463   4.328  0.0148  0.4951  0.1230
19142W        W34273   6.663   3.251  13.531 -0.0568  0.1984 -0.1170
19143W        W34274   7.502  11.951  14.672  0.0868  0.0148 -0.0947
19144W        W34275  11.571   9.071  15.031 -0.0904  0.1265  0.1896
19145W        W34276  10.084   2.035   3.083  0.1268  0.3425 -0.0881
19146W        W34277  17.790   8.037   1.028 -0.1482 -0.3666  0.0080
19147W        W34278   5.843  14.676  13.954  0.1136  0.1005  0.0025
19148W        W34279   9.691   0.361  13.571  0.0046 -0.1558  0.0930
19149W        W34280  16.260  12.476  12.052  0.0480 -0.5566 -0.1881
19150W        W34281   9.764   1.960   0.416  0.0810  0.2694 -0.0843
19151W        W34282   2.912   5.455  15.034  0.1123  0.0108  0.0141
19152W        W34283   7.876   6.176  13.344  0.1284 -0.0887  0.5382
19153W        W34284  13.767  15.878  13.636  0.2959  0.0360 -0.1663
19154W        W34285   5.631   3.764   2.604  0.0325  0.0643  0.3287
19155W        W34286   3.866   0.529   4.303  0.0781 -0.0291  0.0018
19156W        W34287   4.246   9.532   2.938 -0.0627 -0.0632  0.1437
19157W        W34288   3.555  18.202   1.448  0.0118 -0.0119  0.0202
19158W        W34289  17.003  12.859   5.348 -0.1994 -0.2359  0.4391
19159W        W34290   3.807  17.779  10.896 -0.0037 -0.0955 -0.2056
19160W        W34291   7.253  11.155   0.043  0.1282  0.0129  0.0532
19161W        W34292  13.404   3.510  13.457  0.0518 -0.1921  0.2084
19162W        W34293   7.340   5.590   4.369  0.0407 -0.1522  0.2475
19163W        W34294  13.509   0.264   5.965 -0.1212  0.0918  0.0828
19164W        W34295  10.037  10.657  13.488 -0.0565  0.1317  0.3243
19165W        W34296  12.323  10.601   3.217 -0.1587  0.1815 -0.1000
19166W        W34297   3.937   8.422  15.024 -0.1509  0.5740  0.3398
19167W        W34298  15.118  12.223   3.782  0.3582  0.0939 -0.0610
19168W        W34299   6.775  18.295  14.979 -0.1766  0.1380  0.1798
19169W        W34300   9.978  13.565  11.941  0.2853  0.1452  0.2560
19170W        W34301   7.405  12.324   4.518  0.3407  0.0431  0.2240
19171W        W34302   9.014  17.156  12.215 -0.0726 -0.2432  0.0902
19172W        W34303   1.462  15.974  12.566  0.4760  0.1322 -0.0913
19173W        W34304   5.652  16.798   3.502 -0.3138 -0.1334 -0.0719
19174W        W34305  10.375  15.128   3.817  0.1585 -0.1734 -0.0881
19175W        W34306  18.636   1.221   3.478 -0.0760  0.1325  0.1964
19176W        W34307  13.825  13.933  12.868  0.0791  0.1190  0.0120
19177W        W34308   3.854  15.224  11.396  0.2731  0.1752  0.0006
19178W        W34309  14.953   9.701  15.444  0.0331 -0.1168  0.0257
19179W        W34310   9.991   5.567  15.052 -0.1359  0.1041  0.0101
19180W        W34311  17.166  13.975   2.658 -0.0017 -0.1931 -0.0631
19181W        W34312   2.609  12.560   3.676  0.1664  0.0775 -0.0745
19182W        W34313  13.966   9.661   2.016  0.0138  0.0346  0.0832
19183W        W34314   8.645  16.825  14.376  0.1560 -0.0741  0.0869
19184W        W34315  15.360  17.763   2.427  0.2765  0.0134  0.2659
19185W        W34316  14.509  10.669  11.075 -0.0422  0.0141  0.1196
19186W        W34317  18.664   1.195  12.338  0.3034  0.2050  0.0850
19187W        W34318   9.767   3.254  11.840 -0.1927 -0.2505  0.0045
19188W        W34319   0.790  11.953  15.090  0.2575 -0.1553 -0.1806
19189W        W34320   7.679   3.200   4.800  0.0324 -0.0839  0.0763
19190W        W34321   1.437  18.351  13.750  0.1430  0.2070 -0.2101
19191W        W34322  12.293   6.541   0.303  0.1773 -0.2704  0.1084
19192W        W34323  18.577  16.819  10.409  0.2402  0.0982  0.0703
19193W        W34324  18.375  16.549   5.086  0.2911  0.1642 -0.4963
19194W        W34325   8.448   2.395   0.007  0.3175 -0.2215  0.2275
19195W        W34326  14.907   0.597   1.721  0.4301 -0.2969 -0.0734
19196W        W34327   4.692  12.422  10.406  0.0570 -0.3542 -0.1268
19197W        W34328   1.419   6.864  12.592  0.0578  0.2237  0.0356
19198W        W34329   0.156   6.228  12.759 -0.0447 -0.0821  0.0068
19199W        W34330   5.606  17.048   0.016  0.0547 -0.1585 -0.0579
19200W        W34331   5.818   2.092   2.925  0.2374  0.0145 -0.1999
19201W        W34332   3.136   2.887   2.703  0.2331 -0.2842  0.5049
19202W        W34333  14.720  13.054   5.313  0.2589  0.0853 -0.0567
19203W        W34334   1.825   2.540   5.480 -0.0106  0.0899  0.1724
19204W        W34335  11.178   2.243   9.900  0.2287 -0.1012  0.0278
19205W        W34336  18.464   0.243  12.541 -0.2209 -0.2149  0.1775
19206W        W34337   5.462  17.462  15.214 -0.1424  0.0733 -0.0640
19207W        W34338   9.570   0.220  12.024  0.3528 -0.1242 -0.0411
19208W        W34339   0.367  13.251   2.067  0.0183  0.0674 -0.1166
19209W        W34340  10.413  12.905  11.934  0.0513 -0.0284 -0.1915
19210W        W34341  10.017  18.045   5.199 -0.0566  0.2156  0.0643
19211W        W34342   2.848   4.218   3.724  0.3660 -0.1833  0.2273
19212W        W34343   3.194  12.664  11.301  0.0703 -0.0283  0.0081
19213W        W34344  11.987   0.544   1.794 -0.0171  0.4044 -0.0196
19214W        W34345   8.324   9.781  12.514  0.1618  0.1303  0.0077
19215W        W34346  12.529   6.024   3.689  0.1562  0.0505 -0.1952
19216W        W34347   0.525  12.349  13.477  0.0602 -0.2369 -0.0324
19217W        W34348  17.135   7.758   3.688 -0.0068  0.0369 -0.1992
19218W        W34349  11.550   6.257   0.677 -0.1537  0.0381  0.2444
19219W        W34350   6.231   3.731   1.377 -0.1733 -0.2965  0.3090
19220W        W34351   4.168  10.559   3.251 -0.0831  0.0148 -0.3695
19221W        W34352  16.879   2.903  15.103  0.4270 -0.0814 -0.0955
19222W        W34353   4.145  13.088   3.071  0.3703  0.1544  0.2132
19223W        W34354  11.331   6.797  12.335  0.1976 -0.1695 -0.1570
19224W        W34355  15.564  17.267  13.184  0.0511  0.1840  0.1574
19225W        W34356  14.181   8.574   1.950 -0.1327  0.2334 -0.0796
19226W        W34357   0.749  12.557   2.859  0.0966 -0.0085 -0.1782
19227W        W34358  17.090   5.861  14.060  0.1275  0.0043  0.3101
19228W        W34359   1.713  14.265   0.944  0.0584  0.4205  0.0962
19229W        W34360  15.054  11.023   5.622 -0.2599 -0.2174 -0.3219
19230W        W34361   4.473  13.018  11.361  0.2259 -0.0928  0.3138
19231W        W34362  15.484   4.821  13.141 -0.2632  0.1060  0.0397
19232W        W34363   3.505  13.932  15.288  0.2400  0.2044 -0.2811
19233W        W34364  12.002  11.595  15.525 -0.1460  0.0644  0.0283
19234W        W34365  16.582   8.921   4.291  0.1408 -0.3336  0.1749
19235W        W34366  17.956  14.948   5.198 -0.1167 -0.1533  0.1235
19236W        W34367   6.466   5.826  15.203 -0.2293  0.1417  0.5099
19237W        W34368   5.748   4.197  11.085  0.1337  0.2026 -0.4131
19238W        W34369   3.141  14.248   4.302 -0.0663 -0.4331 -0.0728
19239W        W34370  15.761   9.811   0.180  0.1207 -0.0202  0.1685
19240W        W34371   3.660  14.404  12.057 -0.2231 -0.1428  0.0351
19241W        W34372   6.663  15.748   0.207 -0.0001  0.0181 -0.0940
19242W        W34373  16.405  10.375  15.008 -0.0090 -0.1442  0.3657
19243W        W34374   6.494   9.413  15.255 -0.2891 -0.2656 -0.0488
19244W        W34375   9.613  10.464  13.737  0.1754  0.4746 -0.0525
19245W        W34376  18.206  17.268   4.449  0.2146 -0.0510  0.2281
19246W        W34377  10.804   8.620  14.690 -0.2853  0.3144  0.0269
19247W        W34378   0.042   1.509   6.011 -0.0160  0.1443 -0.0085
19248W        W34379   2.769   9.923   1.532  0.0461  0.1031 -0.0041
19249W        W34380   1.960  10.790   0.958  0.0551  0.0984  0.1300
19250W        W34381  14.701  14.394  11.915  0.2368  0.0736  0.1562
19251W        W34382  14.374   7.268   1.279 -0.0215  0.7046 -0.0277
19252W        W34383  16.939   9.301   0.288  0.0346  0.0931 -0.1112
19253W        W34384   0.582   6.513   9.562  0.2402 -0.2714  0.0773
19254W        W34385   5.938   0.741  12.883  0.0949  0.1512 -0.0387
19255W        W34386   9.756  11.165  12.969  0.0790  0.1463 -0.0171
19256W        W34387   0.615  11.740  14.660 -0.1855 -0.3549  0.1070
19257W        W34388  17.709  17.158  12.379 -0.2356 -0.1737  0.1079
19258W        W34389  11.024   3.449   2.266 -0.1136 -0.3885  0.0065
19259W        W34390  16.396   8.432   0.853 -0.2625  0.1454 -0.0424
19260W        W34391   5.240  10.650  12.553 -0.2459  0.0329 -0.1418
19261W        W34392  14.376   7.258  15.737 -0.0543  0.0550  0.1772
19262W        W34393   9.509   3.364   2.940 -0.3161 -0.0004 -0.2905
19263W        W34394   8.744  15.790  14.011 -0.0855  0.2333  0.1453
19264W        W34395   5.307   1.446   0.409  0.0691 -0.1308 -0.0749
19265W        W34396  15.806   8.288   0.096  0.2584  0.1539  0.1128
19266W        W34397  17.723  16.986   0.280  0.0536  0.0168 -0.1342
19267W        W34398   2.470  12.846  12.076 -0.0855  0.1612  0.2948
19268W        W34399  10.083   8.193   1.328  0.1179 -0.1236 -0.2415
19269W        W34400   2.920   0.764   4.446  0.2537 -0.1807  0.1023
19270W        W34401   5.734  17.406   4.093 -0.1444 -0.0620  0.3233
19271W        W34402   4.000   6.563  10.881 -0.3800 -0.1097 -0.1005
19272W        W34403  13.754  13.664  14.331  0.2078 -0.3779  0.2092
19273W        W34404  15.341   9.690   1.402  0.2584  0.3683 -0.0592
19274W        W34405   7.860   1.367  12.528  0.1498  0.1582 -0.2593
19275W        W34406  16.015  10.669   4.599  0.1677  0.1794 -0.2585
19276W        W34407  14.722   7.378   0.361 -0.0562 -0.0325  0.0809
19277W        W34408  15.872  15.814   0.902  0.1044 -0.2099 -0.1129
19278W        W34409  11.361   3.797   4.532 -0.1533 -0.0510  0.2192
19279W        W34410  14.097  16.179   3.674 -0.0425  0.1657 -0.0257
19280W        W34411   7.413  17.031   5.913 -0.0834 -0.1145 -0.2524
19281W        W34412   4.649  15.716   2.075 -0.2483 -0.1868 -0.1080
19282W        W34413   6.856   7.248   3.888 -0.0010  0.0607 -0.1531
19283W        W34414   9.133   9.428   1.933  0.2525  0.1452  0.1684
19284W        W34415  14.471   1.807   4.778  0.1086 -0.0148 -0.4188
19285W        W34416   2.806   9.860  11.055  0.0730 -0.1609 -0.3989
19286W        W34417  12.172   2.126  12.010 -0.0197  0.0253 -0.1009
19287W        W34418   3.293  16.901  10.014 -0.2333  0.0541 -0.3144
19288W        W34419  18.594  13.290  14.300  0.0450  0.3459  0.1830
19289W        W34420  13.250   7.410  11.759 -0.0228 -0.0229 -0.1640
19290W        W34421  15.167  15.994  15.342  0.3818 -0.1776  0.1072
19291W        W34422  15.856  16.822  12.247 -0.2330  0.1822 -0.1183
19292W        W34423   4.569  13.241  15.369  0.3356  0.2240 -0.0486
19293W        W34424  16.439  10.069  13.421  0.3419 -0.1820  0.2009
19294W        W34425  10.240   2.088  13.735 -0.0081  0.1227 -0.3761
19295W        W34426  14.878  15.093  11.434 -0.4843  0.0773 -0.1439
19296W        W34427  13.591  16.820   3.351  0.1972  0.1073  0.0565
19297W        W34428  17.183   2.295   0.895 -0.0990  0.0767 -0.0513
19298W        W34429   0.890   8.273   1.162  0.2372  0.3222 -0.0363
19299W        W34430  18.014   4.565   1.568  0.0777  0.1749 -0.1703
19300W        W34431  10.181   8.249   4.762  0.0805 -0.2929  0.1225
19301W        W34432   1.623  16.649  14.545  0.1080  0.0296 -0.0392
19302W        W34433   6.363  14.142   1.339  0.1408 -0.1084 -0.1814
19303W        W34434  14.368   1.169   3.160  0.1068 -0.2851 -0.0642
19304W        W34435   1.213  17.037  14.385 -0.1040  0.0211 -0.3568
19305W        W34436  15.572  17.470  11.225 -0.1649 -0.2016 -0.2803
19306W        W34437  13.409   3.570   0.072 -0.1844  0.1662 -0.0902
19307W        W34438  12.263  12.768   5.322  0.4397  0.0873  0.5026
19308W        W34439   8.060   4.428  13.071  0.0268 -0.0213 -0.0745
19309W        W34440  10.108  10.636  13.968 -0.0769  0.1748 -0.1581
19310W        W34441   1.022  14.484   2.355 -0.0636 -0.0859  0.2839
19311W        W34442   8.297  15.997  10.337  0.0266 -0.0060 -0.2197
19312W        W34443  15.050  15.085   0.227 -0.1366  0.0718 -0.2429
19313W        W34444  12.192  15.120   0.509 -0.3468  0.0047  0.2134
19314W        W34445   1.471   6.133  10.526  0.2125 -0.3829 -0.1699
19315W        W34446   0.277  15.392  15.665 -0.2257  0.3889 -0.1635
19316W        W34447  10.297  17.738   1.734 -0.0299  0.1824  0.2428
19317W        W34448   6.617   9.945  14.513 -0.1228  0.1046  0.1860
19318W        W34449  11.556  14.866  11.239 -0.0425 -0.0316  0.1759
19319W        W34450   5.872   8.207  15.480 -0.1905 -0.3837  0.3403
19320W        W34451   6.159  18.242   4.995 -0.1660 -0.0542  0.2784
19321W        W34452   1.605   8.759  11.412 -0.0911  0.1378 -0.1652
19322W        W34453   3.691   7.272   4.275 -0.0960  0.0634 -0.0654
19323W        W34454   6.779   9.099  13.057  0.0083 -0.2311  0.0220
19324W        W34455  17.925  15.692  12.694 -0.0950  0.2414  0.0195
19325W        W34456   0.812   8.919  10.986 -0.2769  0.1600 -0.0039
19326W        W34457   1.074   5.374  13.974 -0.1776  0.0787  0.2542
19327W        W34458  15.434  12.768  14.724  0.2897  0.1048  0.1118
19328W        W34459   5.318   5.695   5.152  0.3069 -0.0040  0.0859
19329W        W34460  15.506   0.332   2.654 -0.0068 -0.0998 -0.2250
19330W        W34461   9.579   4.132   0.982 -0.0431  0.0002 -0.1399
19331W        W34462   0.581   4.218  14.579 -0.1841  0.1160  0.2332
19332W        W34463  14.117  16.570  15.556 -0.0678  0.5234  0.0976
19333W        W34464  17.146  12.988  11.574  0.2271 -0.0777 -0.1749
19334W        W34465   8.340  14.277  14.703  0.2057 -0.2703 -0.5902
19335W        W34466   9.887  15.924   5.008 -0.0910  0.0952  0.2602
19336W        W34467   4.875  11.777   5.903  0.1013 -0.1697  0.3004
19337W        W34468  12.217  12.215   1.756  0.3171  0.0227 -0.3236
19338W        W34469  11.075   3.097  12.021 -0.2536  0.2337  0.4069
19339W        W34470  15.330  15.264   1.528 -0.0290 -0.4261 -0.2706
19340W        W34471  18.353  13.560   1.834  0.1001 -0.0066  0.2268
19341W        W34472  17.599  17.896  11.688  0.2340 -0.4067  0.0683
19342W        W34473   5.056  13.847  11.931 -0.0646  0.0361  0.0630
19343W        W34474   9.616  16.614   3.566  0.2103  0.2752 -0.0501
19344W        W34475  16.758  11.438  15.157 -0.2239 -0.1740  0.3557
19345W        W34476   7.354  10.160   1.630 -0.1280 -0.1459  0.0148
19346W        W34477  10.012   4.583   5.143 -0.0768 -0.3016 -0.0247
19347W        W34478  12.641  12.138   3.058  0.1958 -0.3171  0.2518
19348W        W34479   2.288   1.102   5.355 -0.0235  0.0130  0.2023
19349W        W34480  17.471  15.086  14.892 -0.0631 -0.2195  0.0677
19350W        W34481  12.924  18.308   3.353 -0.1538 -0.2374 -0.4083
19351W        W34482  11.254   3.909   2.293  0.2400 -0.2505 -0.4700
19352W        W34483   4.945  15.985   3.480  0.1599 -0.0043 -0.1686
19353W        W34484   3.141   0.802   1.156 -0.2260  0.2039  0.6393
19354W        W34485  14.810  18.422  11.416  0.0063 -0.0779  0.3257
19355W        W34486  13.552  18.012   3.624 -0.1930  0.1961 -0.2086
19356W        W34487   4.341   7.225  12.498 -0.1136  0.0013 -0.0273
19357W        W34488   4.099   9.934  14.865 -0.0150  0.2206  0.1656
19358W        W34489  16.666   1.806   4.346  0.0234 -0.2167  0.1077
19359W        W34490   7.710  13.692   3.883 -0.2545  0.1623  0.0436
19360W        W34491   7.783   9.236  13.216  0.0178  0.1172  0.1203
19361W        W34492   3.598  14.233   3.364  0.0809 -0.0639  0.0037
19362W        W34493   4.093   9.583  12.478 -0.3126 -0.0908 -0.0496
19363W        W34494   2.213  13.913   3.174  0.0233 -0.5000  0.2201
19364W        W34495  12.019  14.938   3.927  0.0063 -0.0538 -0.0292
19365W        W34496  14.165   4.233   0.105 -0.3470  0.0205  0.0970
19366W        W34497  17.274   8.024  15.193 -0.1072  0.2016 -0.3841
19367W        W34498  12.712   6.727  14.787 -0.0171 -0.0243 -0.0631
19368W        W34499   1.236   0.415  13.142  0.1526  0.2288 -0.2866
19369W        W34500   0.596   2.341   0.307  0.2240 -0.1101 -0.0822
19370W        W34501  13.289  13.130   4.182 -0.2364  0.1406  0.2372
19371W        W34502  16.661  16.044   4.376  0.1216 -0.0060 -0.1718
19372W        W34503  18.273   0.461   4.370  0.0784 -0.2268 -0.2718
19373W        W34504   8.005  13.318  12.718 -0.1762  0.0962 -0.0181
19374W        W34505  12.246  10.045   4.667  0.1152  0.0006 -0.1036
19375W        W34506   6.291   1.110  14.966  0.0963 -0.0283 -0.0704
19376W        W34507   4.672   4.790   3.049 -0.0649 -0.1260  0.0139
19377W        W34508  12.110  11.568   2.436  0.0527 -0.1547  0.1277
19378W        W34509  12.770   6.328   2.850  0.2260 -0.2735 -0.1168
19379W        W34510   7.057  18.363  15.606 -0.1184  0.0178 -0.1886
19380W        W34511  16.637  10.937  10.905 -0.0505  0.1578 -0.0174
19381W        W34512   8.668   9.206  13.811 -0.1598 -0.2781  0.0683
19382W        W34513  10.412   1.485   0.314  0.0306 -0.1830 -0.1473
19383W        W34514  12.184   1.847  14.001  0.3442  0.0158 -0.0707
19384W        W34515   4.495   8.941  12.918  0.0897  0.2017  0.3579
19385W        W34516   7.878  17.261   5.202 -0.2156 -0.0057  0.0281
19386W        W34517   1.485  16.345   1.085 -0.1479  0.1993  0.0421
19387W        W34518  11.553   4.379   1.659  0.0458  0.1340  0.1697
19388W        W34519   3.418  12.502   0.521  0.0627  0.0894  0.2589
19389W        W34520   4.165   7.868  10.168  0.5832  0.2746 -0.0693
19390W        W34521   4.905   7.070   2.861 -0.0314 -0.2396 -0.0101
19391W        W34522   3.173   9.650  11.414 -0.1777  0.0052 -0.2475
19392W        W34523  11.061   7.806   4.768 -0.2017 -0.0028  0.4234
19393W        W34524   4.588   2.469  13.760  0.0277  0.1212  0.1480
19394W        W34525   4.083  18.609   5.316  0.3517  0.0905 -0.0203
19395W        W34526   8.411   5.085   3.763 -0.0701  0.0713  0.1040
19396W        W34527   7.571  16.297   2.149  0.3563 -0.2014  0.0971
19397W        W34528   7.448   8.929  14.441 -0.0817  0.0068  0.2443
19398W        W34529   1.620  11.460  14.481 -0.0607 -0.0109 -0.2284
19399W        W34530  10.831   4.295   0.052  0.3028  0.1256 -0.1208
19400W        W34531  14.763   2.029   2.728  0.1247 -0.0161 -0.4089
19401W        W34532   2.952   4.204  13.232  0.0363  0.0311  0.2519
19402W        W34533   0.483  12.971  11.295 -0.0875  0.5494 -0.0411
19403W        W34534   9.856   2.284  12.470 -0.0829 -0.1150  0.1120
19404W        W34535   3.132  18.669   2.781 -0.3023 -0.0141 -0.3040
19405W        W34536   7.264   0.762   3.170 -0.0952  0.2837  0.0658
19406W        W34537   1.149   1.493  12.026 -0.0245 -0.0789 -0.3311
19407W        W34538   7.994   2.232   4.550 -0.1751 -0.1504 -0.3088
19408W        W34539  11.383   1.701   0.531 -0.1070  0.3671  0.1209
19409W        W34540  18.250  15.256  12.821  0.2710 -0.0307  0.3299
19410W        W34541   7.022   4.861  11.027 -0.0461  0.0376  0.1799
19411W        W34542  16.788   4.132   4.212 -0.0171 -0.0188 -0.2847
19412W        W34543   1.436   4.588   3.867 -0.1569  0.3085  0.0332
19413W        W34544  14.533  10.078  12.552  0.2697  0.0521  0.1108
19414W        W34545   6.607  12.518   2.982 -0.0436  0.0272 -0.2544
19415W        W34546   8.792  15.276   0.110 -0.2718  0.1239  0.2478
19416W        W34547  11.707   4.120  11.154 -0.2550 -0.0129  0.0295
19417W        W34548   1.462  18.289  10.815 -0.1694  0.0079  0.3656
19418W        W34549   1.762   7.497   4.817 -0.3441 -0.0895 -0.2533
19419W        W34550   9.509   2.329   9.658  0.0190 -0.0178 -0.1432
19420W        W34551   9.942  15.770  12.613 -0.0423  0.1949 -0.1058
19421W        W34552   4.497   6.337   1.378  0.1878 -0.1522  0.1802
19422W        W34553  11.878   8.867   4.194  0.0156  0.0179  0.4623
19423W        W34554   6.950  13.972  15.586  0.0791 -0.0974  0.0728
19424W        W34555   2.874   3.733   3.014 -0.1219 -0.0685 -0.0145
19425W        W34556  16.100  15.869   3.456  0.2443 -0.2763  0.0791
19426W        W34557  16.856   2.167  13.224  0.1288 -0.4000 -0.0819
19427W        W34558   9.415   7.022   2.229 -0.1047 -0.5276 -0.0083
19428W        W34559   4.486  13.249  14.688  0.0657  0.0455 -0.0690
19429W        W34560   1.537   9.105  15.155  0.2116 -0.0383  0.2358
19430W        W34561   2.205   9.181  12.660  0.1927  0.0719 -0.0026
19431W        W34562  11.610   0.507   1.493 -0.1222  0.0944  0.1567
19432W        W34563  11.558   4.151   3.135  0.0945  0.0754 -0.1805
19433W        W34564  14.667  18.395   0.252  0.1696 -0.3534 -0.1919
19434W        W34565   6.888  18.366  10.724 -0.0769 -0.2636 -0.0609
19435W        W34566   4.706  11.762  15.123 -0.1150  0.1144 -0.2500
19436W        W34567   5.230   6.655  14.276  0.1566 -0.1745 -0.1515
19437W        W34568   2.305   6.470  10.576 -0.1662  0.3804  0.1479
19438W        W34569   6.195  10.231   2.118  0.2504 -0.1689 -0.2645
19439W        W34570   2.988   2.906  14.192 -0.1846  0.3457 -0.3689
19440W        W34571  13.182  10.276  14.347 -0.1080 -0.2590 -0.0997
19441W        W34572   9.281   0.423  13.037 -0.2680  0.0714  0.0268
19442W        W34573  12.394   2.902   4.993 -0.1636 -0.2044 -0.4335
19443W        W34574   5.953   3.417  14.550 -0.0030  0.4003 -0.0087
19444W        W34575   5.670   8.968   1.208 -0.1121 -0.1280  0.3093
19445W        W34576  10.537  18.304   4.180 -0.0925  0.2460 -0.2092
19446W        W34577  13.398  17.446  12.523 -0.3145  0.0216 -0.0611
19447W        W34578   2.254  12.756   2.728 -0.0498  0.1707  0.0631
19448W        W34579   1.755   5.739   9.758  0.1656 -0.1740 -0.2938
19449W        W34580   0.766   6.973  11.452  0.0910 -0.1349 -0.1161
19450W        W34581   7.727  18.314   3.827  0.0958 -0.0715 -0.5563
19451W        W34582  13.107   9.235   5.671  0.1075 -0.2148 -0.0247
19452W        W34583   1.992  16.815   3.739  0.2041 -0.0313 -0.4031
19453W        W34584   9.837   8.249   4.384  0.1064 -0.0177 -0.1281
19454W        W34585  12.085   2.110   3.892  0.1355 -0.0193 -0.0285
19455W        W34586   7.500   1.437   0.718 -0.1272 -0.0909  0.1090
19456W        W34587  17.678   1.262   6.229 -0.1676  0.0603  0.1596
19457W        W34588   3.102   1.800  14.809  0.1008 -0.0118 -0.3196
19458W        W34589  11.420  10.490   6.139  0.2085 -0.0178  0.0571
19459W        W34590   7.988  12.328   0.029 -0.1795  0.1924 -0.0691
19460W        W34591  16.489  13.577  14.400 -0.0861 -0.1745 -0.0020
19461W        W34592   5.194  18.315   0.372  0.0997  0.1079 -0.1323
19462W        W34593  12.350   5.598  12.828 -0.0204 -0.2360  0.0780
19463W        W34594   3.884  11.234   0.495 -0.1904  0.0192  0.2167
19464W        W34595  17.101   5.025  15.154  0.0119  0.0377 -0.0520
19465W        W34596  16.758   7.255  13.175  0.2076  0.3253 -0.0219
19466W        W34597   3.669   0.260   1.400 -0.0944  0.1338 -0.3899
19467W        W34598  14.351  17.426   1.746 -0.1324  0.1490  0.1536
19468W        W34599  12.278   3.491   4.128 -0.1368  0.2378 -0.2328
19469W        W34600   8.606   8.171   4.021 -0.1887  0.0383 -0.1940
19470W        W34601  17.398  10.266   1.762  0.0345 -0.2320  0.0489
19471W        W34602   8.929   5.830   0.038 -0.1111 -0.0414  0.1591
19472W        W34603  11.752   3.738   4.119  0.1081 -0.0199 -0.2354
19473W        W34604  14.033   3.453   9.809  0.0610 -0.0814 -0.0144
19474W        W34605   4.524   7.396   4.961 -0.1348  0.2272 -0.3098
19475W        W34606   3.907   5.983   1.073 -0.1299  0.1169 -0.2078
19476W        W34607  17.315   8.561   5.600  0.0580 -0.1525  0.0163
19477W        W34608   0.353   9.514   4.686  0.2112  0.3488  0.2609
19478W        W34609  11.841  15.017  14.485 -0.4182  0.4408 -0.0900
19479W        W34610   7.420   4.036  12.386 -0.1738  0.0674  0.0324
19480W        W34611   1.615  17.881  11.963 -0.0557  0.3748  0.1149
19481W        W34612  13.320   1.277   1.807 -0.2657  0.0106 -0.3823
19482W        W34613   2.206  16.827  13.872 -0.0476  0.3739 -0.3565
19483W        W34614   7.799   6.268   0.274  0.0389 -0.2939 -0.1265
19484W        W34615  10.967   1.714  12.227 -0.3864 -0.1126  0.2337
19485W        W34616   2.886   0.294   0.305 -0.1921 -0.0516 -0.1654
19486W        W34617  18.705   8.040   1.521 -0.0266  0.1279  0.1206
19487W        W34618   4.723   2.480   5.615 -0.1154  0.2652 -0.3637
19488W        W34619   5.188   5.977   2.405  0.1732 -0.1534  0.0247
19489W        W34620   8.791   9.020   1.680  0.1370 -0.0041  0.0883
19490W        W34621   7.678  16.943   9.924  0.0371  0.2960  0.1489
19491W        W34622  15.174  11.208   2.129  0.2514 -0.0832 -0.0508
19492W        W34623   0.271   0.205   0.828 -0.0698  0.0804  0.0212
19493W        W34624   3.869   6.385  13.741 -0.0629  0.1215 -0.1547
19494W        W34625   1.874  17.814   4.320  0.0161 -0.2911 -0.1598
19495W        W34626   1.440   6.817   1.102  0.0883  0.4509  0.4054
19496W        W34627  11.603  13.950  11.134 -0.2179 -0.0520 -0.1552
19497W        W34628   1.952  11.609   3.334  0.3351 -0.1540 -0.3435
19498W        W34629   3.893   9.702   5.604  0.0954 -0.0854 -0.2230
19499W        W34630   1.576   9.720   3.387  0.0969 -0.2046 -0.3147
19500W        W34631  17.124   7.048   1.689 -0.2689  0.0884 -0.3786
19501W        W34632   6.581   1.249  11.640  0.0214  0.1439 -0.3664
19502W        W34633   3.153   4.527   4.269  0.1346 -0.1942 -0.0240
19503W        W34634  17.045   9.379   3.184 -0.2601 -0.0322 -0.2886
19504W        W34635   5.636   5.600  10.852 -0.2585 -0.0472  0.1460
19505W        W34636   2.968  14.435  15.060 -0.0975 -0.1466  0.0080
19506W        W34637   3.270  15.762  13.157 -0.1060 -0.0374  0.0294
19507W        W34638   9.184   5.684   1.148  0.0131  0.1516 -0.2356
19508W        W34639  10.562  14.530   3.813  0.0256 -0.1095  0.0578
19509W        W34640  12.097  12.228   3.988  0.2459 -0.1838  0.3031
19510W        W34641   4.967  13.932  11.199  0.2995 -0.2385 -0.3119
19511W        W34642  11.399   2.019   1.212  0.1843  0.0364 -0.1156
19512W        W34643  12.201  17.996  15.763  0.1339  0.0757  0.3950
19513W        W34644   7.575   2.629   5.457  0.3126  0.2064  0.0952
19514W        W34645   6.480   0.137   0.827  0.0293  0.0244  0.1157
19515W        W34646   1.976   5.812   0.653 -0.1035  0.2983  0.1411
19516W        W34647  11.686  16.832   4.537 -0.0599  0.1847  0.0016
19517W        W34648  12.997   4.734  12.753  0.0053  0.3738 -0.0779
19518W        W34649  18.298   5.041   1.436  0.0208 -0.1555  0.0072
19519W        W34650   3.904   2.233   3.882  0.0575 -0.0287  0.1390
19520W        W34651  10.960  17.870  14.068 -0.0178 -0.3334 -0.0909
19521W        W34652  17.700   8.836  14.807 -0.2275 -0.1086  0.3988
19522W        W34653  11.552  11.709   1.200  0.0097 -0.2334 -0.2937
19523W        W34654   1.055   3.278   2.623 -0.0159  0.1745  0.1250
19524W        W34655   3.599   8.465   3.525 -0.1481  0.1864  0.0098
19525W        W34656  18.689  17.315  12.228  0.1415  0.2286  0.0868
19526W        W34657   2.161   0.200  12.794 -0.4628  0.1049  0.2710
19527W        W34658   2.883   6.803   4.531 -0.0361 -0.0983 -0.2442
19528W        W34659   6.268   4.364  15.357 -0.2858  0.2653 -0.2120
19529W        W34660   3.582   6.634   1.933 -0.2096  0.2104  0.0580
19530W        W34661  13.238  16.620   2.500  0.0628 -0.1373 -0.0599
19531W        W34662  11.146   6.551   0.868  0.1399  0.1651 -0.0084
19532W        W34663   2.649   4.016  13.600 -0.0421  0.2713  0.3419
19533W        W34664   6.930   0.793  12.595 -0.1979 -0.0431 -0.2851
19534W        W34665  17.133   5.961   2.532 -0.3390 -0.1907  0.4335
19535W        W34666  14.903  15.594  13.875  0.0591 -0.2687 -0.1721
19536W        W34667   6.922  15.332   3.753 -0.2739  0.0909  0.1644
19537W        W34668   3.761   1.246   9.904  0.2572  0.0899 -0.0276
19538W        W34669   7.220   3.975  14.448 -0.2518 -0.2963  0.3434
19539W        W34670  10.439  11.745   4.161 -0.2220 -0.0081  0.0674
19540W        W34671  18.381  11.168  15.061 -0.1689  0.1870 -0.1511
19541W        W34672  17.662   5.410  12.696 -0.0182 -0.0339 -0.2145
19542W        W34673   6.752  10.412  15.462 -0.4232 -0.0910  0.3622
19543W        W34674  11.106   3.424  12.554  0.1095 -0.0120 -0.0574
19544W        W34675   0.174   7.873  10.044  0.0819  0.1281 -0.1665
19545W        W34676   0.301  16.369   3.344 -0.0290 -0.1050  0.0626
19546W        W34677   6.329   1.663  11.668 -0.2301  0.1532 -0.0613
19547W        W34678  10.008  15.891  11.736  0.0806  0.0043 -0.0968
19548W        W34679  12.420  16.567  15.357 -0.0917 -0.1507  0.0755
19549W        W34680   4.865   6.666  12.311 -0.0822  0.0564  0.0583
19550W        W34681   7.659   8.042   1.038  0.0102  0.2851 -0.0961
19551W        W34682   5.708   5.152  12.225  0.0071  0.2433  0.1776
19552W        W34683  11.597   5.187   3.088  0.2250  0.4570  0.0439
19553W        W34684  14.096   2.621   3.595 -0.0451 -0.2881  0.0097
19554W        W34685  11.410   6.767  13.174 -0.2373  0.0220  0.0897
19555W        W34686   9.236  12.904   0.689 -0.0876  0.1530  0.2141
19556W        W34687  15.431  18.442   4.305  0.2407  0.1091  0.1395
19557W        W34688  18.124  13.833  10.897  0.0217  0.2589  0.1083
19558W        W34689  18.492  17.572   3.052 -0.1660  0.1501  0.1595
19559W        W34690   8.030  11.379  13.956  0.2120  0.2047 -0.1691
19560W        W34691  13.087  16.306  14.032 -0.3279 -0.1383 -0.0737
19561W        W34692   9.760   8.069  13.903 -0.1558  0.1551  0.1145
19562W        W34693  13.317  13.116   1.944 -0.1549 -0.1619 -0.2006
19563W        W34694  14.261  14.094  10.803 -0.0830  0.1669  0.0882
19564W        W34695   8.764   0.522  14.041  0.1404  0.1353  0.1724
19565W        W34696  17.512   2.338  11.097 -0.5542 -0.1071 -0.1379
19566W        W34697  15.560  10.957   3.231  0.2860 -0.1702 -0.0757
19567W        W34698  11.575   2.922   2.218 -0.1867  0.2389  0.1694
19568W        W34699  11.442   4.418   3.546  0.3428  0.3017  0.0719
19569W        W34700  12.500   9.862  12.883  0.2321  0.0961 -0.2802
19570W        W34701  14.525  17.195   2.717  0.0565 -0.3432 -0.1055
19571W        W34702   6.365  11.080   2.740  0.0347 -0.2172 -0.2728
19572W        W34703  17.985   3.912  12.492 -0.1786 -0.0738 -0.0035
19573W        W34704   5.475  13.049  11.302 -0.0123  0.0457 -0.0689
19574W        W34705   5.120  11.404  15.227  0.0279 -0.0519  0.0310
19575W        W34706   9.412  10.677  14.960 -0.1010  0.4673  0.1641
19576W        W34707   1.609   1.773   2.136 -0.0926 -0.1813  0.0221
19577W        W34708   0.930  12.681  14.320 -0.1595 -0.0686 -0.0206
19578W        W34709   4.124   3.886  13.051 -0.0399 -0.1087  0.2135
19579W        W34710  16.064   5.517  10.282 -0.2350 -0.0293 -0.1622
19580W        W34711   7.640  11.081   2.260  0.1643 -0.0546 -0.1142
19581W        W34712   7.089  16.709   4.153 -0.1379 -0.2679 -0.1029
19582W        W34713  12.995   1.842  15.195 -0.1217 -0.1160 -0.0341
19583W        W34714   5.085  14.879  12.935 -0.0377 -0.0619  0.3797
19584W        W34715   3.912  16.780   3.692  0.0309 -0.0770  0.0250
19585W        W34716   7.155   9.712   3.553  0.2992 -0.2908 -0.1841
19586W        W34717   6.435  14.139  13.570  0.1042 -0.3810  0.1274
19587W        W34718  14.647   3.264   4.970 -0.0144 -0.2384 -0.0020
19588W        W34719   2.995  12.149   5.635 -0.3552 -0.1292  0.1033
19589W        W34720  12.004  15.292  12.509  0.0811  0.0950 -0.0660
19590W        W34721   6.500   5.469  11.864  0.2635 -0.1775 -0.1485
19591W        W34722   0.521   1.549  10.741  0.0477  0.2091 -0.3052
19592W        W34723  10.344  12.110  11.281  0.1381 -0.0010  0.0785
19593W        W34724  15.960  17.458  12.012  0.0856 -0.0025  0.2448
19594W        W34725   1.200   7.108  12.025 -0.1592  0.4602  0.0711
19595W        W34726   5.980  13.812   0.115  0.1573 -0.1202 -0.1983
19596W        W34727   3.543  11.970  15.024  0.3283  0.2069 -0.1907
19597W        W34728   1.551   3.481  13.832  0.0522 -0.0552  0.0551
19598W        W34729  18.438  12.272  14.967  0.0543 -0.0143  0.2259
19599W        W34730   9.866  17.462   3.568  0.1515 -0.1634  0.0237
19600W        W34731   7.331  17.548  14.025 -0.0547  0.3143  0.4188
19601W        W34732  12.469   9.986  14.153  0.3462  0.0197  0.3992
19602W        W34733   1.895   8.961  12.279 -0.4091 -0.3292 -0.0327
19603W        W34734  13.015   5.962   3.967  0.2029 -0.0538 -0.0430
19604W        W34735  17.300  14.297  12.211  0.2445  0.1866  0.2465
19605W        W34736  12.411  18.337   2.156  0.0134 -0.1373 -0.0630
19606W        W34737  17.850   6.549  11.852  0.0490 -0.2111  0.0591
19607W        W34738  15.285   3.028  11.773  0.3371 -0.1048  0.1690
19608W        W34739   8.290  12.585   3.562 -0.2393  0.2304 -0.1296
19609W        W34740  11.452  11.100   0.457  0.2140 -0.0195  0.0390
19610W        W34741  18.542   3.909   1.558  0.2905  0.1476  0.3735
19611W        W34742   4.601  16.598  10.809 -0.1541  0.0557 -0.3360
19612W        W34743   7.130   1.998   5.572 -0.3838  0.0740  0.1617
19613W        W34744  12.943   4.441   3.624 -0.0471  0.0754 -0.4389
19614W        W34745   4.501  12.500   2.712 -0.0896 -0.0558 -0.1605
19615W        W34746  16.924   6.118  12.817 -0.1181  0.0190 -0.3366
19616W        W34747  14.767  13.467   4.875 -0.0266  0.2717 -0.1343
19617W        W34748   2.279   0.901   3.164  0.0030  0.5021  0.0049
19618W        W34749  14.506   6.653  13.746 -0.0649 -0.1550  0.1351
19619W        W34750   4.408  11.989   2.482  0.3067 -0.0823 -0.0676
19620W        W34751   5.613   7.200   0.580 -0.1329 -0.0347  0.0848
19621W        W34752  11.682   7.597  14.151  0.0274  0.2135  0.0446
19622W        W34753   2.520  10.108   2.533  0.1917  0.0902  0.2168
19623W        W34754   0.124  13.107  15.480  0.0903 -0.2187 -0.0361
19624W        W34755   6.147  18.337   4.416 -0.2201 -0.1113 -0.1768
19625W        W34756   6.285   7.009   1.624 -0.1091  0.1768 -0.1945
19626W        W34757  15.552   7.037   1.648 -0.0290  0.1010  0.1179
19627W        W34758  16.981   6.607  13.985 -0.4738  0.2209 -0.1177
19628W        W34759  14.077  13.508  13.848  0.0395 -0.0219  0.0915
19629W        W34760  16.533  17.967  13.942 -0.0539  0.2634  0.0632
19630W        W34761   8.881   8.536   4.383  0.0270  0.3538  0.0023
19631W        W34762   9.667   2.128  11.095  0.2264 -0.0833  0.1194
19632W        W34763   6.797  17.807  10.585 -0.3302 -0.2516 -0.2628
19633W        W34764   8.577   6.635   0.537 -0.3992  0.2588  0.1173
19634W        W34765  13.700   7.840   2.587  0.1634  0.2237  0.3531
19635W        W34766   6.247  14.321  10.945  0.0872  0.0162 -0.3730
19636W        W34767   8.265   5.130  15.458 -0.0572  0.0036  0.1179
19637W        W34768  18.578   1.558   1.716  0.1045  0.1044  0.0444
19638W        W34769   7.894   4.185   2.281 -0.0089  0.0660  0.1623
19639W        W34770  17.490   6.034  10.234  0.0773 -0.0003  0.0757
19640W        W34771  16.601  18.104   2.060 -0.1281  0.0630 -0.0201
19641W        W34772  10.844   2.923  13.342  0.0738  0.0175  0.0485
19642W        W34773  15.392  16.644  13.781  0.4121 -0.3207  0.1699
19643W        W34774  12.168   4.911   0.896  0.1106 -0.1141  0.0673
19644W        W34775   2.713  16.011   5.113 -0.2194 -0.3155 -0.0830
19645W        W34776  18.389   2.915   1.171  0.1488 -0.1419  0.0800
19646W        W34777  14.720   7.871   0.355  0.4007  0.2226  0.0643
19647W        W34778  15.784  10.660   0.143 -0.1175 -0.2314  0.1217
19648W        W34779  10.946  13.877   5.041  0.4451 -0.0962 -0.0909
19649W        W34780  15.800   5.054  11.806 -0.1340 -0.0667 -0.1149
19650W        W34781  13.502  17.822   3.105 -0.1432  0.1799  0.1733
19651W        W34782   6.249  14.612   1.401 -0.1731  0.2309 -0.2086
19652W        W34783   1.713   7.154   4.018 -0.0759  0.1081  0.2094
19653W        W34784   3.513  14.452   1.820  0.1360  0.2233 -0.0403
19654W        W34785   1.608   9.841  14.840 -0.0634 -0.1601 -0.0476
19655W        W34786   4.711  17.043   1.923 -0.1909  0.0641 -0.0889
19656W        W34787   5.704  13.544  15.584  0.2938  0.0060  0.2543
19657W        W34788   9.966  10.754  12.545  0.0488 -0.0022  0.0873
19658W        W34789  16.242  11.642   4.067 -0.1040 -0.1499 -0.3322
19659W        W34790  10.406   6.998  13.102  0.3028  0.0957 -0.2675
19660W        W34791  13.781   4.736  15.002  0.2432 -0.0078  0.1027
19661W        W34792   6.466  12.008   1.576  0.0834 -0.3329 -0.0263
19662W        W34793  10.663   8.166  11.068  0.3249 -0.1351 -0.0940
19663W        W34794  16.934  17.677  12.562  0.2469  0.0926  0.3032
19664W        W34795   2.352   3.141   0.955 -0.0183 -0.3228 -0.1274
19665W        W34796   4.693  12.421  15.008 -0.0104  0.3545  0.0011
19666W        W34797   1.976  13.769  13.913 -0.0706 -0.0490 -0.0008
19667W        W34798  12.199  11.689   1.564 -0.0668  0.0925  0.1721
19668W        W34799   5.793   4.914  11.718 -0.1052 -0.0167 -0.0977
19669W        W34800   1.263   4.962  10.489  0.1983 -0.3805  0.1691
19670W        W34801  16.431   9.783  14.731 -0.4516 -0.0312 -0.3614
19671W        W34802  13.439  18.691  12.159 -0.1342  0.0610  0.2441
19672W        W34803   7.587  13.260  11.130  0.1963  0.0189 -0.1885
19673W        W34804   5.368   2.116   1.404  0.3750  0.1781  0.4153
19674W        W34805   9.973   0.165  11.325 -0.1450 -0.5464  0.2135
19675W        W34806  16.615   0.616   3.382 -0.1393 -0.1672  0.0344
19676W        W34807   9.044   7.579  15.103  0.1144  0.0167  0.2652
19677W        W34808  13.057   5.962   2.949  0.0916 -0.2973  0.2482
19678W        W34809   1.715  13.911  10.829 -0.2346 -0.0289 -0.2314
19679W        W34810   8.420   4.855  15.109 -0.1703  0.0681  0.0176
19680W        W34811   1.811   4.944   5.109  0.0820  0.0250  0.1422
19681W        W34812  13.645  11.233   4.730 -0.0552  0.0154  0.0756
19682W        W34813   6.782  13.282  14.730 -0.1236  0.0099  0.0944
19683W        W34814  18.527   1.894   2.115 -0.0340  0.4934 -0.3983
19684W        W34815   0.427  12.369   5.759 -0.0419  0.0251 -0.0786
19685W        W34816  14.373  14.014   5.297  0.2878  0.0388  0.3929
19686W        W34817  13.133  13.913   1.065 -0.2464 -0.3819  0.0529
19687W        W34818   7.795  12.568   0.380 -0.1622 -0.2223 -0.2370
19688W        W34819   4.599  14.060  15.344  0.1145 -0.1627  0.0122
19689W        W34820  11.341   9.751  10.604  0.2725 -0.2313  0.1335
19690W        W34821  14.060  14.394  14.920 -0.1412  0.1279  0.2430
19691W        W34822  17.297   0.472   1.034 -0.0036 -0.1253 -0.3912
19692W        W34823  10.528   2.965   4.696 -0.0717 -0.0824  0.1175
19693W        W34824  12.924  15.562   0.352  0.5059  0.1607  0.2379
19694W        W34825   2.802  15.420   0.170  0.2619  0.0417 -0.1451
19695W        W34826   7.876  12.453   3.800  0.1131  0.1730  0.0424
19696W        W34827  11.166  10.417  13.242 -0.1146 -0.1993 -0.1096
19697W        W34828  10.590  14.833  13.957  0.2717 -0.4154  0.0359
19698W        W34829   8.405   3.448  12.328  0.2416  0.2145 -0.2225
19699W        W34830   2.679   8.700   2.903 -0.1950  0.2760  0.2214
19700W        W34831   6.139   9.081  13.710  0.1418  0.1957  0.2309
19701W        W34832  12.029  12.331   5.589  0.0148 -0.3335  0.0833
19702W        W34833  10.051  17.864  14.019 -0.3857  0.0346  0.0045
19703W        W34834   6.533   9.797   2.159  0.3038 -0.1021 -0.0406
19704W        W34835   6.278  15.759   3.513  0.1888  0.1865  0.0389
19705W        W34836  14.451   8.745   0.480 -0.1173  0.0657 -0.2332
19706W        W34837  15.947  11.216  13.783 -0.2146  0.0073  0.1157
19707W        W34838   0.647   2.126  14.376 -0.0924 -0.0710  0.2254
19708W        W34839  13.823   2.273   5.744 -0.2170 -0.3191  0.0533
19709W        W34840  13.770   5.210  13.216  0.1405  0.0417 -0.3061
19710W        W34841   3.506  12.630   9.531 -0.1445  0.0810 -0.2943
19711W        W34842  17.790   8.807   0.609 -0.2311  0.0117  0.2526
19712W        W34843   9.552  12.440   2.698  0.5628 -0.1848 -0.2311
19713W        W34844   8.651  10.682  11.555  0.1905 -0.2936  0.2521
19714W        W34845  18.556  17.420  13.073 -0.1346 -0.0792  0.0319
19715W        W34846  11.287   7.312   4.935  0.1309  0.1654 -0.0854
19716W        W34847  18.170  14.763  14.618 -0.1271 -0.1522 -0.1810
19717W        W34848   0.992  13.957   1.851  0.1414  0.2658  0.2838
19718W        W34849  17.051   9.894   1.942  0.2262 -0.2322 -0.0471
19719W        W34850   0.729  18.445  15.004  0.0295  0.5062 -0.2599
19720W        W34851   6.658   9.268   5.274  0.0224 -0.1196  0.0905
19721W        W34852  16.417   9.199  12.383  0.0375  0.2059  0.0687
19722W        W34853   2.246   2.667   2.947 -0.1442  0.1343 -0.0346
19723W        W34854   4.121   3.515  14.818 -0.1882  0.2930  0.3546
19724W        W34855  15.772  10.461   4.211 -0.3198  0.1274  0.0409
19725W        W34856   0.714   5.161  11.932  0.4085 -0.1295  0.2313
19726W        W34857  14.044  17.623   1.289 -0.2092  0.1751 -0.0102
19727W        W34858   7.585  11.944  15.607 -0.8115 -0.0318 -0.0935
19728W        W34859  13.728  14.420   3.992  0.1620  0.1182 -0.0728
19729W        W34860   5.163  17.532   4.168 -0.1962  0.1607 -0.4014
19730W        W34861  15.290  16.628   5.151  0.3553 -0.0722 -0.4121
19731W        W34862   8.577   7.286   4.658  0.1374  0.1238  0.2228
19732W        W34863   5.233  12.980  12.945  0.1377  0.3130 -0.1855
19733W        W34864   6.744   8.552   5.045 -0.1463  0.1484  0.2540
19734W        W34865   2.258   7.330  10.593  0.0208  0.0893 -0.1744
19735W        W34866  12.285   9.594  12.019  0.0150  0.0271  0.1168
19736W        W34867  13.424  13.400  12.782  0.2944  0.0916  0.1062
19737W        W34868   6.730   7.221   0.581 -0.0475 -0.2263  0.1068
19738W        W34869  17.580  13.050  11.323  0.2126  0.3194 -0.3895
19739W        W34870   7.006   8.519  13.124 -0.0941 -0.0425  0.0802
19740W        W34871  15.182   6.162  15.611  0.0489 -0.2950  0.1401
19741W        W34872  15.022  14.092   1.945 -0.1401  0.0196 -0.0486
19742W        W34873   2.779  10.696   1.159  0.1145  0.0823 -0.2476
19743W        W34874  11.387   0.059  10.546 -0.1108 -0.3502 -0.1575
19744W        W34875   0.677  11.506   2.657 -0.2060 -0.4393  0.2069
19745W        W34876  13.058  15.935   1.312  0.0081  0.2009  0.1038
19746W        W34877  12.099   8.687  11.727  0.0489  0.4705 -0.1672
19747W        W34878   1.895   4.255   1.358 -0.3684  0.0918 -0.0933
19748W        W34879  17.945  17.821   0.651  0.0279  0.3039 -0.0987
19749W        W34880   9.577   5.800   2.742  0.1007 -0.1679 -0.1297
19750W        W34881   8.317   5.677   1.311  0.2310 -0.2307 -0.1093
19751W        W34882  13.501   2.702   5.759 -0.0865  0.0381  0.2182
19752W        W34883   5.126   5.219   0.701 -0.0584  0.0609 -0.1143
19753W        W34884  15.993  16.249   3.840  0.0955  0.2345 -0.5038
19754W        W34885   6.330  13.570   0.452 -0.0953  0.1335 -0.3178
19755W        W34886  11.841  17.723   2.118 -0.1752  0.2007 -0.0759
19756W        W34887  17.542  15.173   1.592 -0.4534 -0.1914  0.0210
19757W        W34888   9.449   2.616  12.566 -0.0412 -0.1136 -0.1832
19758W        W34889   5.277   6.240  11.365  0.0075  0.0935  0.0174
19759W        W34890   3.407   6.409  13.611 -0.0997  0.1255  0.0674
19760W        W34891   4.506   3.081  11.872 -0.1912  0.1904 -0.0173
19761W        W34892   4.086   1.481  11.660  0.1125  0.0688  0.0749
19762W        W34893   0.100   0.156   3.115  0.2971 -0.1081 -0.0081
19763W        W34894  14.274   8.251   1.104 -0.0490  0.0150 -0.1696
19764W        W34895  10.702  10.334   5.633 -0.1155  0.0027  0.0904
19765W        W34896   2.608   4.267   2.725 -0.2908 -0.0174  0.0383
19766W        W34897   0.470   9.131   2.036  0.1196 -0.0229 -0.1883
19767W        W34898  12.797  14.260  15.405  0.0232  0.0700 -0.1085
19768W        W34899   0.296  16.850  10.583 -0.4461 -0.3990 -0.0493
19769W        W34900  15.397   3.046  12.599 -0.1247  0.1580 -0.2158
19770W        W34901  13.147   0.913   5.210 -0.0223  0.1171  0.0508
19771W        W34902  11.162  12.702   3.023 -0.2099 -0.0164  0.1301
19772W        W34903   0.020   5.818  14.504 -0.0644 -0.1497 -0.1782
19773W        W34904  10.231  17.508  13.705  0.0934 -0.1781  0.0054
19774W        W34905   1.847  12.055  14.652  0.0563  0.1409  0.1071
19775W        W34906   5.443   6.230   9.881 -0.1473 -0.6116  0.1459
19776W        W34907   5.478   0.798  14.710 -0.1483 -0.0637  0.0070
19777W        W34908   8.809  15.629   1.735  0.0394  0.1901 -0.0726
19778W        W34909   8.343  18.599  11.019  0.0636 -0.2122  0.2746
19779W        W34910  17.507  12.747   0.606  0.3267  0.4312  0.0923
19780W        W34911   7.164  17.302  12.253 -0.2278  0.0364 -0.0269
19781W        W34912  10.349  10.449  12.720  0.0081  0.0344 -0.0022
19782W        W34913   7.522  14.316  14.406 -0.2373  0.4223 -0.4432
19783W        W34914  12.815  14.052   4.229  0.1232  0.1616  0.2038
19784W        W34915  15.383  10.884  15.685 -0.0460 -0.2487  0.1136
19785W        W34916  10.177  15.464  15.098  0.1223 -0.1015  0.0025
19786W        W34917  11.584   8.432   1.584  0.0704 -0.0794  0.1051
19787W        W34918  15.768   0.372  14.285 -0.0704 -0.0820  0.3181
19788W        W34919   5.201   1.101  14.286 -0.2226  0.2085 -0.1108
19789W        W34920  14.813   3.132   1.425 -0.0057 -0.2878 -0.3033
19790W        W34921  12.942  10.434  12.928 -0.1016 -0.2240  0.1093
19791W        W34922  10.047   5.255  10.964 -0.1525 -0.1643  0.2735
19792W        W34923   3.939   4.016  14.592  0.0191 -0.0097 -0.1155
19793W        W34924  18.130   6.704  14.121 -0.1467 -0.0559 -0.1272
19794W        W34925   4.495  11.530  11.009  0.1274  0.1648  0.0562
19795W        W34926   4.405  18.347  15.442  0.1358 -0.2329 -0.1140
19796W        W34927   4.987  12.455   4.995  0.2858 -0.0346  0.0313
19797W        W34928   4.418  12.292   5.732 -0.1694 -0.2122  0.0111
19798W        W34929  14.922   1.486   2.527 -0.1101 -0.1918 -0.0980
19799W        W34930   3.386  12.963  15.446  0.1179  0.0350  0.1683
19800W        W34931  16.786   3.585   3.511 -0.3283 -0.0145  0.2548
19801W        W34932  11.877   4.081   5.014 -0.3447 -0.0835  0.0649
19802W        W34933  16.433   7.070   0.759  0.1635 -0.0220  0.3226
19803W        W34934  14.609  16.672   0.753 -0.2100 -0.0797  0.3673
19804W        W34935   0.504  10.995  15.269 -0.3205  0.0457  0.1468
19805W        W34936  14.290  12.348  15.590  0.2081 -0.2634  0.0472
19806W        W34937  15.648   7.965   4.275  0.2057  0.3260  0.0038
19807W        W34938   6.409  12.760  14.780 -0.1515  0.0852  0.1179
19808W        W34939   8.681  12.879  12.894  0.0212 -0.0460 -0.2401
19809W        W34940   2.720   0.104  12.550  0.1161 -0.3880 -0.4391
19810W        W34941   5.826   6.143   0.670 -0.1925 -0.0860  0.0534
19811W        W34942  13.278  17.857   3.983  0.1437 -0.1108 -0.0681
19812W        W34943  13.927   7.600  10.990 -0.1635  0.3043 -0.0390
19813W        W34944  13.930   2.150   5.245 -0.1293 -0.0610 -0.0421
19814W        W34945  13.353   1.965  12.568 -0.1625  0.0820 -0.1316
19815W        W34946   1.704   0.029   1.164  0.0160  0.0008  0.0046
19816W        W34947   2.167   4.615   2.485 -0.1762  0.1408 -0.1153
19817W        W34948   7.505   0.898   1.684  0.0883 -0.2237 -0.1378
19818W        W34949   9.496  18.232   3.090  0.0755 -0.0902  0.2694
19819W        W34950   2.331   2.736  12.095  0.0673 -0.0028  0.0008
19820W        W34951  13.799   3.601  13.788 -0.2749 -0.0149  0.0956
19821W        W34952   3.929  11.273   2.607  0.2386  0.4033  0.0777
19822W        W34953   3.108   0.350   1.519  0.3902 -0.2420 -0.0523
19823W        W34954  16.320  16.110  13.598 -0.3462  0.2253 -0.0033
19824W        W34955  17.503  17.514  15.088 -0.2716  0.0529 -0.1930
19825W        W34956   9.594   7.101   2.748 -0.2889 -0.0475  0.0426
19826W        W34957   7.730   7.936   3.559 -0.0581 -0.4263 -0.2485
19827W        W34958  17.518  13.434   2.029 -0.3065 -0.0447 -0.1771
19828W        W34959   8.872  11.912  13.188  0.0808 -0.0363 -0.1505
19829W        W34960  15.066   4.538  15.536  0.0667 -0.2671  0.0463
19830W        W34961  12.466  17.852   4.428  0.0401 -0.0885 -0.2543
19831W        W34962  14.437   4.321   4.331  0.2804  0.5153  0.0262
19832W        W34963   3.620  15.260   1.349  0.0017 -0.3691 -0.0481
19833W        W34964  16.579  16.066  12.498  0.0017  0.0907  0.1230
19834W        W34965   1.934   8.286  11.484  0.1455  0.0276  0.0665
19835W        W34966  17.002   5.078   4.446 -0.1831  0.2461 -0.0179
19836W        W34967   0.570   7.368   4.005 -0.0253  0.0885  0.1583
19837W        W34968   6.253  12.638  12.718  0.1016  0.0069  0.3492
19838W        W34969   6.426  18.111   3.603  0.4321 -0.0831  0.1769
19839W        W34970   3.403   4.976   2.707  0.0883  0.0157 -0.2746
19840W        W34971  16.641   9.543   1.859  0.1854 -0.0110 -0.1427
19841W        W34972   7.051   5.084  13.803 -0.2538 -0.1208  0.0856
19842W        W34973  17.391   3.129  14.542  0.1559 -0.0630  0.1242
19843W        W34974   7.237   1.835   0.934  0.1431 -0.1167 -0.1070
19844W        W34975   2.828  16.021  15.478 -0.0636 -0.1871  0.4219
19845W        W34976   0.115   2.709  11.661 -0.3890 -0.0633 -0.1966
19846W        W34977  17.337  18.755  11.251  0.5047 -0.0970  0.0772
19847W        W34978   3.837  11.012   0.033 -0.1659 -0.0505  0.2369
19848W        W34979   7.466   3.413   1.294 -0.0493  0.0119  0.0685
19849W        W34980  12.859  12.903  11.283 -0.2038  0.1124 -0.0076
19850W        W34981  13.828  10.875  15.363  0.4514 -0.0360 -0.0606
19851W        W34982   6.129   6.284  12.225  0.1590 -0.2322  0.0064
19852W        W34983   3.358   1.313  12.292  0.2269 -0.0657 -0.1240
19853W        W34984   6.628  14.128   4.692 -0.1628  0.4011 -0.1236
19854W        W34985  12.661  15.437  12.165 -0.2304 -0.1682 -0.2633
19855W        W34986   2.110  18.632   1.548 -0.0113 -0.0452  0.0641
19856W        W34987  14.196   5.983  12.188 -0.1447 -0.0369  0.1122
19857W        W34988   2.625   5.857   4.234 -0.3245 -0.0900  0.2306
19858W        W34989  12.606  12.094   4.086  0.0636  0.0574  0.0935
19859W        W34990  13.287   9.170   0.981 -0.1931  0.0891 -0.1286
19860W        W34991  17.855  14.410  15.333  0.2318 -0.0673 -0.2700
19861W        W34992   7.722   8.667  11.657 -0.2362 -0.0193 -0.2681
19862W        W34993   7.002   6.478   3.324 -0.1316  0.1177  0.0739
19863W        W34994  14.881  10.096  11.235 -0.1095 -0.3342  0.0791
19864W        W34995   4.185  10.267  15.187 -0.1292  0.0295 -0.0582
19865W        W34996   7.205  16.046   4.629  0.2164  0.0529  0.1763
19866W        W34997   9.642   8.061  13.408  0.2195  0.1388 -0.2233
19867W        W34998  15.427  16.650   1.477 -0.0185 -0.4963 -0.3299
19868W        W34999   2.481   0.957  12.222  0.2778  0.1806  0.0925
19869W        W35000   1.487   0.977   4.646 -0.2934  0.0652  0.1233
19870W        W35001   5.460  12.227   2.765  0.1192  0.4477 -0.0679
19871W        W35002  14.464  14.330   4.899 -0.2648 -0.2457 -0.3799
19872W        W35003   2.805  14.009  13.789  0.0163  0.1017  0.3011
19873W        W35004  15.113   6.216  11.069  0.3463 -0.4236  0.0375
19874W        W35005   8.927   7.857  11.700  0.1289  0.0619 -0.0910
19875W        W35006  11.065   2.992   2.202 -0.0005  0.0486  0.1196
19876W        W35007   1.830   9.783  13.261  0.0082  0.0188  0.1807
19877W        W35008   0.720   0.246  15.265 -0.0961 -0.1432  0.2505
19878W        W35009  17.098  12.906   3.742 -0.0365  0.3560 -0.2052
19879W        W35010  16.470   3.155   2.774  0.1802  0.2892  0.1529
19880W        W35011   5.219  17.480   3.609  0.2316  0.0532  0.0616
19881W        W35012   3.805   1.452   5.373 -0.0362 -0.3025 -0.0753
19882W        W35013  10.501   0.293   1.125 -0.1491 -0.1623  0.5325
19883W        W35014  10.655   7.511  11.857  0.1112  0.2250  0.1080
19884W        W35015   9.215   4.166  15.213  0.4494 -0.1370 -0.1285
19885W        W35016   0.330   6.551   0.304  0.0674  0.4267 -0.0678
19886W        W35017  16.502  13.616  14.963 -0.2330 -0.4769  0.1519
19887W        W35018  17.020  15.665  13.705 -0.0067  0.1634 -0.1365
19888W        W35019   5.023   1.202   3.371  0.2260  0.0237 -0.0589
19889W        W35020   0.971   2.419   2.627 -0.0588 -0.2739 -0.0286
19890W        W35021   9.773   5.302  12.491  0.0596 -0.2040  0.0057
19891W        W35022   0.525  10.734   2.418  0.1032 -0.3963  0.0627
19892W        W35023  11.799  17.299  11.339  0.0438 -0.1261 -0.1164
19893W        W35024  12.530   9.504  14.329 -0.1610 -0.0039  0.0984
19894W        W35025  14.011   8.491  11.501  0.0651  0.1810 -0.0110
19895W        W35026   2.657  17.232   0.177  0.1595 -0.2867 -0.0569
19896W        W35027  10.415  13.707  11.344  0.0157 -0.2116 -0.1528
19897W        W35028   9.567   8.857   2.991  0.0035  0.1463  0.2010
19898W        W35029   7.041   9.101  13.479 -0.1151 -0.0156  0.3159
19899W        W35030  17.122   4.622   1.086  0.1655  0.3487 -0.0426
19900W        W35031  16.984   5.180   5.018  0.0617 -0.0102 -0.0314
19901W        W35032  18.305  18.090  14.863 -0.0930 -0.0701  0.1635
19902W        W35033   7.634   8.469   5.224  0.0510  0.1853 -0.0462
19903W        W35034  18.151  11.453  10.742 -0.0105 -0.0928  0.0136
19904W        W35035   6.620   5.232   4.274 -0.1795 -0.1529 -0.4763
19905W        W35036  14.284   2.341   1.502  0.0849  0.0592  0.4170
19906W        W35037  12.808  14.611  12.470  0.0298 -0.2952 -0.0130
19907W        W35038  18.593   9.909  14.872  0.0749  0.1398  0.0077
19908W        W35039   4.551   8.657  13.961  0.1114  0.0441 -0.1255
19909W        W35040  16.004  17.020  13.240 -0.1820  0.0968 -0.0274
19910W        W35041  18.487   1.595  12.563 -0.0628  0.0062 -0.1227
19911W        W35042  13.340   5.058  14.483  0.1256  0.4406 -0.0978
19912W        W35043   3.751  16.305  11.253 -0.1455 -0.0055  0.3676
19913W        W35044   4.392  17.813  13.669  0.0893  0.0826  0.0812
19914W        W35045   7.997   0.913   3.178  0.0517  0.0893 -0.3216
19915W        W35046   9.209  14.703  12.956  0.1306 -0.0295 -0.0827
19916W        W35047  10.330  16.722  13.271  0.0246 -0.2340 -0.3932
19917W        W35048  18.585  14.021  15.164  0.0053  0.0176 -0.1904
19918W        W35049   1.068   1.336  12.747 -0.0460 -0.1043  0.2648
19919W        W35050   9.279   9.937  12.538 -0.1141  0.0078 -0.1169
19920W        W35051   7.666   8.266   3.058  0.2876  0.2153 -0.1556
19921W        W35052   5.992   8.609   3.018  0.2733  0.2354  0.2499
19922W        W35053   2.755  11.569   1.265 -0.1442 -0.0124 -0.1099
19923W        W35054  13.454   8.998   1.918  0.2155  0.0969 -0.3312
19924W        W35055  16.649   4.508   1.225 -0.2311  0.2699 -0.5596
19925W        W35056   6.058   5.113  10.795  0.0756 -0.0019  0.4310
19926W        W35057  16.716  10.059   4.913 -0.1533  0.0657  0.3186
19927W        W35058  12.540   0.800  12.042 -0.0911  0.1071  0.3748
19928W        W35059   2.888   5.934  14.906  0.0398 -0.0534  0.2552
19929W        W35060  17.690   9.105  12.691  0.4535 -0.0693 -0.0372
19930W        W35061   4.973   4.230   2.973 -0.0809  0.1777 -0.0712
19931W        W35062  15.147   4.763  11.401 -0.1889 -0.3065  0.0671
19932W        W35063  12.880   4.983   1.425  0.3563  0.0565 -0.0537
19933W        W35064   8.391  12.191  14.244 -0.2740 -0.0907  0.0536
19934W        W35065   0.531  17.920   3.325  0.0811  0.1082 -0.0164
19935W        W35066  13.807   3.130   2.310 -0.0875 -0.1719 -0.1516
19936W        W35067  18.192  18.058   1.006 -0.0330 -0.1250  0.2317
19937W        W35068  15.110   0.872  12.277  0.1553  0.0827 -0.2439
19938W        W35069  17.604   1.405  12.073 -0.3280 -0.0431  0.0258
19939W        W35070  15.066   8.063  14.799  0.1084 -0.1322  0.1694
19940W        W35071   1.601  13.713  14.799  0.1978  0.0689 -0.2530
19941W        W35072   9.304   4.942   1.787  0.1418 -0.0961 -0.2449
19942W        W35073   8.896   1.301   1.282 -0.2820 -0.1053 -0.0853
19943W        W35074  16.471  15.535   3.562  0.2315 -0.0787  0.1498
19944W        W35075   1.500   4.894   4.706 -0.1909 -0.0914 -0.1258
19945W        W35076  13.228   6.382  13.870  0.0237  0.0032  0.3904
19946W        W35077  15.117   4.786  10.881 -0.3186  0.0265  0.1444
19947W        W35078  13.354   6.156   1.036 -0.2217 -0.2867  0.0586
19948W        W35079  17.271  16.590   2.420 -0.3291  0.1697  0.0100
19949W        W35080   1.907   1.376  11.472 -0.0968  0.1741 -0.2151
19950W        W35081   5.226   3.703  14.937  0.0530  0.2931 -0.0499
19951W        W35082  14.583   8.427   2.202 -0.3557  0.2161  0.0767
19952W        W35083   2.642   4.782   2.515  0.1862 -0.0183 -0.2190
19953W        W35084  13.915   9.402  13.344  0.3658 -0.1248  0.0277
19954W        W35085   0.666  11.672   9.099  0.0900 -0.0133 -0.2024
19955W        W35086   0.876  10.389   2.431 -0.0525  0.2388 -0.3453
19956W        W35087   4.428   2.978   1.908 -0.0145  0.1818  0.0015
19957W        W35088  13.543  13.601   1.216 -0.1634 -0.2209  0.2219
19958W        W35089  12.978   6.527   1.244  0.1652 -0.1302  0.0224
19959W        W35090   6.663   2.428   0.789  0.2745 -0.0135 -0.1186
19960W        W35091  13.631   6.907   0.210  0.1031  0.3328  0.0269
19961W        W35092  15.118   0.647  12.744 -0.1187  0.0941  0.1380
19962W        W35093   2.209  13.673   1.725  0.1722  0.1132 -0.1990
19963W        W35094   4.340   5.371   1.223 -0.0473 -0.0192 -0.3065
19964W        W35095   3.493   8.412   0.810  0.0238 -0.2617  0.0490
19965W        W35096  11.079   6.321   3.581  0.0111  0.1978  0.2764
19966W        W35097  16.218   1.467   4.394  0.2786  0.0566 -0.0764
19967W        W35098  17.031  10.474   5.192  0.0450  0.2131 -0.2674
19968W        W35099   3.287   1.688   3.296 -0.2206 -0.1186 -0.0838
19969W        W35100   2.735   2.571   4.390  0.2729 -0.2892 -0.1039
19970W        W35101  13.620  17.956   2.132 -0.1566  0.0421 -0.1570
19971W        W35102   7.021   6.003   4.704  0.1897 -0.0231 -0.0762
19972W        W35103  18.262   2.438   1.298 -0.0809  0.0770  0.4570
19973W        W35104  17.765  12.867   2.081  0.0867  0.2477  0.0247
19974W        W35105   1.592  12.710  12.164 -0.2493  0.1317  0.0138
19975W        W35106   7.172   6.548   2.834  0.0240  0.1640 -0.1802
19976W        W35107  14.836  17.418  11.913  0.3015  0.0120  0.0508
19977W        W35108  11.475   9.241  13.907 -0.2560  0.0956  0.1796
19978W        W35109  17.268   4.456   5.710 -0.0582 -0.4336 -0.0511
19979W        W35110  11.593  18.402  11.395  0.2234 -0.1812 -0.1228
19980W        W35111  14.133   7.586  12.718 -0.1747 -0.1504 -0.0892
19981W        W35112   8.013   7.785   4.570 -0.0345  0.1073 -0.1660
19982W        W35113   9.655   5.970  11.182  0.4483 -0.2776 -0.1525
19983W        W35114   8.090  14.482   9.985  0.0894  0.0977 -0.3895
19984W        W35115   6.880  12.376  14.649 -0.2856  0.0254 -0.1611
19985W        W35116  12.974  12.450   0.597 -0.0227  0.0153 -0.1040
19986W        W35117  13.177   2.720   0.756 -0.0501  0.0508 -0.1031
19987W        W35118  18.200  13.134  14.658 -0.2361  0.2978 -0.3077
19988W        W35119   3.911  16.169   2.802 -0.3951 -0.1152  0.0957
19989W        W35120  14.123  15.083   2.281 -0.1264 -0.0858  0.3832
19990W        W35121   5.111  16.068  12.488 -0.1805  0.1516  0.0722
19991W        W35122  15.077   3.970   1.493 -0.1534  0.1852 -0.2512
19992W        W35123  15.980  10.648   5.995 -0.0979  0.0379  0.3132
19993W        W35124   6.501   2.918  10.158 -0.0892  0.1717  0.1819
19994W        W35125  16.426   1.264  10.936 -0.2508 -0.0216 -0.1531
19995W        W35126  10.333   0.528   0.220  0.2607  0.0630  0.1077
19996W        W35127  18.521  13.000  12.564  0.1073  0.2064 -0.1403
19997W        W35128  14.602  12.067  13.213 -0.2199 -0.1662  0.1422
19998W        W35129   1.388  11.931   4.874  0.0803 -0.0232 -0.2387
19999W        W35130  18.095  12.773   5.215 -0.0530 -0.4032  0.1178
20000W        W35131  13.652   9.036  11.925 -0.2137  0.3260  0.1109
20001W        W35132   2.271   7.358  12.889 -0.1490  0.0766 -0.1980
20002W        W35133  17.763  16.434   2.256  0.1333  0.1436 -0.0966
20003W        W35134  13.614  16.603  15.382 -0.0296 -0.3561 -0.1157
20004W        W35135   2.565   6.234  15.236  0.0694  0.3604 -0.4045
20005W        W35136   6.194   6.303  11.744 -0.0574  0.1089  0.0081
20006W        W35137   5.846  14.331  11.855  0.1376  0.0099 -0.3679
20007W        W35138  17.058  10.755  12.375  0.0804 -0.1410  0.0820
20008W        W35139   1.191   9.682  10.682  0.0028 -0.0458  0.2343
20009W        W35140   9.573  18.092   5.956  0.0765  0.0186 -0.0091
20010W        W35141   3.477  14.130   2.356  0.1507  0.0040 -0.0675
20011W        W35142  13.508   3.275  14.185 -0.2469  0.2649 -0.1916
20012W        W35143   9.003   4.602  10.941  0.2167  0.0262 -0.2539
20013W        W35144   6.939  12.548   0.132 -0.0422  0.3397  0.2540
20014W        W35145   8.460  17.841  13.269  0.1283 -0.2197  0.0363
20015W        W35146  13.337  16.142  12.004 -0.1555 -0.1667  0.1087
20016W        W35147  10.070   3.285  14.892  0.2162  0.3966  0.0818
20017W        W35148  14.043   2.424  12.621 -0.1792 -0.2399 -0.0424
20018W        W35149   3.653   4.938   5.227 -0.0599 -0.1324  0.2784
20019W        W35150  11.593  12.647  13.432 -0.1091  0.4550  0.0937
20020W        W35151   6.872  11.643   0.700  0.1675 -0.0114  0.4679
20021W        W35152   1.102   1.214   3.996 -0.2535  0.3908  0.1415
20022W        W35153  14.398   1.185   2.559 -0.0253 -0.0327 -0.0817
20023W        W35154   7.751  16.753   0.776 -0.1000 -0.1383 -0.1891
20024W        W35155  13.567  15.769  10.892  0.1917  0.1485  0.1464
20025W        W35156   0.668   2.859   0.182 -0.2871  0.0455 -0.0117
20026W        W35157   2.073   6.623   4.913 -0.2753 -0.1670 -0.0519
20027W        W35158   6.099  18.676  14.200  0.0814 -0.1261  0.0679
20028W        W35159   4.196  10.981   2.244 -0.1100  0.0199  0.2163
20029W        W35160   4.652   6.868   0.034  0.1497  0.0463 -0.0565
20030W        W35161   4.526  11.142  12.711  0.1788 -0.1609  0.0381
20031W        W35162   4.936   3.145  10.850 -0.1160 -0.1474 -0.1817
20032W        W35163  17.453   4.310   1.293 -0.1351  0.0879  0.1374
20033W        W35164   4.695   5.715  10.752  0.2305 -0.0776  0.0954
20034W        W35165  10.746   7.723  12.753  0.2866 -0.2645  0.1214
20035W        W35166   7.698  13.872  10.244  0.0748  0.3066 -0.2913
20036W        W35167   4.088   9.393  12.022 -0.2423 -0.4558 -0.2901
20037W        W35168  13.747  16.477   4.994  0.0628 -0.1510 -0.1928
20038W        W35169   6.834  16.156   2.628 -0.3246  0.0072  0.0630
20039W        W35170  10.433  13.887   1.153 -0.2088 -0.1611 -0.0561
20040W        W35171   9.086  10.394   1.239  0.1631  0.0827 -0.2313
20041W        W35172   5.197   7.900  13.990 -0.0596 -0.2548 -0.2275
20042W        W35173  18.154   3.147  10.948 -0.1379 -0.0579 -0.2635
20043W        W35174   2.721   9.381   2.844 -0.3242 -0.1171 -0.0853
20044W        W35175  10.852   8.970  15.745 -0.2512 -0.0236  0.2443
20045W        W35176  17.431  11.701  13.029  0.1216 -0.5851  0.1017
20046W        W35177  18.717   3.449   2.539  0.1401  0.0602  0.1665
20047W        W35178   7.330  11.592  14.371 -0.1336  0.2878  0.0752
20048W        W35179  13.846   5.128   5.092 -0.1301 -0.0144  0.2424
20049W        W35180   6.725   0.614   4.867 -0.0041 -0.0200  0.2079
20050W        W35181  18.609  11.515   4.411 -0.1798 -0.1543 -0.0891
20051W        W35182   3.152   8.343  12.474  0.1999 -0.2776  0.1964
20052W        W35183  18.434  11.742  14.448  0.2131 -0.0747 -0.2005
20053W        W35184   0.233   9.981  12.614  0.0913 -0.0395 -0.0445
20054W        W35185  18.507   7.847   3.977 -0.1416 -0.0783  0.1900
20055W        W35186  12.108  13.962   6.043 -0.2701 -0.3217 -0.0833
20056W        W35187   7.212   2.606   4.294 -0.0480  0.1420 -0.1397
20057W        W35188   8.249   5.991   3.313 -0.3161  0.0132  0.3748
20058W        W35189   4.090  18.354  12.204 -0.0510  0.2363  0.0126
20059W        W35190  15.086  10.894  15.212 -0.0726 -0.0784 -0.2186
20060W        W35191  13.008  17.410  13.490 -0.2810  0.0038  0.1166
20061W        W35192  12.735   4.552   1.642 -0.0502 -0.1341  0.2007
20062W        W35193   6.309  17.143  14.703 -0.3378  0.3422 -0.1913
20063W        W35194   4.625   1.578   3.366 -0.0014 -0.2081  0.2184
20064W        W35195  13.351   9.793  15.157 -0.0957 -0.0787  0.1840
20065W        W35196   2.658  14.839   1.296  0.2768  0.3394  0.1226
20066W        W35197  13.829  15.169   1.036 -0.0095  0.1386  0.2953
20067W        W35198   4.012  16.409   9.738  0.1099  0.0775 -0.0519
20068W        W35199   9.266   7.914   0.078  0.1571  0.2115 -0.0566
20069W        W35200  13.743  15.077   3.952  0.1061  0.1586  0.1136
20070W        W35201   0.420  14.175   5.211  0.0835  0.1652  0.1490
20071W        W35202   7.620   0.673  11.959 -0.2422 -0.1057 -0.4287
20072W        W35203   8.933  14.241   0.943 -0.3745 -0.0922 -0.0338
20073W        W35204   5.602  15.233   2.481  0.0785 -0.2565 -0.1157
20074W        W35205  11.249   4.137  13.736 -0.0617  0.0672 -0.2932
20075W        W35206  10.326   4.929   2.270 -0.2860 -0.1163  0.1391
20076W        W35207   9.388   4.032   3.157 -0.0738 -0.0510  0.1504
20077W        W35208  13.082  15.437  13.121 -0.1482  0.2295 -0.3224
20078W        W35209   2.079   9.307  15.600 -0.2192  0.1460  0.4329
20079W        W35210  16.188  14.333  14.254  0.3090 -0.2720  0.2914
20080W        W35211  13.203  17.003  13.126 -0.1474 -0.1000  0.2413
20081W        W35212  15.301   3.605   2.185  0.1976 -0.2827 -0.1118
20082W        W35213   8.443   3.257   2.224 -0.0823  0.0455  0.0090
20083W        W35214   8.271   9.685   3.577 -0.3627 -0.0820  0.2448
20084W        W35215   8.791   5.467   1.564 -0.2105 -0.4969 -0.2237
20085W        W35216  18.549   6.714   1.550  0.2209 -0.1583  0.2438
20086W        W35217  10.121   5.039  11.390  0.1382 -0.0015 -0.0831
20087W        W35218   3.554   7.322   9.809 -0.0998 -0.0191 -0.3973
20088W        W35219  13.767   3.881  11.895 -0.0789  0.2850 -0.0731
20089W        W35220  10.133   8.846   6.232  0.0221 -0.0687  0.2997
20090W        W35221  18.148   8.456   5.240  0.1068 -0.2486 -0.2551
20091W        W35222   1.305   8.429   2.520 -0.2122 -0.1466 -0.0597
20092W        W35223  14.798   9.237  12.806 -0.0139 -0.0012 -0.3479
20093W        W35224   7.850   1.413   4.077 -0.1348  0.0301  0.1552
20094W        W35225  11.149  13.690   4.147 -0.0863 -0.1342 -0.1864
20095W        W35226  14.852  15.139  15.464  0.3026 -0.0323 -0.1819
20096W        W35227  18.574   4.844  11.769 -0.0202 -0.1414  0.3013
20097W        W35228  15.532   8.270   0.989  0.2526 -0.1775  0.3287
20098W        W35229   9.370  11.753  12.228  0.2307 -0.2773 -0.0814
20099W        W35230   6.151   6.085  12.765 -0.1227 -0.1629 -0.0429
20100W        W35231  14.985   1.718   3.773  0.1206 -0.1416 -0.0360
20101W        W35232  16.614  10.838  15.259 -0.0553  0.2804  0.0791
20102W        W35233   0.067  11.192  10.161  0.0113 -0.0989 -0.0093
20103W        W35234   1.074   5.643   0.790 -0.1719 -0.0959  0.1789
20104W        W35235  16.410  17.357  15.481  0.0332 -0.2024  0.0048
20105W        W35236   6.599   2.485  12.088  0.3118  0.1744  0.1027
20106W        W35237  13.725  13.100   5.917  0.1420 -0.1103 -0.1011
20107W        W35238   1.120   9.991  11.079 -0.1385 -0.3300  0.0573
20108W        W35239   5.368   9.232   1.504  0.0537  0.0843  0.0325
20109W        W35240  14.066  12.979   1.994  0.2319  0.1488 -0.0532
20110W        W35241  11.339   0.331   3.801  0.1454  0.1718  0.0827
20111W        W35242  18.507   0.201  13.155  0.2562  0.3031  0.1807
20112W        W35243  10.876   2.392   0.370 -0.3156  0.1354 -0.0059
20113W        W35244  15.587  14.588   0.307  0.0292 -0.2837 -0.0857
20114W        W35245   1.719  16.061  15.167 -0.0412  0.0496 -0.2142
20115W        W35246  15.467   3.689   5.142 -0.0474  0.3780 -0.1188
20116W        W35247   3.961  10.191   3.580 -0.0569 -0.1204  0.4020
20117W        W35248  15.382   2.873  15.142  0.0701 -0.1639 -0.1077
20118W        W35249  12.652   9.692  12.413  0.1413  0.2346 -0.2739
20119W        W35250  14.639  11.118   5.122 -0.3468  0.1023 -0.3090
20120W        W35251  10.827  10.415   1.397  0.0139 -0.0331  0.4402
20121W        W35252  18.474   4.275  11.220 -0.2399  0.1984 -0.1903
20122W        W35253   8.917  10.079  11.629  0.2797  0.0512  0.0352
20123W        W35254  18.007   2.164   3.728 -0.0926 -0.2152 -0.1037
20124W        W35255   7.236   4.669   1.029 -0.0005  0.1251  0.1025
20125W        W35256  18.117  13.998  15.428  0.0369  0.1228 -0.0928
20126W        W35257  13.572   2.921  10.724  0.1166  0.1829 -0.3169
20127W        W35258  14.561   0.686  13.068  0.0405  0.0969 -0.4055
20128W        W35259  15.822  11.379  12.670 -0.2876 -0.0751  0.0701
20129W        W35260  18.235   2.476  14.248 -0.0168 -0.2009  0.0291
20130W        W35261  16.794  14.949   4.775  0.2209  0.3187  0.1593
20131W        W35262   2.834   7.182  13.773 -0.0370  0.0831 -0.0308
20132W        W35263   8.957   6.894   0.750  0.0274 -0.2137 -0.0300
20133W        W35264   4.957   7.099   3.757  0.0158  0.3132 -0.0809
20134W        W35265   0.911   4.472   1.894 -0.1626  0.1070  0.0301
20135W        W35266   5.822  14.363   3.671 -0.2858  0.0006  0.0995
20136W        W35267  17.947   3.768   5.217  0.0611  0.0366  0.2548
20137W        W35268  17.677   9.124  13.793  0.1951 -0.0541  0.0345
20138W        W35269   7.818  11.408  12.483 -0.3132  0.0751  0.1484
20139W        W35270   2.156   0.217   2.780  0.2177  0.0425  0.2090
20140W        W35271  16.388  15.636   0.877  0.0673  0.1449  0.3062
20141W        W35272  17.722   0.681   0.849 -0.1236 -0.0166  0.0490
20142W        W35273  14.765   0.159  15.658 -0.1660  0.2477 -0.2339
20143W        W35274   7.755   0.342  11.605 -0.3703  0.2806 -0.0295
20144W        W35275  14.257   9.216  14.736 -0.4919  0.2600  0.1658
20145W        W35276  13.419  13.081   1.276 -0.2904  0.0954 -0.0067
20146W        W35277  15.151  10.134   2.153 -0.0928 -0.1585 -0.3311
20147W        W35278   8.177  17.688  15.413  0.2386 -0.2376 -0.0204
20148W        W35279  12.341   1.078  14.446 -0.2069  0.0530  0.1005
20149W        W35280  10.748  13.190  15.489 -0.0188  0.3201  0.0360
20150W        W35281   7.034  10.550   5.305  0.2621  0.1594  0.1763
20151W        W35282   9.468  16.492  13.960  0.0042  0.1430 -0.1493
20152W        W35283   7.208   7.847   1.198  0.1210 -0.4490 -0.1667
20153W        W35284   3.011   3.070  10.650 -0.1828 -0.0573  0.0517
20154W        W35285  12.299  14.321  10.369  0.0250  0.0314  0.0574
20155W        W35286   4.814  13.822   2.787  0.0278 -0.2031 -0.0182
20156W        W35287   4.865  16.412  12.215  0.2412  0.1150  0.1272
20157W        W35288  14.846  18.385  11.940  0.4323 -0.2176  0.0019
20158W        W35289   2.314  12.472  15.359 -0.0055 -0.1163  0.2072
20159W        W35290   2.109  15.468   2.467 -0.1490 -0.1919 -0.2058
20160W        W35291   3.893  17.332   3.531  0.0999  0.3119 -0.0595
20161W        W35292  17.884  13.830   0.120 -0.0827 -0.1488  0.2973
20162W        W35293   2.017   2.158   4.140 -0.0842  0.0044  0.5215
20163W        W35294   4.779   1.765   2.861  0.0943  0.1499  0.2669
20164W        W35295   9.317  16.809   4.471  0.1024 -0.1295  0.1230
20165W        W35296   6.846   8.881  11.846 -0.0254  0.0845 -0.0103
20166W        W35297  14.151  11.170  11.716  0.0189  0.0332 -0.0309
20167W        W35298  18.654   6.179  11.864 -0.0481 -0.1003 -0.0763
20168W        W35299  14.620   4.479   0.868 -0.0527 -0.1402  0.1997
20169W        W35300   4.821   7.544  10.803  0.1290  0.0509 -0.0156
20170W        W35301  14.142   4.018  13.164 -0.0453 -0.1852 -0.2120
20171W        W35302   2.780  10.355   2.187 -0.0508 -0.4250  0.2551
20172W        W35303   9.602  18.322  14.195 -0.1389  0.2418 -0.2773
20173W        W35304  12.127  11.535  11.750  0.1375 -0.0881  0.2104
20174W        W35305   2.139   5.950  15.165  0.0963 -0.2211 -0.1678
20175W        W35306  16.929  13.012  12.549  0.0549  0.1485 -0.2212
20176W        W35307   7.492   8.112   1.519  0.2700  0.0140 -0.1827
20177W        W35308  14.060  12.424   5.444  0.0236 -0.0443 -0.2646
20178W        W35309   2.613  16.417   0.045  0.1638  0.4383 -0.0844
20179W        W35310   1.415  13.755   1.751  0.2468 -0.2230  0.1679
20180W        W35311   3.549  11.525   0.035  0.1527  0.1123  0.2444
20181W        W35312   4.263  17.307   4.456  0.0580  0.2681  0.0987
20182W        W35313   7.624   3.209   0.188 -0.2230  0.1036 -0.2524
20183W        W35314   6.625   7.152  14.731  0.0306 -0.0006  0.3613
20184W        W35315   5.029  14.996  15.263  0.1076 -0.0066  0.0264
20185W        W35316   3.334  12.331  14.432 -0.3083 -0.1597  0.1583
20186W        W35317   5.964  12.880   5.132  0.0101  0.0896 -0.0639
20187W        W35318   8.955  16.503   5.102 -0.0740 -0.0774 -0.3078
20188W        W35319  11.399   1.019   1.522  0.3201  0.1036  0.0974
20189W        W35320  15.626   1.872  15.372  0.0552 -0.1310 -0.1395
20190W        W35321   2.531   3.472   4.690  0.2941  0.0262 -0.1787
20191W        W35322   7.859  14.653   5.362  0.3842  0.0186  0.2329
20192W        W35323  17.648   4.473   0.349 -0.3029  0.0152 -0.0573
20193W        W35324   5.378  18.501  12.316 -0.1149  0.5208 -0.3135
20194W        W35325  13.002   5.599  12.208  0.0954 -0.1823  0.1698
20195W        W35326   0.430  10.865   0.489 -0.1487  0.1860 -0.1898
20196W        W35327   2.466   7.291   3.620  0.0870 -0.2287  0.2025
20197W        W35328  12.119   2.755  12.690 -0.1940  0.1880 -0.2471
20198W        W35329   8.133  18.334  11.377 -0.0289 -0.2675 -0.1301
20199W        W35330   1.326   1.830  13.250  0.0485  0.0170  0.2238
20200W        W35331   2.064  14.159   4.466  0.0926 -0.1497 -0.0469
20201W        W35332   4.977   4.432  10.623 -0.0465  0.0890 -0.4472
20202W        W35333  12.188  13.135   4.026  0.4963 -0.1081  0.0613
20203W        W35334   0.029  13.110   4.451 -0.1077  0.3769  0.0765
20204W        W35335   5.683   2.564  12.085  0.1617  0.2084  0.0456
20205W        W35336   5.986   6.522  13.160  0.0308 -0.2831  0.0292
20206W        W35337   0.102   0.307  13.963 -0.0439 -0.4321 -0.0948
20207W        W35338   4.948  14.271  12.111  0.4314 -0.2447 -0.1682
20208W        W35339   0.327   3.934   3.222 -0.3442  0.4793  0.2074
20209W        W35340   7.838  16.657   2.401  0.1625  0.0567  0.1757
20210W        W35341  18.567   6.164   4.936  0.2437 -0.3610  0.2677
20211W        W35342  11.389  16.992  14.666 -0.1301 -0.1816 -0.0568
20212W        W35343  10.477   5.331  15.037  0.2390  0.0520 -0.2307
20213W        W35344  14.089  15.123  14.250  0.1025 -0.1046  0.1363
20214W        W35345   5.914   0.788  15.017 -0.1137  0.2001  0.1341
20215W        W35346  18.530   9.776   1.777  0.0772  0.1849 -0.0862
20216W        W35347  17.787   7.120  15.188  0.2207 -0.2078 -0.3652
20217W        W35348   9.445  14.158  12.410  0.0986  0.0557  0.1008
20218W        W35349  17.491   8.974  13.296 -0.3811  0.1591 -0.2207
20219W        W35350  16.999  15.352   2.435 -0.2326  0.0422  0.1071
20220W        W35351   3.436   4.834   1.386 -0.1535 -0.1479 -0.3068
20221W        W35352  10.413  14.183  11.106 -0.0446 -0.1246  0.0734
20222W        W35353  14.508  12.207   0.225 -0.0526 -0.0741  0.1521
20223W        W35354   7.897  10.566   5.486  0.1630  0.0753  0.2454
20224W        W35355  13.636   6.428   3.241  0.0393  0.0462  0.0535
20225W        W35356   4.607   9.975   3.839 -0.2816 -0.1928  0.0093
20226W        W35357  10.410   3.372   4.486 -0.0973  0.2935 -0.0824
20227W        W35358  10.819  15.949  13.036  0.2391  0.1580 -0.0270
20228W        W35359  15.354  10.857   0.465 -0.1413  0.0217  0.0719
20229W        W35360  13.538   1.398   3.531 -0.2083  0.1389 -0.0199
20230W        W35361   5.791  13.468  11.131 -0.1076 -0.0599 -0.2125
20231W        W35362  12.768   2.645  15.593 -0.0613 -0.2421 -0.1462
20232W        W35363  15.420  11.562   2.435 -0.3658  0.1848  0.0848
20233W        W35364   2.483  10.961   3.535  0.2277  0.1451 -0.2808
20234W        W35365   7.548  11.281  11.194  0.0931 -0.2551 -0.0738
20235W        W35366  18.283   2.538   4.753  0.2062  0.1181 -0.2694
20236W        W35367   7.821   5.681  11.708  0.3717 -0.0245 -0.0495
20237W        W35368  11.449   5.893   2.683 -0.0969  0.2159  0.0032
20238W        W35369  10.669   9.989  13.533  0.1029 -0.1358  0.0372
20239W        W35370   3.591   5.962   5.343  0.2970  0.2779  0.0176
20240W        W35371  13.015   4.352   2.064  0.1269  0.3274  0.2278
20241W        W35372   8.917   0.764   3.979  0.0296  0.1591  0.0863
20242W        W35373  15.447  17.424  11.774 -0.1313  0.6265 -0.1486
20243W        W35374  10.836  15.494   2.710  0.0067  0.1005 -0.1940
20244W        W35375   1.661  13.136  13.893  0.1197  0.3368 -0.0680
20245W        W35376  18.733   4.823   2.206  0.0877 -0.0392 -0.0885
20246W        W35377   6.881  11.515  12.883 -0.2208 -0.2323 -0.0881
20247W        W35378   1.560  12.012  13.860 -0.0625 -0.2390  0.0076
20248W        W35379  10.285  17.625  15.641 -0.1645  0.2306 -0.0453
20249W        W35380   3.924   0.921   3.484 -0.0112 -0.0562 -0.2385
20250W        W35381  11.288  18.532  14.729 -0.0825 -0.1354 -0.3904
20251W        W35382   7.439   9.079  10.419 -0.0011  0.2929 -0.1856
20252W        W35383   1.344  16.251  14.924  0.1097  0.1237 -0.0640
20253W        W35384   6.009   1.979  14.964 -0.2447 -0.0858  0.0081
20254W        W35385   3.402  18.422   3.755 -0.1600  0.1503 -0.1110
20255W        W35386   4.718   3.623   4.735  0.1327  0.0692 -0.0536
20256W        W35387   5.049   6.249  10.760  0.1668  0.0812  0.1539
20257W        W35388  16.476   5.099  11.236  0.2266 -0.0848  0.1902
20258W        W35389   1.678  10.571   2.881 -0.0363  0.1882 -0.2399
20259W        W35390   6.266  16.241   5.203 -0.1353  0.0701 -0.0456
20260W        W35391   6.697  10.995   3.988 -0.2723 -0.1575 -0.1527
20261W        W35392  11.658  11.306   4.420  0.0103  0.0745  0.2676
20262W        W35393  10.914  18.586  10.629 -0.0877 -0.2727  0.2303
20263W        W35394  13.176   9.139   1.480 -0.0173 -0.1332 -0.1607
20264W        W35395   5.127   7.061  15.019 -0.1083  0.2697  0.1243
20265W        W35396   3.979  13.537   1.741  0.0119  0.1053 -0.1080
20266W        W35397  11.182   2.159   0.690 -0.0344  0.0301  0.2425
20267W        W35398  10.178  11.160  13.489  0.1713  0.2025  0.0642
20268W        W35399  14.749  12.440  11.432  0.0377  0.2303  0.0944
20269W        W35400   5.189   6.293   4.453 -0.1824 -0.2009 -0.1341
20270W        W35401  16.499  16.300  14.510  0.0146 -0.0126  0.0651
20271W        W35402   9.302  11.262  14.245 -0.2573 -0.1333 -0.2315
20272W        W35403  12.970  13.185   3.431 -0.3206 -0.0144 -0.1490
20273W        W35404  16.730   0.446   5.641  0.1162  0.1394  0.3429
20274W        W35405  16.777  17.185  12.569 -0.3753 -0.1447 -0.2627
20275W        W35406   7.083  17.168   4.201 -0.1242 -0.3683 -0.1060
20276W        W35407  17.181  11.972  12.726 -0.2920 -0.0223 -0.1187
20277W        W35408   3.123  10.727   2.309 -0.3147  0.0291  0.2564
20278W        W35409   3.541  18.585  13.669 -0.0380  0.2063  0.0347
20279W        W35410   4.271   2.914   0.094 -0.1956 -0.1516 -0.0039
20280W        W35411  18.322  11.377  14.119  0.3421  0.1887 -0.3189
20281W        W35412   0.124  11.490  13.119 -0.2858 -0.1476 -0.2049
20282W        W35413  14.623   4.496   1.940  0.0987  0.3560  0.0813
20283W        W35414   4.963  16.929  12.122 -0.0334 -0.0834  0.2553
20284W        W35415   8.122  17.844  11.086  0.2419 -0.1597 -0.0664
20285W        W35416   6.618  17.335   4.411  0.0411  0.3209  0.1390
20286W        W35417  14.877   6.068   0.383 -0.4597  0.1308  0.0483
20287W        W35418   0.613  16.741   1.207  0.3121 -0.1702  0.2958
20288W        W35419  11.996   8.556   5.301 -0.2018  0.1353  0.2249
20289W        W35420  15.631   3.210  12.157 -0.0634 -0.0659  0.2268
20290W        W35421  15.081   3.512   4.846  0.1281  0.0883  0.2853
20291W        W35422  10.765   4.097   3.152  0.0408  0.1218  0.0360
20292W        W35423   1.445  15.098   0.541  0.0950 -0.0269 -0.0378
20293W        W35424   8.406  17.629  10.067  0.2863 -0.2498  0.0812
20294W        W35425   4.444   4.588   3.524 -0.1451  0.1942  0.2252
20295W        W35426   6.904   9.140   2.777  0.3946 -0.0754  0.1341
20296W        W35427  18.667   6.967  10.240  0.0528  0.1431  0.2919
20297W        W35428   7.111   8.980  10.784  0.2386 -0.0470  0.2467
20298W        W35429   5.753   3.344  14.073 -0.2569 -0.2368  0.1523
20299W        W35430   7.133   7.264  11.189 -0.0095 -0.0044 -0.3322
20300W        W35431   1.442   6.850  13.978 -0.1191  0.0800  0.1232
20301W        W35432   3.920   2.734  14.120  0.1016  0.1864  0.0971
20302W        W35433  10.464  10.218  15.309 -0.1865  0.1386  0.0486
20303W        W35434   9.316   1.734   4.735 -0.1928 -0.1149 -0.0660
20304W        W35435   1.214  11.695   0.027  0.0504  0.1171  0.2185
20305W        W35436   5.384   4.054  11.421 -0.0418 -0.3270 -0.2119
20306W        W35437  10.790   7.205  13.763  0.0979 -0.1465  0.0503
20307W        W35438  14.285  15.672  14.127 -0.0114 -0.1605  0.0565
20308W        W35439   3.332  13.975  14.460  0.0837  0.2240  0.0432
20309W        W35440  11.639   2.432  13.108  0.0708 -0.1975 -0.0430
20310W        W35441  14.424  14.769  14.502  0.3545 -0.0831 -0.2577
20311W        W35442   3.355  14.886  12.898  0.1121 -0.1622 -0.2316
20312W        W35443   0.317   7.949  12.515 -0.2105  0.1035  0.1558
20313W        W35444  13.425  17.464   4.353 -0.0291  0.4508  0.1851
20314W        W35445   8.500   3.354  13.327 -0.1325 -0.0936  0.1489
20315W        W35446   4.569   8.004  13.616 -0.0260 -0.1969 -0.2710
20316W        W35447   8.043  15.451   0.309  0.2019 -0.1779 -0.1525
20317W        W35448  11.799   5.397   4.081 -0.1394 -0.2103 -0.3246
20318W        W35449   7.927   4.497   2.691 -0.3288  0.2832  0.0295
20319W        W35450   0.081   2.606   2.927 -0.2989  0.0157 -0.2480
20320W        W35451   4.987  13.310  13.787 -0.1860 -0.1464  0.3519
20321W        W35452  11.920   8.350   3.212 -0.0637  0.1361  0.4183
20322W        W35453  12.029   5.487  15.024 -0.1388  0.3461  0.2699
20323W        W35454   2.282  13.418  13.238 -0.1594  0.0849  0.0754
20324W        W35455  11.358   9.444  11.683 -0.1978  0.0531  0.0956
20325W        W35456   1.661  18.703  11.901 -0.3860 -0.3097 -0.4692
20326W        W35457   3.453   8.383   0.122 -0.0575 -0.2603 -0.1780
20327W        W35458   9.833  18.325  13.726  0.2446  0.3297  0.1232
20328W        W35459  16.762  12.839  10.437  0.2048 -0.3814  0.2170
20329W        W35460   6.892   0.240  12.458  0.3268 -0.1363  0.1155
20330W        W35461   2.889   0.280   3.554 -0.1848  0.1339  0.2145
20331W        W35462  18.247  10.782  10.501 -0.3515 -0.1002 -0.1102
20332W        W35463  14.082   3.891   4.195  0.0270  0.2055 -0.1747
20333W        W35464  11.710   0.368   0.451 -0.0962  0.4670  0.4637
20334W        W35465   0.226   3.225  12.191 -0.0357  0.1468 -0.1349
20335W        W35466   0.289  15.084   5.154  0.1597 -0.0282 -0.0004
20336W        W35467   1.336  17.348   2.606  0.2462 -0.1147 -0.0861
20337W        W35468   3.209   6.311  11.443  0.0891  0.1692  0.0273
20338W        W35469   7.218   9.152  12.186 -0.1185  0.0938 -0.0367
20339W        W35470  16.381   9.684   0.843 -0.1262  0.0444 -0.1324
20340W        W35471   3.772   1.194   2.684  0.0846  0.2470 -0.1960
20341W        W35472  18.310   4.137  14.572 -0.0444  0.0243  0.3631
20342W        W35473  16.808  16.038  13.320 -0.0628 -0.2968 -0.0573
20343W        W35474  13.392   6.981   3.405 -0.0808 -0.1123 -0.0483
20344W        W35475   9.461   0.568   4.131 -0.0406  0.1684  0.1031
20345W        W35476   5.869  18.218   3.415  0.2961 -0.1437 -0.0759
20346W        W35477   5.327   2.427   2.842  0.1603 -0.3797 -0.3673
20347W        W35478   0.567  17.745   2.630 -0.3032  0.0510 -0.2487
20348W        W35479   4.352  17.016  10.954  0.2251  0.4673 -0.2068
20349W        W35480   1.359   1.680   0.500 -0.3289  0.1745 -0.0895
20350W        W35481  17.298   3.982   4.763 -0.0802 -0.0077  0.1087
20351W        W35482  11.966  14.573  13.039  0.2432  0.0326 -0.1247
20352W        W35483   9.759  18.049   1.617  0.1273  0.0354 -0.1213
20353W        W35484   5.001   5.952  10.345 -0.0899  0.0526  0.2201
20354W        W35485  13.166   5.057  12.400  0.0703  0.0726 -0.1312
20355W        W35486   9.814   2.557   3.466 -0.0819 -0.2499 -0.4548
20356W        W35487   9.981   5.513   2.925 -0.1954  0.0335  0.0721
20357W        W35488  16.474  16.435   1.696 -0.2756 -0.0288  0.1670
20358W        W35489   1.112  12.329  11.482 -0.0052 -0.1130 -0.0435
20359W        W35490   4.726  18.105  12.775 -0.1074 -0.1488  0.0399
20360W        W35491   5.105   0.223  15.321 -0.0319  0.2179  0.4617
20361W        W35492   9.634   9.606   6.561  0.2494 -0.3811 -0.3487
20362W        W35493   8.123  11.485   3.542  0.0745  0.1594  0.1836
20363W        W35494  11.668   0.908  11.513  0.1782  0.0320 -0.0753
20364W        W35495  10.943  18.572   5.491 -0.2318  0.0409  0.0115
20365W        W35496   1.036   1.333   1.609 -0.0717  0.1826  0.1109
20366W        W35497  11.669  16.393   4.827 -0.2309  0.1637  0.0641
20367W        W35498   6.772  12.349   1.616 -0.0765 -0.1153  0.5305
20368W        W35499   7.166   7.509   4.249 -0.0233  0.1630 -0.1142
20369W        W35500   0.407  16.605   0.410 -0.1370  0.2637  0.1059
20370W        W35501  16.109   9.449  12.692 -0.0432 -0.1075 -0.2916
20371W        W35502   6.757  15.292   2.283 -0.1889 -0.0132 -0.0192
20372W        W35503   1.507  12.818  13.299  0.0087 -0.1791 -0.0714
20373W        W35504  14.124   2.503   3.083  0.2358  0.2314  0.0482
20374W        W35505  18.066  14.679   4.246  0.2881 -0.1116  0.1553
20375W        W35506   6.406   4.646   1.029  0.0330 -0.1548  0.0383
20376W        W35507  12.949  15.795  11.321  0.5036 -0.0152 -0.3769
20377W        W35508  10.464  15.465  11.714  0.1070  0.0288  0.1814
20378W        W35509  15.470   2.155  12.757  0.0981 -0.1442  0.0807
20379W        W35510   6.044   0.058  12.219  0.1303  0.2424  0.0685
20380W        W35511   4.389   1.662  12.922 -0.0877 -0.0390  0.1413
20381W        W35512   2.045  15.938   2.746 -0.2560  0.2648 -0.1607
20382W        W35513  13.453   6.830   2.967  0.0478 -0.1252 -0.3116
20383W        W35514  16.346  18.242   4.890 -0.0727  0.6630 -0.1197
20384W        W35515  10.643  17.821  10.927 -0.0561 -0.2857 -0.1707
20385W        W35516   8.017  16.973  11.418  0.2180 -0.1615 -0.1144
20386W        W35517  17.518   9.842  13.113 -0.0509  0.2365 -0.0470
20387W        W35518  16.844   2.159  15.681  0.0603 -0.4629 -0.2860
20388W        W35519  10.771   0.730   0.785  0.1408  0.0030 -0.1953
20389W        W35520   0.011  14.914  15.601 -0.3341 -0.2046  0.0845
20390W        W35521  15.000   7.506  13.221  0.2003 -0.1662  0.1971
20391W        W35522   6.492   6.317   5.692 -0.1185  0.2114  0.0523
20392W        W35523   1.563   5.328  13.775  0.2528 -0.1066 -0.0059
20393W        W35524   4.020   0.082   4.469  0.0332  0.0782  0.1548
20394W        W35525  15.528   6.396  12.201  0.0137  0.1421 -0.0149
20395W        W35526   0.996  11.038   3.567 -0.0046 -0.1686 -0.1779
20396W        W35527  15.203   5.403   3.458  0.1242 -0.1353 -0.3173
20397W        W35528  16.533   1.296  13.198 -0.0603 -0.6057 -0.3055
20398W        W35529  13.419  11.625   5.584  0.1610 -0.0753  0.0432
20399W        W35530  14.149  14.584   1.054  0.0044 -0.1358 -0.1241
20400W        W35531   0.893   4.946  10.867 -0.0343 -0.2487 -0.1432
20401W        W35532   5.797   6.094   2.348 -0.1305  0.0592 -0.0234
20402W        W35533  12.194  17.380   1.979 -0.3737  0.0332 -0.3367
20403W        W35534   3.374  10.625  11.177 -0.2634 -0.0932 -0.1549
20404W        W35535  16.993   1.479   0.955  0.0376 -0.0529  0.0762
20405W        W35536   0.982   4.647  13.428  0.1801  0.3545 -0.0798
20406W        W35537  15.333   7.837   5.142  0.0129 -0.2931 -0.0802
20407W        W35538   3.795   8.257   1.450  0.4370 -0.0471 -0.1088
20408W        W35539  17.670  16.632   0.860  0.0462  0.2275  0.0312
20409W        W35540  15.846  12.471   3.528 -0.1397  0.1306 -0.1509
20410W        W35541   8.482  15.047  13.664  0.3490 -0.0273 -0.0082
20411W        W35542  16.441   5.492   4.304  0.1454  0.0473  0.0250
20412W        W35543   7.356  17.643   2.019 -0.1270  0.4145 -0.2115
20413W        W35544  12.566  10.791  12.740 -0.2436  0.0615  0.1145
20414W        W35545   7.792   6.163   3.503  0.3044 -0.0459 -0.0380
20415W        W35546   7.411   3.815   1.633 -0.0977 -0.0398  0.1709
20416W        W35547   8.916  16.967   3.116 -0.0265 -0.0066  0.0371
20417W        W35548  12.524   3.687  10.512  0.0520  0.1537  0.0753
20418W        W35549  17.365   4.068  12.274  0.0103  0.1638 -0.0756
20419W        W35550  18.466  10.134  13.344 -0.3004  0.2167  0.1476
20420W        W35551   1.195   4.155  10.610  0.0308  0.1489  0.2234
20421W        W35552   4.336   2.289   9.859  0.3262  0.0590  0.1648
20422W        W35553   4.997  17.692  12.663  0.1630  0.0280  0.1386
20423W        W35554  16.705  14.952  14.733 -0.4384 -0.2778 -0.0665
20424W        W35555   0.354   6.193   3.530 -0.3809 -0.1672  0.0198
20425W        W35556   7.669  17.466   3.808  0.0934 -0.2925 -0.1330
20426W        W35557   9.262   8.371   0.926  0.1054 -0.0981 -0.1908
20427W        W35558  12.081   4.932  12.088 -0.1088 -0.0087  0.1062
20428W        W35559   9.546  17.699  10.552 -0.1980  0.0585  0.0424
20429W        W35560  16.839   9.674   2.338  0.3446  0.1205  0.4145
20430W        W35561  12.320   5.561   3.972  0.3456 -0.0383  0.2179
20431W        W35562   6.935   1.414  15.671  0.0752 -0.1494 -0.3688
20432W        W35563   5.905  12.439  13.532 -0.1338 -0.0155  0.1383
20433W        W35564   0.702  18.081   1.979 -0.0934 -0.0903  0.1643
20434W        W35565   2.191  16.404   3.910 -0.0977  0.0442 -0.0273
20435W        W35566   7.440   6.455  15.408  0.0677 -0.0011 -0.0359
20436W        W35567   4.654  13.744  11.641 -0.1135  0.0727 -0.3536
20437W        W35568   6.879  12.853  14.500  0.1667  0.0620 -0.1137
20438W        W35569   0.242   7.236  12.871 -0.0685 -0.2010  0.0886
20439W        W35570  10.226   9.862   4.912 -0.1900 -0.1144 -0.0238
20440W        W35571   1.339  10.665   1.248  0.0043 -0.3047 -0.0449
20441W        W35572  18.643  12.243  14.186 -0.0292 -0.0536 -0.0529
20442W        W35573  10.046   4.080   9.979  0.1051  0.0158  0.4794
20443W        W35574  14.218  18.627   2.126 -0.3533 -0.2437 -0.0633
20444W        W35575   3.089  15.205  11.416 -0.1031  0.2037  0.0845
20445W        W35576  12.503  18.205   3.015 -0.0143 -0.1509 -0.0365
20446W        W35577  10.291   0.427  11.624  0.2163 -0.0645  0.1837
20447W        W35578  12.206  11.981   3.249  0.1381 -0.4804 -0.2311
20448W        W35579   6.541  11.681  12.216 -0.0615  0.5806  0.1528
20449W        W35580  17.342  15.957   3.555  0.0043  0.1284  0.1286
20450W        W35581   5.899   4.216   2.806 -0.3482  0.4180  0.3262
20451W        W35582  13.466   1.387   5.584  0.0515 -0.0112  0.1043
20452W        W35583  10.154   8.528   0.920 -0.1155  0.4635 -0.0008
20453W        W35584   1.715   8.892  14.583 -0.1519 -0.1405 -0.1338
20454W        W35585   5.061   4.872   1.223  0.2271  0.2243  0.0264
20455W        W35586  12.846  11.246  13.515  0.1194 -0.0635 -0.2000
20456W        W35587  12.894   8.394  10.721 -0.1157 -0.0039  0.2020
20457W        W35588  13.339  13.177  11.187 -0.2105  0.1900 -0.1679
20458W        W35589   4.153   1.997  10.782 -0.2795 -0.3375  0.0940
20459W        W35590  15.631  16.311  14.133  0.1853  0.0775  0.0842
20460W        W35591   9.575  16.330  10.563  0.2310 -0.0292  0.3150
20461W        W35592  12.533   8.854  12.175 -0.1422  0.0978 -0.0424
20462W        W35593  17.810  12.792  10.961 -0.1105 -0.2369  0.1746
20463W        W35594  14.321   8.741  10.799  0.0302  0.0010 -0.0113
20464W        W35595  12.939  17.033   3.568  0.0531  0.4379 -0.1731
20465W        W35596  13.432   7.551   4.953  0.2836  0.0452  0.3300
20466W        W35597   8.516  15.631   5.705 -0.1752 -0.1448  0.3201
20467W        W35598   4.908   6.338   2.186  0.2578  0.1346  0.1870
20468W        W35599  14.485   0.008   0.860  0.0690 -0.2194  0.0454
20469W        W35600   4.264   1.945   4.073 -0.0651  0.1408 -0.1768
20470W        W35601  11.943  15.261   3.546  0.3438 -0.0229  0.0472
20471W        W35602   8.728   1.912  14.469 -0.1157 -0.0538 -0.1601
20472W        W35603   3.400   6.272  15.422  0.2616  0.0738 -0.0004
20473W        W35604   2.241  15.426  14.269 -0.1164  0.4622  0.0860
20474W        W35605   8.237  17.293   1.786 -0.5960  0.1983 -0.0585
20475W        W35606  15.961   0.861   2.417 -0.3992  0.2383  0.2855
20476W        W35607  16.653   3.595  10.980  0.0141 -0.4485  0.2780
20477W        W35608   3.294   3.632  15.547 -0.0957  0.0086 -0.1273
20478W        W35609   6.615   5.750   5.017  0.1135  0.3816  0.0491
20479W        W35610  14.444  18.198  10.387  0.1248 -0.2034  0.0908
20480W        W35611  16.490  11.961  11.388  0.0197  0.1126 -0.1103
20481W        W35612   0.363  16.084   2.293 -0.1897  0.0562  0.0996
20482W        W35613   8.133   9.944  11.494 -0.2259 -0.0236  0.0109
20483W        W35614   4.972   6.500  12.760  0.1154  0.2418 -0.0926
20484W        W35615  11.990  17.651   4.344 -0.0815 -0.1099  0.0588
20485W        W35616   5.205  13.002   0.704 -0.3165  0.1127  0.0051
20486W        W35617  17.757  16.619   4.525  0.0373 -0.2428 -0.0520
20487W        W35618  12.305  16.134  13.414  0.1035 -0.0207 -0.1585
20488W        W35619   3.937   1.863  12.090 -0.1029  0.1547  0.0477
20489W        W35620  10.475   2.441   5.530 -0.1553 -0.4043 -0.2569
20490W        W35621   7.272  14.445   2.443 -0.2893 -0.0882  0.0465
20491W        W35622   8.564   4.995  10.772 -0.0194  0.2070 -0.4019
20492W        W35623  12.139   1.601   3.783 -0.2125  0.1117  0.0444
20493W        W35624   6.225   4.941   2.880 -0.2009 -0.0935 -0.1725
20494W        W35625  12.812   6.926   1.760 -0.0850 -0.1484 -0.2885
20495W        W35626   1.778   0.649  11.119 -0.1883  0.0514  0.2654
20496W        W35627   7.316   3.041   1.641  0.2399 -0.0393  0.2685
20497W        W35628   8.162  12.011   5.784  0.0455  0.2391 -0.2996
20498W        W35629   5.932  12.878  11.858 -0.1936  0.1073 -0.2493
20499W        W35630   8.314  18.197   3.984 -0.0733 -0.0944  0.0638
20500W        W35631   5.128   2.582  10.504 -0.2134  0.0983 -0.2026
20501W        W35632   0.099   3.369   1.247 -0.1571 -0.1207  0.0301
20502W        W35633  14.368   9.133  13.127  0.2318 -0.0823 -0.0893
20503W        W35634   3.821   5.274  10.635  0.0618  0.0110 -0.3536
20504W        W35635  11.723  10.220  11.545 -0.2367  0.0476 -0.0808
20505W        W35636  18.441   9.475  14.131  0.2021  0.0753 -0.1536
20506W        W35637   0.604  13.571   2.408 -0.0432 -0.2842 -0.1580
20507W        W35638   3.448  13.336   1.071  0.1206  0.3073  0.1348
20508W        W35639   2.173  17.864  11.437 -0.1340 -0.4000  0.1277
20509W        W35640   0.525  16.565   4.937  0.1678  0.0445  0.0037
20510W        W35641   6.305   3.614   4.748  0.0841  0.1513  0.0563
20511W        W35642  18.056  16.042   3.908 -0.1031  0.2775 -0.1368
20512W        W35643  16.333   7.149   2.179  0.1430 -0.0363 -0.3328
20513W        W35644  18.687  17.242   4.615 -0.1527  0.2884 -0.4159
20514W        W35645   0.774   3.322  13.306 -0.5425 -0.0381  0.1189
20515W        W35646  17.806  12.211  10.349  0.2838 -0.1998  0.5313
20516W        W35647  16.521   8.269   1.308 -0.2525 -0.1791 -0.2108
20517W        W35648  14.582   5.437   2.641  0.1108 -0.1203 -0.1800
20518W        W35649  18.486   9.652  11.572 -0.1933 -0.2098 -0.1562
20519W        W35650   2.148  16.478  11.559  0.2512 -0.1401  0.4225
20520W        W35651  13.372   7.390  14.772 -0.3240  0.0922  0.0338
20521W        W35652  17.207   4.475  15.212 -0.2487  0.0541 -0.0473
20522W        W35653   9.664   0.407   3.471 -0.1350  0.3394  0.1428
20523W        W35654  14.531  18.021   1.422 -0.4352  0.2184 -0.2132
20524W        W35655   0.456   8.685  13.324  0.1128  0.0196  0.0690
20525W        W35656   6.266  15.494  10.367  0.2148 -0.0857  0.2753
20526W        W35657  10.079  14.049  13.023  0.2314  0.0139  0.1699
20527W        W35658   2.332   4.136   3.675  0.1500 -0.0265  0.0929
20528W        W35659   6.515  17.769   1.706 -0.1421  0.0740 -0.0067
20529W        W35660   9.560   7.053  12.436  0.2267 -0.1593  0.0092
20530W        W35661   1.265   5.564   4.719  0.3853 -0.2078 -0.0247
20531W        W35662   3.455   1.037   3.729 -0.2270 -0.1685  0.0234
20532W        W35663  15.541   2.768   4.362 -0.4021  0.3995  0.4112
20533W        W35664   3.704  14.163  10.579 -0.1818  0.1446  0.2861
20534W        W35665   8.555   4.965  10.242 -0.0170 -0.3749  0.3475
20535W        W35666   4.474   1.194  13.864  0.1657 -0.1530  0.1693
20536W        W35667  10.222   1.575  13.805 -0.2680  0.3375 -0.2543
20537W        W35668  17.014   2.943   4.157  0.1242 -0.0327  0.0268
20538W        W35669   6.750  13.789   3.551 -0.2143 -0.1118 -0.3547
20539W        W35670  11.445   7.708   5.138 -0.0823 -0.2795  0.1112
20540W        W35671   2.910  17.867  13.490 -0.0381  0.0758 -0.2168
20541W        W35672   1.321   4.279  14.240  0.0047  0.0027  0.0866
20542W        W35673   4.238   6.825   1.008  0.0619 -0.2463 -0.1679
20543W        W35674  14.279  18.117   0.038  0.1750  0.1938  0.1960
20544W        W35675  11.657   7.999   1.941  0.0628 -0.0629 -0.1458
20545W        W35676   3.259   3.534   4.125  0.2465 -0.3791 -0.1836
20546W        W35677  11.033   1.810   1.972  0.0155  0.0888 -0.0269
20547W        W35678  11.174  10.492   2.501  0.1449 -0.1521  0.0128
20548W        W35679  14.268   4.022   9.852  0.1154  0.0406  0.0464
20549W        W35680  10.493   4.073  14.338  0.0638  0.1290  0.4523
20550W        W35681  15.974   4.955   2.240 -0.0376  0.1314  0.1425
20551W        W35682  11.572  15.728  14.674  0.3213 -0.1722 -0.0872
20552W        W35683  14.507  13.256  13.923 -0.2412 -0.2124  0.0324
20553W        W35684  16.869   3.809   5.044 -0.1865 -0.1212  0.3516
20554W        W35685   7.211   4.605  15.128 -0.0449 -0.4144  0.1719
20555W        W35686   0.879   8.838  13.628 -0.4233  0.4651 -0.2292
20556W        W35687   1.517   9.451  10.958 -0.1201  0.1756 -0.0769
20557W        W35688   0.704  16.018   4.242  0.1395 -0.1758 -0.1047
20558W        W35689   4.118  17.994   5.540  0.5042  0.2802  0.3421
20559W        W35690   2.449  11.894  14.287 -0.0965 -0.3191 -0.0471
20560W        W35691  14.838   0.418   4.132 -0.0513  0.1767 -0.0397
20561W        W35692  11.116   4.507  15.009  0.0474  0.0301  0.0143
20562W        W35693  18.241  11.239  12.358  0.0321 -0.1268 -0.0755
20563W        W35694   2.977   8.577   0.651 -0.1271  0.1331 -0.1546
20564W        W35695  13.221   0.122  11.625  0.0173  0.0611  0.2013
20565W        W35696  15.038  12.852  15.096  0.2201 -0.1746  0.1988
20566W        W35697   0.683   2.543  11.753  0.0016 -0.2429  0.0976
20567W        W35698   9.650  10.668  10.939 -0.4505  0.0129 -0.1239
20568W        W35699   8.870  14.034  12.305 -0.0238  0.1456 -0.0102
20569W        W35700  15.151   9.179  12.399 -0.1088  0.1836  0.3427
20570W        W35701   8.706  16.161   0.809 -0.0078  0.2301 -0.0583
20571W        W35702  14.553   7.085   4.230  0.2318 -0.2963  0.0088
20572W        W35703  11.740   1.153  13.301 -0.3312 -0.1656  0.2273
20573W        W35704  16.832  11.002   5.230 -0.3706 -0.0967  0.0259
20574W        W35705   9.534  18.209   1.197  0.4416  0.2393  0.1225
20575W        W35706  18.062  12.778   1.663  0.3189 -0.3702  0.2013
20576W        W35707   6.634   7.033  10.075  0.2909 -0.1523 -0.4375
20577W        W35708   9.040   9.993   1.530  0.1138 -0.0773 -0.0416
20578W        W35709   1.327   8.226   0.937  0.1219  0.0179  0.1697
20579W        W35710   1.796  12.227   2.534  0.0249 -0.0164  0.1024
20580W        W35711  14.460   8.319   3.810 -0.1064  0.2611  0.0192
20581W        W35712   4.249  15.703   4.152 -0.1722  0.2104 -0.1555
20582W        W35713   0.698  12.699  12.223  0.1241  0.3713  0.1204
20583W        W35714  14.640   4.766  11.826 -0.2824 -0.1783 -0.1780
20584W        W35715   0.201  18.123   1.982  0.2253  0.1536 -0.0475
20585W        W35716   0.203  18.518   1.648  0.0121 -0.2055  0.1390
20586W        W35717   2.242   3.844  14.154 -0.4278 -0.3215  0.0816
20587W        W35718   4.614   1.308   0.550 -0.1695 -0.0289  0.0323
20588W        W35719  11.972   7.923  13.801  0.1354  0.0944 -0.1128
20589W        W35720   1.779   9.934  11.243  0.1322 -0.5378 -0.1047
20590W        W35721   7.851   9.857  14.665 -0.0334  0.1258 -0.2949
20591W        W35722  16.332   4.892   1.445 -0.0789 -0.0060  0.1021
20592W        W35723  11.168   2.708   0.597  0.0023  0.0016 -0.0725
20593W        W35724  17.633  14.515  10.714  0.0680  0.4028  0.1410
20594W        W35725   5.874  18.219   2.822  0.1449  0.3466  0.1286
20595W        W35726   1.367  13.225   1.666 -0.0354  0.0125  0.1986
20596W        W35727   1.816  17.978  11.017 -0.2283 -0.0291  0.1158
20597W        W35728   0.212   2.847  12.534 -0.0325  0.1249 -0.3705
20598W        W35729   6.481  16.155  11.053  0.1499  0.0840 -0.1816
20599W        W35730   5.931   1.285   4.834 -0.2162  0.1955 -0.0422
20600W        W35731   6.648  15.075  12.395 -0.1008  0.0981 -0.1566
20601W        W35732  13.554  17.079   2.594 -0.1016  0.1208  0.2326
20602W        W35733  12.553  11.460   5.144 -0.0175 -0.0231 -0.0760
20603W        W35734   8.364   9.098   1.396 -0.1160  0.1292 -0.1180
20604W        W35735   5.611  10.566  11.781 -0.2176 -0.1538  0.0705
20605W        W35736  15.250  16.865   1.894 -0.0719 -0.0388 -0.0898
20606W        W35737   6.912  11.225  14.818 -0.0816  0.0081 -0.4997
20607W        W35738   8.721  12.916  15.598  0.2099 -0.2221 -0.0733
20608W        W35739  13.812  12.193  15.396 -0.1190 -0.2064  0.0731
20609W        W35740  13.372  12.556  14.240 -0.0560  0.0619  0.0838
20610W        W35741  13.888   2.642   5.344  0.2835  0.0485  0.1474
20611W        W35742   4.707   1.067  14.320 -0.0420  0.0267  0.0842
20612W        W35743   9.628  16.337   4.102 -0.2188 -0.2875  0.1862
20613W        W35744  14.946   0.114  14.045  0.1556  0.2576  0.1327
20614W        W35745  13.922  14.852  15.256  0.1604 -0.4020  0.0887
20615W        W35746   3.759   3.687  15.712  0.4859 -0.0749 -0.0403
20616W        W35747  13.675   5.727  11.156 -0.1022 -0.0705  0.3658
20617W        W35748  16.974   2.642   2.367 -0.1265  0.0405 -0.2062
20618W        W35749  16.863  18.081   4.134  0.1185  0.0672 -0.1251
20619W        W35750  10.958  10.203   2.839 -0.0497 -0.1418 -0.4808
20620W        W35751   1.604   8.443   0.566  0.0329  0.1379 -0.0318
20621W        W35752   4.416  18.331  11.144 -0.0286  0.0290  0.1126
20622W        W35753   8.471  10.581   2.693 -0.0175 -0.3214  0.3185
20623W        W35754   2.083   6.769  13.940  0.0634 -0.0680  0.0726
20624W        W35755  14.001  10.198   4.003  0.1038  0.4402  0.0829
20625W        W35756  18.542   3.993   0.181 -0.0550  0.2316  0.5566
20626W        W35757   4.529   5.433   1.785 -0.4389  0.1736  0.0735
20627W        W35758  17.091   5.545   0.573 -0.0653 -0.2440 -0.2500
20628W        W35759   1.920  18.111  13.434 -0.1879  0.0858  0.1527
20629W        W35760  12.536   6.475  13.456 -0.0824  0.0925 -0.0995
20630W        W35761   8.697   1.317  15.169 -0.1560  0.3440  0.1228
20631W        W35762  18.334   0.867  13.548  0.1958  0.2594  0.0652
20632W        W35763   5.522  12.720   2.590 -0.1740 -0.0606 -0.1076
20633W        W35764   2.248  11.700  10.895 -0.2480  0.0206  0.3254
20634W        W35765   3.218   1.711  11.067 -0.2205  0.0910 -0.2982
20635W        W35766  10.137   2.485  15.503  0.1145  0.2684 -0.0096
20636W        W35767  16.811  13.967   5.372 -0.1597  0.1281  0.0479
20637W        W35768  18.647   6.958  14.027  0.0226 -0.0336  0.2108
20638W        W35769   9.779   1.571  14.428  0.0932 -0.0770 -0.1457
20639W        W35770  12.739   9.271  15.396  0.0592 -0.2450 -0.0748
20640W        W35771  11.187  10.666   2.991  0.0117  0.0192  0.0994
20641W        W35772   3.140   4.534  11.492 -0.1590 -0.3176 -0.1395
20642W        W35773   0.168  14.849   1.667  0.3534  0.0791  0.0016
20643W        W35774  16.852  16.898   4.364 -0.4664 -0.0735 -0.0706
20644W        W35775  12.627   4.128   2.324 -0.3109  0.3189 -0.0527
20645W        W35776   0.687  16.892   0.048 -0.1963 -0.1782 -0.1945
20646W        W35777  11.623   4.551  11.495 -0.0719 -0.1185 -0.0456
20647W        W35778   1.952  12.954  14.276  0.0266  0.4584  0.3496
20648W        W35779   7.796  18.246   2.821  0.0279 -0.3482 -0.0300
20649W        W35780   5.094  17.186   0.090  0.3235  0.2005 -0.2086
20650W        W35781  13.491   7.407   3.644  0.0246 -0.2839  0.1072
20651W        W35782   7.072   7.544   1.803 -0.1062  0.1773 -0.2887
20652W        W35783   6.672   7.199  15.557  0.0339  0.2323 -0.3071
20653W        W35784   3.241   4.307  11.926 -0.0198 -0.3611  0.0242
20654W        W35785  17.472  12.627   3.515  0.0298  0.0379 -0.2458
20655W        W35786   9.171   4.171   5.079  0.0563 -0.0885  0.3293
20656W        W35787   7.444   0.456   5.378  0.1205  0.0713  0.2708
20657W        W35788  12.623  15.049  10.977 -0.2812  0.1677 -0.0658
20658W        W35789  16.719  14.266  15.286  0.2552  0.1851  0.1567
20659W        W35790   8.637   9.025   3.484 -0.2888  0.0668 -0.0927
20660W        W35791  17.350   7.307   3.778  0.0734  0.2024  0.3185
20661W        W35792   8.112  17.380   4.154 -0.0301  0.0863  0.3858
20662W        W35793  18.047  14.837  10.723 -0.0886 -0.2473  0.2428
20663W        W35794   3.291   2.659   1.464 -0.1749 -0.0645 -0.3316
20664W        W35795   6.703  17.449  14.833  0.0667 -0.1711  0.0661
20665W        W35796  10.502   6.756  15.197 -0.0566 -0.2830  0.0613
20666W        W35797   4.622  14.549  14.100 -0.2332  0.2089 -0.0747
20667W        W35798   0.595  11.789  12.079 -0.0953  0.0477  0.2462
20668W        W35799   3.161   5.131   1.948  0.1638 -0.1107  0.1132
20669W        W35800  11.806   6.754   3.646  0.0778  0.1153  0.1648
20670W        W35801   4.580   3.373   0.371 -0.1450 -0.0759  0.0532
20671W        W35802  16.309   7.657  15.310  0.2402  0.2284 -0.2543
20672W        W35803   3.064  10.065  14.764 -0.0155 -0.3559 -0.3474
20673W        W35804   5.535  17.872  14.994 -0.2064  0.1973 -0.0727
20674W        W35805   5.516  10.472   4.922  0.0788  0.0664  0.0645
20675W        W35806   2.507  13.661  10.922  0.0760 -0.1297 -0.1458
20676W        W35807  13.421  14.657  11.385 -0.2652  0.0741  0.0238
20677W        W35808   4.488  13.698  11.162  0.0090  0.2531  0.1061
20678W        W35809  12.246  15.420   2.576  0.2927 -0.1066  0.0491
20679W        W35810  10.639   7.949   4.030  0.0988  0.0920  0.0209
20680W        W35811  17.644   9.584   0.561  0.0998 -0.5369  0.0301
20681W        W35812  14.812  16.596   4.981 -0.3232 -0.0051 -0.0928
20682W        W35813   0.505  15.837   1.240 -0.3849  0.4105 -0.0818
20683W        W35814   0.948   6.403  11.120 -0.0062  0.0516 -0.0834
20684W        W35815  11.075  15.471  15.423  0.0712 -0.3540  0.0227
20685W        W35816   6.701  17.372   3.036  0.0431  0.1174 -0.0369
20686W        W35817   6.951   0.709   3.584 -0.0271  0.1288  0.0064
20687W        W35818   1.008   6.742  13.808  0.1557  0.0063 -0.3325
20688W        W35819   4.466   7.286  11.194  0.1875 -0.1473  0.0526
20689W        W35820   5.353   4.368   9.857 -0.0703 -0.1911  0.0395
20690W        W35821   4.161   3.209   5.727 -0.0747  0.2904 -0.3597
20691W        W35822  10.564   3.809  15.310  0.0651  0.4571 -0.3808
20692W        W35823   5.515  13.375  14.203 -0.0742 -0.3051 -0.0580
20693W        W35824  12.777   3.987  10.873 -0.3443  0.1397 -0.2663
20694W        W35825   1.473  17.872   1.368 -0.0710  0.1250  0.0788
20695W        W35826  11.716  11.468  15.132 -0.0535 -0.0695 -0.0437
20696W        W35827  10.419  11.046   2.537  0.0817  0.1496  0.1982
20697W        W35828  16.131  17.514   4.175 -0.0669 -0.0165 -0.1488
20698W        W35829   2.582  16.158  11.426  0.1427 -0.2280 -0.0991
20699W        W35830  15.206  17.148   0.487  0.2415 -0.1106  0.2850
20700W        W35831   0.017  14.360  15.620 -0.1370  0.1930 -0.2095
20701W        W35832   0.717   6.394   5.008 -0.2155 -0.2720 -0.1056
20702W        W35833  12.596   4.270   2.842 -0.0121  0.1877  0.1133
20703W        W35834  12.469  14.369  14.905 -0.0213 -0.2463  0.0219
20704W        W35835   9.579  13.070   3.787 -0.3454 -0.2181  0.1348
20705W        W35836   9.706   5.722  14.175 -0.2855 -0.0225  0.1464
20706W        W35837   2.652  14.272   2.834  0.0973 -0.0735 -0.0489
20707W        W35838   4.836   7.727   5.130  0.0524 -0.1204  0.4324
20708W        W35839   3.548   9.186   0.239 -0.2105 -0.1909  0.1996
20709W        W35840  12.878   5.969   1.262  0.1883 -0.4489 -0.0469
20710W        W35841  13.220   3.254   4.919 -0.2220 -0.2141  0.2378
20711W        W35842  12.370   6.694   3.734  0.4273 -0.3060 -0.0755
20712W        W35843   3.533   0.473  15.636  0.1391 -0.1768  0.0159
20713W        W35844   2.405  16.108  11.918 -0.0686 -0.0312  0.1732
20714W        W35845   2.347  16.135  12.496  0.0900 -0.1817  0.0034
20715W        W35846   2.008   1.075  15.241 -0.1045  0.0980  0.1695
20716W        W35847  17.011  11.900   5.531 -0.0817  0.1317 -0.0176
20717W        W35848   3.055   9.758   1.919  0.0530 -0.0010 -0.2752
20718W        W35849  15.639   6.027   0.826  0.1047 -0.0721 -0.1295
20719W        W35850   3.545  16.672  11.556  0.0265  0.4928 -0.1164
20720W        W35851   4.254  17.111  15.256  0.3662  0.4666 -0.3302
20721W        W35852  16.864   1.712   5.290  0.0328 -0.2978 -0.0616
20722W        W35853  15.650  17.452   0.633  0.0532  0.2341  0.0880
20723W        W35854   7.289  11.693   3.835 -0.0066 -0.1822  0.0384
20724W        W35855   4.787  11.252   3.367  0.1554 -0.1118  0.1972
20725W        W35856  14.201   9.747  12.435  0.0512  0.4136  0.2683
20726W        W35857   5.604  15.417   0.483 -0.0126 -0.1934 -0.1639
20727W        W35858  17.342   9.616   1.141 -0.0760  0.0284  0.0117
20728W        W35859   1.804   2.812  14.981  0.1667 -0.2702  0.0537
20729W        W35860   3.069  15.227   2.252 -0.1906 -0.0193  0.0664
20730W        W35861  13.636  14.269  15.098 -0.3131 -0.0795 -0.0044
20731W        W35862   1.829  11.925   5.668  0.1102  0.1015 -0.1915
20732W        W35863   5.868  11.396   1.345 -0.0302 -0.1486  0.5031
20733W        W35864  17.880   7.321  10.612 -0.4229  0.1292  0.1863
20734W        W35865  12.950  11.263   3.564 -0.1012 -0.0033 -0.2474
20735W        W35866  13.400  12.970  13.229 -0.2283 -0.1570 -0.1322
20736W        W35867  11.483  12.553   0.440 -0.1606  0.2038  0.2022
20737W        W35868  11.894   4.931  14.915  0.1110  0.3405 -0.2376
20738W        W35869   1.426  18.183  11.440 -0.0746  0.0465  0.0178
20739W        W35870   6.664   8.618   0.369 -0.2485 -0.2782 -0.1641
20740W        W35871   8.049   1.563  13.855  0.0136  0.0741 -0.0671
20741W        W35872   7.978  13.497   1.763  0.0272  0.2084 -0.3191
20742W        W35873   2.369   2.588  15.309 -0.4060 -0.2240 -0.3519
20743W        W35874  16.455   4.897   3.596  0.1263  0.0149 -0.0550
20744W        W35875   6.073  16.202  11.476  0.2457 -0.1200  0.2508
20745W        W35876  15.281  11.246   4.015 -0.0181  0.0841  0.2213
20746W        W35877  13.048  16.793  12.326 -0.1504 -0.3891 -0.0485
20747W        W35878  14.387   5.754   3.667  0.0296  0.1483  0.0230
20748W        W35879   8.218   8.416  13.579 -0.2711  0.3104 -0.0219
20749W        W35880  16.665  12.738  11.775 -0.4105  0.1599  0.1093
20750W        W35881  16.294   0.336  13.561 -0.2186 -0.1333 -0.3186
20751W        W35882  16.033   0.162  11.648 -0.1801 -0.1184  0.0324
20752W        W35883  14.215  15.871  12.398  0.1005  0.0401 -0.0250
20753W        W35884   8.973   0.492   4.452 -0.3297  0.1122 -0.0995
20754W        W35885   0.382   9.347  14.244  0.1020  0.3108  0.3920
20755W        W35886   2.421  14.712   2.712 -0.2327  0.0200  0.0841
20756W        W35887  12.250  11.357  10.716  0.0307  0.1660 -0.0112
20757W        W35888   3.128   1.761  12.068 -0.1385  0.2066 -0.2433
20758W        W35889  13.728  13.269   4.032 -0.0678  0.0080 -0.3340
20759W        W35890  16.161  15.657   1.281  0.0045 -0.2036  0.2104
20760W        W35891  12.060   6.305   3.529 -0.0715  0.1753  0.2867
20761W        W35892  16.942   1.239  11.999  0.3291 -0.1132 -0.0637
20762W        W35893  13.866  11.287   5.188  0.1904  0.0050 -0.0785
20763W        W35894  12.052   4.541  13.905 -0.3501 -0.0764 -0.0585
20764W        W35895  12.967   9.184  11.434 -0.3226 -0.0939  0.1066
20765W        W35896   3.322   8.808   4.871 -0.0451 -0.0332  0.1503
20766W        W35897  15.154  18.510  11.088  0.0089 -0.1214 -0.0352
20767W        W35898   2.514  18.375   2.106  0.3528  0.0898  0.4213
20768W        W35899  11.764   4.323   2.124 -0.0520 -0.0268  0.0063
20769W        W35900  15.217  14.110  13.363 -0.2200 -0.1890  0.0953
20770W        W35901  13.025   4.618  11.682 -0.0169  0.2181  0.1844
20771W        W35902   3.921  16.408  12.185  0.1484  0.2026  0.4276
20772W        W35903  17.617   6.820   3.970  0.2445  0.1017  0.3075
20773W        W35904   3.525   3.150   5.172 -0.0992 -0.1567  0.0173
20774W        W35905   9.213   0.973  14.942 -0.1560  0.1110 -0.1024
20775W        W35906  11.570  13.749   1.939  0.1774 -0.0354  0.1450
20776W        W35907   3.710   8.182   4.331  0.1158  0.1511 -0.2319
20777W        W35908  16.936   3.212   0.800  0.3524 -0.2737 -0.0116
20778W        W35909   3.171   7.945   1.653 -0.1032 -0.2427 -0.3306
20779W        W35910  14.625  14.085   1.629 -0.2645  0.0768 -0.0155
20780W        W35911   8.604  17.326   4.036  0.0892 -0.1249 -0.4911
20781W        W35912   2.480  15.277  11.007 -0.2499 -0.0967 -0.0627
20782W        W35913  18.258  15.245  14.384 -0.0200  0.2713  0.1833
20783W        W35914   1.633   3.847  14.204 -0.0499  0.1177 -0.0321
20784W        W35915  18.448  12.768  14.368  0.5490 -0.1042  0.0324
20785W        W35916   5.927  16.678  10.528  0.1530 -0.0161  0.0526
20786W        W35917   9.032  17.690  15.736  0.3298  0.0072  0.1573
20787W        W35918   2.535  17.535  13.175 -0.3946  0.0775  0.0060
20788W        W35919   0.098   2.694   3.638  0.1795  0.2439  0.0425
20789W        W35920   3.127  17.348   2.623  0.0489 -0.0173 -0.0853
20790W        W35921  11.678   2.252   0.828  0.0492  0.0180 -0.1683
20791W        W35922   4.301  12.358  10.676  0.3523 -0.2499  0.0218
20792W        W35923   1.309  12.322   3.357  0.0693  0.3014  0.2761
20793W        W35924  13.500  11.723   0.106  0.2702 -0.0853  0.0854
20794W        W35925  18.332   4.641  13.225  0.2464 -0.0697  0.1759
20795W        W35926  16.603  11.180   3.850 -0.0878 -0.0488  0.1413
20796W        W35927   4.108   4.553  13.993 -0.1841 -0.2355  0.0171
20797W        W35928   4.741  13.603   0.805  0.0807  0.0107  0.2495
20798W        W35929  11.585   7.241   3.802 -0.0742  0.2296  0.2456
20799W        W35930  10.562   0.287  10.233 -0.2284 -0.1244 -0.0693
20800W        W35931   2.464   2.332  14.683  0.0457  0.1572 -0.1848
20801W        W35932  18.578   2.903   3.329 -0.3211 -0.0734 -0.1820
20802W        W35933   6.630   9.301  11.437 -0.1988 -0.2440  0.0578
20803W        W35934   2.600   6.925   0.307 -0.2997  0.2820 -0.2304
20804W        W35935  10.058  13.269   1.833  0.0015  0.2745 -0.1979
20805W        W35936   2.325   8.107   1.546 -0.3386  0.1384 -0.1531
20806W        W35937   3.525   8.022   2.064  0.0608  0.1321 -0.0587
20807W        W35938  11.058  17.943  11.257 -0.0040 -0.0143 -0.0368
20808W        W35939   2.052  14.838   2.068  0.1899  0.1110  0.5556
20809W        W35940  13.803  12.459   3.938 -0.0380  0.1007  0.1552
20810W        W35941   1.117  17.098  13.531  0.1615 -0.0621 -0.0241
20811W        W35942   4.831   3.035   0.924  0.3099 -0.1680 -0.2908
20812W        W35943   3.929   8.929  13.153 -0.0512 -0.1029 -0.2801
20813W        W35944  15.480   1.677  12.721 -0.0945 -0.1143  0.1682
20814W        W35945  17.406   0.231   0.116 -0.1232 -0.3613 -0.0986
20815W        W35946  15.409  14.794   4.979 -0.4164 -0.3709 -0.0922
20816W        W35947   5.092   6.828   3.267  0.1876  0.0203 -0.0687
20817W        W35948   8.959   3.032   3.762 -0.4426 -0.3896 -0.0300
20818W        W35949   9.388  15.267  15.747  0.0286 -0.1219 -0.1555
20819W        W35950   0.997  15.875  14.226  0.2149 -0.0122  0.0565
20820W        W35951  13.656   6.969  14.961  0.2416  0.1781  0.4214
20821W        W35952   4.620   4.037   5.022  0.3856  0.3511  0.1675
20822W        W35953  16.016  16.277  11.476  0.0073 -0.1695  0.1431
20823W        W35954   7.732  12.007   2.813 -0.1064 -0.0092  0.0303
20824W        W35955   2.334  18.053  10.822 -0.3874 -0.0482 -0.0918
20825W        W35956   7.413   2.382   2.445 -0.0431  0.2433  0.0735
20826W        W35957  17.717  15.111  12.663 -0.0442  0.1635  0.0743
20827W        W35958  11.700   0.284  11.479  0.2409  0.3732  0.3340
20828W        W35959  16.293  18.117   4.329 -0.1559 -0.3107  0.0275
20829W        W35960  12.041   4.499  11.890 -0.3769  0.4188 -0.0726
20830W        W35961   6.817   5.127   2.797 -0.4140  0.1191 -0.2587
20831W        W35962   0.269   1.966  13.142 -0.0361  0.1790 -0.2611
20832W        W35963   2.687   1.082  11.108  0.1003 -0.2911  0.0301
20833W        W35964   6.097   6.973  12.516 -0.0387 -0.0538 -0.1851
20834W        W35965   1.954  11.286  13.623  0.3136 -0.1063 -0.2027
20835W        W35966   2.203   3.477  15.697  0.1700 -0.2737  0.1126
20836W        W35967   1.509  11.535   1.967 -0.4393  0.1819  0.1688
20837W        W35968  16.673  17.533   1.004  0.0303 -0.0881 -0.3218
20838W        W35969  10.373   1.398  13.320  0.2897  0.0155 -0.0914
20839W        W35970   6.799  18.183   2.488  0.2023  0.0353 -0.0592
20840W        W35971   2.669   6.880   0.822 -0.1565 -0.1242 -0.0742
20841W        W35972   4.358  15.485  10.816  0.1149 -0.1709  0.1575
20842W        W35973   9.374   4.609   0.880 -0.0048 -0.0422  0.2469
20843W        W35974   9.366   0.323   9.593  0.0998 -0.1948 -0.2171
20844W        W35975  15.093  11.365   1.603 -0.2125 -0.0215  0.3414
20845W        W35976   9.387   9.961  10.605  0.1959 -0.1275  0.1657
20846W        W35977   5.410   5.708   3.553 -0.4029 -0.1116 -0.0372
20847W        W35978  18.680   8.699   0.302  0.3843 -0.0165  0.2134
20848W        W35979   7.897  13.979   0.811 -0.3209 -0.0522  0.2133
20849W        W35980  13.826  13.022  15.419  0.1509 -0.1137  0.0721
20850W        W35981   0.502   4.461   5.673 -0.3227  0.0061  0.0140
20851W        W35982  14.618   3.845   2.821  0.5143 -0.1197 -0.1889
20852W        W35983  14.233  15.820  15.205 -0.0620 -0.1742 -0.0855
20853W        W35984   8.273  11.461   5.565 -0.2040  0.1361  0.2918
20854W        W35985   0.828  14.975   5.365 -0.1868 -0.1867 -0.0009
20855W        W35986  18.577   0.076   1.485 -0.0029 -0.1640 -0.2161
20856W        W35987  18.495  18.535  15.438 -0.0257  0.3096 -0.0414
20857W        W35988  18.737  12.312  11.943  0.0918 -0.3111  0.1611
20858W        W35989  11.797   6.662  12.331  0.1342  0.0144  0.2001
20859W        W35990   0.987  11.331  14.708 -0.5285 -0.5861 -0.2786
20860W        W35991   9.626   9.803   0.252  0.2389  0.1425  0.2657
20861W        W35992   4.500  16.373   2.556  0.0515 -0.1401 -0.3128
20862W        W35993  15.481   0.409   0.661  0.0811  0.2502 -0.1027
20863W        W35994  17.289   2.291  13.546  0.2605  0.0342  0.1641
20864W        W35995   8.649   1.952  13.121  0.0035 -0.0650  0.1612
20865W        W35996  17.511   6.314   1.183  0.0075  0.1232 -0.2486
20866W        W35997   0.909  10.719  15.386 -0.3261  0.2152  0.0591
20867W        W35998  13.724   0.004  11.410  0.2372  0.1041  0.1061
20868W        W35999  14.749   7.442  15.332 -0.4311 -0.0092 -0.3120
20869W        W36000  15.420  12.168   6.152 -0.0490 -0.2402 -0.4421
20870W        W36001  12.704   7.221  13.779  0.2638 -0.3696 -0.1177
20871W        W36002  11.638   3.713   5.674 -0.2714 -0.0004  0.0864
20872W        W36003   7.195  10.582   3.051 -0.0831 -0.0505  0.1865
20873W        W36004  12.623  17.412   6.020  0.1984 -0.1787 -0.2795
20874W        W36005  12.626   3.505  14.118 -0.0345 -0.3491 -0.2331
20875W        W36006   0.484   1.245  11.208  0.2873  0.0034  0.1294
20876W        W36007   2.850   5.218  10.219  0.3430 -0.0906  0.0954
20877W        W36008  14.524   5.254   1.387 -0.0050 -0.1400 -0.1832
20878W        W36009  14.964   8.480   4.759 -0.0395  0.0233 -0.0501
20879W        W36010  14.389  15.810  11.673  0.0353 -0.0989  0.0277
20880W        W36011   6.468  14.222   3.475  0.0023  0.3110  0.0709
20881W        W36012  17.158  13.097  14.879 -0.3519  0.1147  0.1559
20882W        W36013   9.652   0.519  14.339 -0.3872 -0.2739 -0.1679
20883W        W36014   2.069   1.850   3.614  0.2182  0.3899 -0.0437
20884W        W36015   1.121   4.226   3.970 -0.0096 -0.1529 -0.1676
20885W        W36016   9.415   4.060   0.004 -0.4037  0.1715 -0.2803
20886W        W36017   8.002   1.389   0.825  0.1948 -0.0978  0.0646
20887W        W36018   6.130  10.716  11.364  0.0561  0.1244  0.0939
20888W        W36019  18.495  12.682   1.117 -0.2217 -0.1980 -0.3685
20889W        W36020   4.917  17.281   2.810  0.0959 -0.0649 -0.1969
20890W        W36021  17.562   0.589  15.221 -0.0504  0.0657  0.2201
20891W        W36022  15.572   6.207  12.739 -0.2695 -0.1051  0.0637
20892W        W36023  17.016  13.513  11.635  0.1012 -0.1253  0.0035
20893W        W36024  15.387  17.005  14.145 -0.1033  0.0989  0.0660
20894W        W36025  15.090  10.886   1.695 -0.0803  0.0688 -0.0799
20895W        W36026  11.873  17.366  13.607 -0.0419  0.0516  0.1540
20896W        W36027   0.200  18.401  13.142 -0.2079 -0.0280 -0.0320
20897W        W36028  11.403  15.664   4.078 -0.0778 -0.2619 -0.0817
20898W        W36029  14.707   8.311   9.913  0.1320  0.1942  0.2756
20899W        W36030   8.106   4.632  12.535 -0.1039 -0.0618  0.0714
20900W        W36031   7.616  10.628   2.053 -0.2548 -0.1160 -0.2236
20901W        W36032  17.126   8.536  11.815  0.1003  0.1211 -0.1920
20902W        W36033  16.884  17.013  13.416 -0.1072  0.0324  0.1516
20903W        W36034  16.257   9.037  11.946  0.2783 -0.1268 -0.3406
20904W        W36035   1.414  11.897  10.731  0.0450  0.0771 -0.2938
20905W        W36036  10.393   3.764  13.527  0.1616 -0.1632 -0.0383
20906W        W36037  17.314   0.017   1.517 -0.3291 -0.0590  0.2228
20907W        W36038  15.268   8.088   2.062  0.3348 -0.2987  0.1196
20908W        W36039   2.645   6.166   1.350  0.2223  0.2491 -0.1834
20909W        W36040   1.326   9.592  12.685 -0.5277 -0.4190 -0.3689
20910W        W36041  18.005  16.626  15.261 -0.1261 -0.0896  0.0922
20911W        W36042  12.918  17.892   3.015 -0.2448  0.2469  0.2146
20912W        W36043   2.152   0.715   1.534 -0.2238 -0.0775  0.2636
20913W        W36044  12.211  10.214  14.588  0.2750 -0.1337 -0.0902
20914W        W36045  18.190   8.248  15.043  0.2529 -0.0374 -0.1997
20915W        W36046   0.963   7.028  14.919 -0.1553  0.0574  0.3071
20916W        W36047   2.363   1.755  13.229  0.0856 -0.0576  0.0305
20917W        W36048  10.980   6.011  13.547  0.0294  0.1387  0.2452
20918W        W36049  11.392   6.444   4.762 -0.0203  0.2120  0.0048
20919W        W36050   7.168   2.102   1.592  0.2471  0.1949 -0.1879
20920W        W36051   5.631   5.480  10.350  0.0868 -0.1277 -0.1810
20921W        W36052   5.612  14.347  14.699 -0.2155  0.1347  0.1594
20922W        W36053  18.407  12.044   3.651 -0.0898  0.1137 -0.0728
20923W        W36054  16.327  13.372  12.221 -0.1799 -0.0780 -0.0941
20924W        W36055   1.054   3.262  12.166  0.0804  0.1867  0.1119
20925W        W36056  15.534  10.274   3.119 -0.2543  0.3058 -0.0526
20926W        W36057  13.738  10.556   0.003 -0.5690  0.3370 -0.0536
20927W        W36058  15.303  15.124   2.363 -0.2786  0.2907  0.0513
20928W        W36059   8.760   1.160  14.628 -0.1404 -0.0621 -0.0490
20929W        W36060   7.677  15.370  11.334 -0.3768  0.3512  0.0513
20930W        W36061  18.534   5.163  15.548  0.1683 -0.3607  0.0035
20931W        W36062  15.273   1.581   4.696 -0.2284  0.0447  0.1232
20932W        W36063   4.643   1.217   4.650  0.0940 -0.3672  0.0920
20933W        W36064  11.580  11.625  14.627  0.0350 -0.0615  0.1943
20934W        W36065   1.795   5.357   0.728  0.1216  0.1791  0.0902
20935W        W36066   5.838  14.315   1.633 -0.2525  0.1833  0.0991
20936W        W36067   5.918   3.140   0.806  0.1908  0.1784  0.1303
20937W        W36068  12.501   4.717   4.913 -0.3426 -0.1825  0.1296
20938W        W36069  18.109   2.014  13.138  0.0273  0.1734  0.0560
20939W        W36070   6.451  12.389   4.033  0.0712  0.3149 -0.1754
20940W        W36071   8.686  11.555  11.233 -0.1688  0.1011 -0.2215
20941W        W36072   0.019   3.887  10.407  0.2197  0.0200 -0.0380
20942W        W36073   6.474  15.251   0.265 -0.1468 -0.0848  0.1610
20943W        W36074   3.020   4.044  12.376 -0.1235 -0.2465  0.2054
20944W        W36075  12.307   7.724   5.240  0.2300 -0.2786 -0.0285
20945W        W36076   3.521   1.723   0.114  0.3527 -0.2641 -0.0611
20946W        W36077  12.038   9.955   3.314 -0.0903 -0.0185 -0.0400
20947W        W36078   3.844  12.466  11.791 -0.0026  0.2312 -0.3028
20948W        W36079   2.538  13.566  13.834 -0.0923  0.2117 -0.0184
20949W        W36080   8.073  17.805  13.681 -0.0235  0.1859 -0.0623
20950W        W36081  15.292   8.731  14.892 -0.0384  0.2051  0.1065
20951W        W36082   7.635   6.737   2.135  0.0971 -0.1591  0.0877
20952W        W36083   2.514   6.458   1.766  0.1471 -0.0239 -0.1973
20953W        W36084  17.638  14.286   1.257  0.0212  0.1983  0.1212
20954W        W36085  11.061   8.335   4.734  0.1151 -0.3127  0.4649
20955W        W36086   9.893  18.439   5.748 -0.0278  0.0827 -0.1230
20956W        W36087   9.326   1.162  11.666 -0.1387 -0.4299 -0.1416
20957W        W36088  11.878   9.539   1.530 -0.0025  0.1384  0.3063
20958W        W36089  18.393   7.834   9.320  0.2084  0.0948 -0.1547
20959W        W36090   7.208  15.659  15.151 -0.0274  0.2632 -0.2290
20960W        W36091   1.925  15.102  14.028  0.2682 -0.2359 -0.0557
20961W        W36092  18.554   3.829  14.282  0.1842 -0.1246 -0.2606
20962W        W36093   6.743  10.500   3.485 -0.3295 -0.1634 -0.4137
20963W        W36094   3.968  14.778   1.149  0.0339 -0.0391 -0.1261
20964W        W36095   5.923  14.400   2.598 -0.1176 -0.2721 -0.1535
20965W        W36096  16.299   0.769  13.861 -0.0817 -0.0400  0.1703
20966W        W36097   2.426   0.104   0.366 -0.0175  0.3652  0.0582
20967W        W36098  11.797   6.904  14.884  0.1036 -0.1566  0.0928
20968W        W36099  13.443  16.533  13.195 -0.0464 -0.1714  0.3574
20969W        W36100   1.941   9.764  10.816 -0.0336 -0.1314  0.0777
20970W        W36101   0.370   4.212   2.334  0.3287 -0.1538 -0.0386
20971W        W36102   3.424  16.886  12.593  0.1408 -0.1606 -0.1601
20972W        W36103   5.748  16.809   0.466  0.0611 -0.0175  0.1787
20973W        W36104   3.832   8.692   4.536 -0.0532  0.0397 -0.2366
20974W        W36105   7.448   2.231   1.256 -0.2255  0.0172  0.1254
20975W        W36106   7.000   0.770  10.841 -0.0000  0.0204  0.3455
20976W        W36107   8.936  12.968   0.312  0.0897  0.0727  0.2238
20977W        W36108   4.819  18.256   0.088  0.3869  0.1981  0.0118
20978W        W36109  14.811  17.975  13.036  0.0478  0.2949 -0.1549
20979W        W36110  11.908  14.441   4.257  0.2055 -0.3374 -0.1980
20980W        W36111   5.567   2.900  14.126  0.0860  0.0796  0.2328
20981W        W36112   7.406   5.212  10.987  0.0240 -0.0569 -0.1988
20982W        W36113  10.521   8.764   4.054 -0.0578 -0.1579  0.0244
20983W        W36114   5.818   3.384   0.149 -0.1762  0.0289  0.1950
20984W        W36115  13.528   6.479  15.038  0.0638  0.0087 -0.1437
20985W        W36116  17.234  12.621   1.788  0.1871  0.3400 -0.3174
20986W        W36117   9.314  13.978  14.652 -0.1927 -0.0876  0.0505
20987W        W36118  11.776   3.265   3.923 -0.1862  0.1092 -0.1888
20988W        W36119   8.072  12.239   4.577 -0.1741 -0.2835 -0.3360
20989W        W36120  17.956  17.701  12.020  0.1701 -0.0936 -0.0670
20990W        W36121  17.769   5.966   5.076  0.1953  0.1333  0.1977
20991W        W36122  13.430  17.472  11.548 -0.2772  0.0131  0.2331
20992W        W36123  18.500  11.858  11.599  0.1665 -0.1246  0.2456
20993W        W36124   7.985   0.935  14.308 -0.0760 -0.0787 -0.0797
20994W        W36125  13.799  10.512  12.858 -0.1815  0.2812  0.1844
20995W        W36126   8.687   7.266   0.594  0.4566  0.0973 -0.2309
20996W        W36127  12.939  13.566   5.002  0.0361  0.0038  0.2317
20997W        W36128   3.838  10.067  11.759  0.2195 -0.3930 -0.1112
20998W        W36129   1.254   3.011   3.553 -0.2180  0.0348  0.1025
20999W        W36130  15.366   8.454  10.958 -0.0855  0.2131  0.1652
21000W        W36131   7.827  17.885   5.577  0.2561  0.0424  0.1281
21001W        W36132  14.380   6.228   4.580 -0.0447 -0.0135 -0.2827
21002W        W36133  18.159   5.120  11.006  0.0214  0.1569  0.0865
21003W        W36134  16.534   0.766  11.250  0.1753 -0.0331 -0.0982
21004W        W36135   8.157  18.688  13.753  0.2219  0.1646  0.1830
21005W        W36136   0.502   1.126  15.119  0.3187 -0.1437  0.1646
21006W        W36137   0.979   3.975  14.818  0.3769 -0.0279  0.1939
21007W        W36138  17.046   1.660  12.367  0.3008  0.0751 -0.1685
21008W        W36139   3.669   2.803  12.442  0.0778  0.1048 -0.0754
21009W        W36140   9.605   6.060  13.602 -0.1469 -0.0918 -0.0770
21010W        W36141   3.030   6.496   1.735  0.0857  0.0504 -0.0732
21011W        W36142   0.596  11.721   4.950  0.4865 -0.0170  0.0802
21012W        W36143  10.923  17.005  13.854 -0.0808  0.2123  0.0024
21013W        W36144  10.053  11.728  11.975  0.1376  0.5638 -0.0555
21014W        W36145  10.810   3.997  13.345 -0.0464  0.1364  0.1278
21015W        W36146   8.131   5.488   3.240 -0.1959 -0.0846 -0.0679
21016W        W36147  16.242  17.331   6.108 -0.0844  0.0554  0.0230
21017W        W36148   8.931  14.306  10.540  0.1509 -0.0404 -0.2211
21018W        W36149  11.127  17.214   0.168  0.4908  0.0207 -0.0251
21019W        W36150  10.226   4.887  14.237  0.2510  0.1541  0.0699
21020W        W36151   4.313   5.824   0.745  0.1341  0.0905 -0.1662
21021W        W36152   3.754   7.592   2.113 -0.0360 -0.1434 -0.1868
21022W        W36153  15.171  16.376   2.546 -0.0120  0.0892  0.0560
21023W        W36154   7.062  11.283   5.546 -0.0835  0.0083 -0.1762
21024W        W36155   3.738   5.467   5.323 -0.1436  0.0967  0.0441
21025W        W36156   5.070   0.893   4.456 -0.1747  0.0446  0.3848
21026W        W36157  15.892   3.279   4.637 -0.0361 -0.0431  0.0173
21027W        W36158  10.084  17.808   0.726 -0.1097 -0.0028 -0.0809
21028W        W36159  12.347   3.841   3.158  0.6790 -0.0960 -0.0657
21029W        W36160  10.125  16.345   2.318 -0.0417  0.0024  0.1847
21030W        W36161   2.681  16.480  10.548 -0.0805 -0.0936  0.2610
21031W        W36162   1.569  12.680   1.144  0.4142  0.1329 -0.1392
21032W        W36163  12.960   4.317  11.348 -0.0346 -0.2443 -0.2052
21033W        W36164   1.321   5.183   0.698  0.1644  0.2145  0.2879
21034W        W36165  15.007  13.166   6.041  0.2160  0.0724  0.1488
21035W        W36166  14.690  11.340   1.891  0.0259  0.2524  0.1040
21036W        W36167   5.901  13.901   2.611  0.1102 -0.3540 -0.2156
21037W        W36168  13.270   6.705   1.906 -0.2614 -0.1077 -0.0993
21038W        W36169  18.533  13.741  11.901  0.1533 -0.3885  0.0499
21039W        W36170   1.809   4.569  11.051  0.1282  0.2988  0.2783
21040W        W36171   5.177   8.402   5.072  0.0433  0.0078 -0.2645
21041W        W36172  13.004  17.705   0.681 -0.0814  0.1039 -0.2736
21042W        W36173  18.511  15.158   5.285  0.1198  0.1712 -0.1694
21043W        W36174   5.845   2.983  15.166 -0.2412  0.1281 -0.0557
21044W        W36175  12.571  13.421  15.594 -0.1853  0.3038  0.1920
21045W        W36176  13.258   8.357  11.055  0.1223  0.1283  0.3001
21046W        W36177  17.285   4.764  10.717  0.1303  0.3500  0.0726
21047W        W36178  14.900   0.689  11.399  0.2104  0.0704 -0.1600
21048W        W36179   7.308   0.990   5.490 -0.0426  0.0221  0.2264
21049W        W36180  12.624   7.888  15.177  0.1538 -0.2967  0.0286
21050W        W36181   5.467   4.463  14.341 -0.1864  0.0327 -0.0401
21051W        W36182   0.192  15.840   0.680  0.2585 -0.2653  0.1505
21052W        W36183   4.610  17.089   0.259 -0.3184 -0.0113 -0.3875
21053W        W36184   9.392  15.663   3.300  0.2804 -0.3355 -0.3014
21054W        W36185   5.415   0.604   0.344 -0.0248  0.0864 -0.3981
21055W        W36186   7.212   2.535  13.577 -0.3356 -0.1351  0.4306
21056W        W36187   5.771   5.993  12.444  0.1548 -0.0215 -0.0462
21057W        W36188   2.025   1.296  11.945  0.2990 -0.0931  0.3803
21058W        W36189   6.786  16.265  15.632 -0.0157  0.0536  0.2249
21059W        W36190  13.631  15.423   5.102 -0.6540 -0.0824 -0.3281
21060W        W36191   4.860  14.725  15.656 -0.0578  0.0755 -0.3974
21061W        W36192  11.805   0.685  12.743 -0.2102  0.1074 -0.1096
21062W        W36193   3.648   0.363  12.402  0.1879  0.0524  0.2167
21063W        W36194   7.942  17.952   4.684 -0.3075  0.0495 -0.2596
21064W        W36195   3.590  12.414   2.534  0.0710  0.1148  0.0096
21065W        W36196  11.651  10.216   4.584  0.1151  0.0537  0.4825
21066W        W36197   6.006   2.608  12.693 -0.3097 -0.1476  0.1249
21067W        W36198   5.008   7.140  13.570 -0.0183  0.0176  0.3015
21068W        W36199  12.973  12.634  13.958  0.2548  0.0054 -0.0528
21069W        W36200  17.242   2.133  13.990  0.0757  0.0430 -0.0187
21070W        W36201  11.476  18.581  12.187 -0.1863 -0.0452 -0.0749
21071W        W36202  17.746   7.774  15.156  0.2925  0.1920 -0.2831
21072W        W36203   9.071   4.562   0.455 -0.1503 -0.0092  0.0895
21073W        W36204   0.146   3.595   0.294 -0.0699 -0.0539  0.4627
21074W        W36205  15.836   7.540  15.113  0.0323 -0.2652 -0.1625
21075W        W36206  12.119   7.474  13.265  0.0804  0.0036 -0.0301
21076W        W36207   0.888   2.677   3.389 -0.0453 -0.1180  0.2866
21077W        W36208   1.534  12.612   0.209  0.1147 -0.2359  0.4952
21078W        W36209  15.939  11.971   0.244  0.0544 -0.0133  0.2488
21079W        W36210   2.999  10.274  12.368 -0.2387 -0.0935  0.2142
21080W        W36211   5.367  10.026  14.901 -0.0008  0.0949 -0.1329
21081W        W36212   3.966   9.194   1.273  0.2041 -0.3077 -0.1839
21082W        W36213   2.619   2.452  14.126  0.1701 -0.3589  0.1844
21083W        W36214   9.760   2.841  13.732 -0.1067 -0.3309  0.0470
21084W        W36215  12.949  10.250  12.158  0.0393  0.0668 -0.2604
21085W        W36216   9.557  16.894   4.058 -0.0874 -0.1123 -0.2225
21086W        W36217   2.776   3.919   1.167  0.1146  0.2745  0.0677
21087W        W36218  12.685  13.394  13.723 -0.0414 -0.0094  0.2962
21088W        W36219  11.386   1.150   0.552  0.2772  0.1343 -0.1510
21089W        W36220   9.944  18.317  12.148  0.2469  0.4755  0.0814
21090W        W36221   5.918  10.739  10.365 -0.0247  0.0225  0.0287
21091W        W36222   9.248  10.878   1.218  0.2410 -0.0001  0.1186
21092W        W36223   4.146   1.011   1.270  0.1896 -0.0045 -0.1854
21093W        W36224   5.004   1.031  14.762 -0.1263 -0.1264  0.1888
21094W        W36225   8.992  11.018   0.061  0.2399 -0.2826  0.1897
21095W        W36226   2.602   7.279  11.693 -0.3448  0.0863  0.1733
21096W        W36227   2.072  18.266  12.640  0.0575 -0.2966  0.0876
21097W        W36228   8.400   9.652  13.786  0.1281 -0.1480 -0.3043
21098W        W36229  10.006   4.062  11.142 -0.0283 -0.0156 -0.0459
21099W        W36230  13.609   1.574   3.992  0.0158  0.2559  0.2061
21100W        W36231  10.875   9.950   0.722 -0.0016  0.0889  0.0527
21101W        W36232   2.595   8.364   4.463  0.0383 -0.0264 -0.0078
21102W        W36233   0.168  12.570  13.293  0.0190  0.0240 -0.0899
21103W        W36234  12.571  11.950  15.418 -0.3290  0.0810 -0.0047
21104W        W36235   4.992   5.085   3.730  0.1122 -0.1706  0.3048
21105W        W36236   1.816  14.059  11.779  0.2654 -0.0560  0.1415
21106W        W36237   0.584   7.162   1.379 -0.1136  0.1481  0.0138
21107W        W36238  15.574  10.453   4.723  0.0788 -0.1381 -0.3207
21108W        W36239   4.113  18.282  11.550  0.0640  0.0262  0.2490
21109W        W36240  10.710   4.959  11.777  0.1809 -0.0370 -0.2350
21110W        W36241  16.057  12.738   3.896  0.1900 -0.0992 -0.1176
21111W        W36242  18.161  14.033   2.446 -0.1055 -0.0338 -0.1541
21112W        W36243   8.246  15.322  10.697 -0.4644 -0.4005  0.2070
21113W        W36244  11.157   3.234   3.156  0.0746  0.0180  0.0322
21114W        W36245   5.995   9.328   1.365 -0.1089 -0.1530 -0.2828
21115W        W36246   3.948  17.153  10.141  0.0561 -0.0104 -0.0533
21116W        W36247   1.867  10.406   0.663 -0.0229  0.2417 -0.0881
21117W        W36248  17.077   8.123  11.468 -0.1249 -0.1315 -0.2041
21118W        W36249  11.710  11.387   1.513  0.0081  0.3935 -0.1111
21119W        W36250   9.032   9.034   4.586  0.2647 -0.0820  0.0021
21120W        W36251   3.297  12.852  14.962 -0.1041  0.0250 -0.0516
21121W        W36252   8.581   8.319  14.837  0.0385  0.1664  0.0372
21122W        W36253  12.039  12.710   3.812  0.0633  0.1725  0.0505
21123W        W36254   1.253   0.321  11.882 -0.1130 -0.0438  0.1253
21124W        W36255  16.964  13.515  14.627 -0.0060 -0.0585  0.0280
21125W        W36256   8.252   3.714  13.498  0.0501 -0.4038  0.4731
21126W        W36257  16.103   1.201   4.876 -0.3584  0.0544  0.0336
21127W        W36258   4.861   4.733  11.826 -0.0740 -0.2272 -0.2629
21128W        W36259   8.329  12.700  10.245 -0.0901 -0.1569  0.2596
21129W        W36260   8.703  14.912   4.380 -0.0407 -0.1166  0.1322
21130W        W36261   2.885   8.433   1.895 -0.1102 -0.1246 -0.0172
21131W        W36262  10.182   1.268   4.925  0.0490  0.0221  0.0450
21132W        W36263   3.200  17.064  13.994  0.0675 -0.1905  0.2755
21133W        W36264   8.416   9.708   5.126  0.0982 -0.0997 -0.0264
21134W        W36265  16.673   3.537   2.483 -0.1602 -0.0517 -0.1048
21135W        W36266  15.935   8.910  12.655  0.1706  0.0421 -0.1380
21136W        W36267  14.396  18.014   6.015 -0.1416  0.0026 -0.2177
21137W        W36268  14.271   6.556   4.269  0.2628  0.3078  0.2893
21138W        W36269  14.015   7.879   1.304  0.0184 -0.0259 -0.1999
21139W        W36270  11.892   7.177  12.041  0.1847  0.1553  0.1401
21140W        W36271   1.972   0.493   3.334 -0.1510 -0.1253 -0.3139
21141W        W36272   1.761   8.564  11.899 -0.1315 -0.0745  0.1701
21142W        W36273  15.745   5.044  14.592 -0.0169  0.1631  0.1265
21143W        W36274  18.285   9.054  13.846  0.1812  0.1060 -0.1385
21144W        W36275   4.355   4.323  13.004 -0.2149  0.4998 -0.1448
21145W        W36276  18.032  13.250  15.171  0.2407 -0.0325  0.0921
21146W        W36277  17.953  11.451   5.666  0.1110  0.0103  0.0296
21147W        W36278   4.113   6.307   0.725  0.0819  0.0456  0.3259
21148W        W36279  11.779   9.735  11.665 -0.1331 -0.1328 -0.0849
21149W        W36280  17.169   2.717  13.261  0.2513  0.1275  0.2746
21150W        W36281   8.058   5.929  15.728 -0.3619 -0.1947  0.0637
21151W        W36282  13.497  13.551   4.368  0.0405  0.0553 -0.0188
21152W        W36283  15.666  13.124  13.625  0.1234  0.3386  0.0884
21153W        W36284  11.370  16.017   2.868 -0.1224  0.1355 -0.4520
21154W        W36285   3.285   9.399  14.448  0.0307  0.0834  0.0209
21155W        W36286  15.346  10.711   3.903  0.0624 -0.0554  0.1496
21156W        W36287   2.130  10.393   2.712  0.1068 -0.0048  0.0315
21157W        W36288   0.183  17.959  12.282 -0.0158 -0.0925  0.1755
21158W        W36289  14.247   2.309   0.545 -0.0475 -0.0815 -0.0475
21159W        W36290   8.065  16.972  13.042  0.2137 -0.0354  0.1869
21160W        W36291   9.237  11.669  13.948 -0.1175  0.0934 -0.4275
21161W        W36292   0.340  16.642  12.776 -0.3969  0.0290 -0.0002
21162W        W36293  10.327  17.116   3.415 -0.1180  0.2423  0.0944
21163W        W36294  16.542   2.940  10.357 -0.1855  0.0249  0.1829
21164W        W36295   1.916   3.841  13.731  0.0359 -0.3153 -0.0030
21165W        W36296  17.783   1.859  13.984  0.0767  0.0546  0.0481
21166W        W36297   2.759  17.791   2.916 -0.1757  0.0262  0.1188
21167W        W36298  10.517  16.995   0.969 -0.1764  0.1617 -0.0944
21168W        W36299   8.859  16.194  13.222 -0.1500  0.1295  0.2687
21169W        W36300   0.573   4.191   1.667 -0.1886 -0.0464 -0.0975
21170W        W36301  13.511   0.349   2.752 -0.2821 -0.3859  0.1509
21171W        W36302  16.590   3.975   3.736  0.0318 -0.3569  0.1137
21172W        W36303   8.083  11.759  12.765 -0.0161  0.2384  0.0988
21173W        W36304   4.202  14.767  13.265  0.3403 -0.0986  0.3738
21174W        W36305  18.215  12.153   4.220  0.4756 -0.0141  0.2532
21175W        W36306  13.575   2.923   2.665 -0.2279  0.1770 -0.0089
21176W        W36307   5.934  12.841   1.467  0.1411  0.3202  0.2127
21177W        W36308   7.609   5.709  13.245 -0.0923 -0.1153 -0.0413
21178W        W36309  13.071  13.785  13.682 -0.1097  0.0052 -0.0193
21179W        W36310  11.346   7.952  15.037 -0.2427  0.2884  0.2205
21180W        W36311   0.795   1.259   3.132  0.0916 -0.2678  0.0893
21181W        W36312   3.113  16.306   4.198  0.1782 -0.2169  0.1503
21182W        W36313   1.966   4.967   5.584 -0.0798  0.0667 -0.3679
21183W        W36314   0.098   1.749   0.832 -0.2614  0.2062 -0.3460
21184W        W36315  12.970  18.751  15.751 -0.1939 -0.3746 -0.1036
21185W        W36316  12.455   3.912  15.475 -0.0832  0.0840  0.1235
21186W        W36317  13.222  16.703  13.705  0.0589 -0.3382  0.2819
21187W        W36318   0.327  18.189  11.279 -0.3041 -0.1099  0.3098
21188W        W36319  16.649   9.892  10.793 -0.1427 -0.1784 -0.1330
21189W        W36320  15.861   7.032  13.314  0.0561  0.0050  0.1831
21190W        W36321  13.793   5.631   2.012 -0.1429 -0.0479  0.1416
21191W        W36322  18.528  14.284  12.521  0.1638 -0.0153  0.1728
21192W        W36323  17.653   2.093   0.959  0.1991 -0.0129  0.2395
21193W        W36324  15.968  18.405   3.375  0.1117  0.3032 -0.0203
21194W        W36325  12.423   8.106   3.021  0.1372 -0.0360  0.1185
21195W        W36326   7.131  16.095  14.905 -0.0128  0.1682  0.0259
21196W        W36327   5.542  12.738  13.266 -0.2243  0.2284  0.3610
21197W        W36328  17.747   1.914   0.106  0.2369  0.0532 -0.1775
21198W        W36329   3.738   3.106  13.379 -0.1472  0.1687  0.2470
21199W        W36330   7.449   7.555   0.361  0.2955 -0.1442 -0.2348
21200W        W36331   3.963  11.019  11.971  0.1319 -0.1449 -0.0644
21201W        W36332   1.251  11.795   4.015 -0.0885 -0.2254 -0.2566
21202W        W36333  12.319   3.301   0.383  0.1350 -0.0073  0.1383
21203W        W36334  15.664   0.729   4.538  0.1686  0.0673  0.1803
21204W        W36335  17.148  10.325  13.505  0.1368 -0.3064 -0.0650
21205W        W36336  11.905   1.821   0.459  0.3107 -0.0372  0.0257
21206W        W36337  16.685   9.680   1.231  0.0518 -0.0551  0.3170
21207W        W36338   4.590   4.291  11.004  0.3455  0.2619 -0.2268
21208W        W36339  11.018  11.667   1.235  0.0705 -0.0390  0.3628
21209W        W36340   9.951  13.075   0.844  0.2725 -0.0802 -0.1637
21210W        W36341  11.201  11.207  14.158  0.0196 -0.0012 -0.0547
21211W        W36342   6.999   6.806  15.511  0.1277 -0.4070  0.3638
21212W        W36343   0.571   2.130   1.922  0.2068 -0.1986 -0.1293
21213W        W36344  10.224   4.324   3.984  0.2120  0.1452  0.2881
21214W        W36345  17.160   3.084  14.053 -0.3551 -0.0215 -0.1235
21215W        W36346   2.847   7.810   5.597  0.0649 -0.2753  0.1411
21216W        W36347   1.956   9.447  12.137 -0.2189  0.0124  0.1679
21217W        W36348   4.130  11.139  12.442 -0.1062 -0.0811  0.0702
21218W        W36349  13.717   1.294  14.604  0.1832  0.1282 -0.0434
21219W        W36350   3.537  11.655   2.835  0.0356 -0.2576 -0.3143
21220W        W36351  10.339   9.039   1.766 -0.0315 -0.0424 -0.0516
21221W        W36352   1.846   4.253  13.994 -0.1934  0.0868 -0.4426
21222W        W36353   7.717  15.184   4.425  0.0614  0.0208  0.0193
21223W        W36354   3.877  16.592   4.829  0.1062 -0.0367  0.0610
21224W        W36355   8.560  12.534  12.496  0.1107 -0.2417 -0.0140
21225W        W36356   6.694   7.359  11.747  0.0296  0.1225 -0.0576
21226W        W36357   4.507  12.763  15.587 -0.0389  0.1115 -0.0789
21227W        W36358   2.729   6.479   0.410 -0.0540  0.1788 -0.1052
21228W        W36359  10.443  10.470   4.020 -0.3959  0.3183 -0.1372
21229W        W36360  11.371   3.297  12.993 -0.0594 -0.1089  0.1658
21230W        W36361   6.082   5.542  13.347 -0.1721  0.0510 -0.0951
21231W        W36362   1.334   7.527   2.168 -0.1064  0.1024 -0.3539
21232W        W36363  16.493  18.033   0.292 -0.1626  0.3536 -0.1109
21233W        W36364  11.125   9.933   3.286  0.0206  0.0424 -0.0618
21234W        W36365   6.658  11.094   3.413 -0.1640  0.0236 -0.4075
21235W        W36366  11.055   9.234  14.662  0.0008  0.1002 -0.1660
21236W        W36367  10.392  12.655   0.504  0.0389 -0.1049  0.3851
21237W        W36368  10.736  12.586   3.293 -0.0419  0.0669 -0.2659
21238W        W36369   9.231   9.092   3.758  0.1464 -0.2038 -0.2590
21239W        W36370   7.152  13.967   2.383 -0.0019  0.1660 -0.2241
21240W        W36371  11.862   9.162   4.606  0.1767 -0.3580  0.2130
21241W        W36372  17.657  18.513  11.698  0.1822  0.0027 -0.2283
21242W        W36373  18.424   6.329  15.421 -0.1726 -0.3101 -0.1293
21243W        W36374   7.769  15.676   3.468 -0.2462 -0.0832  0.1017
21244W        W36375   3.462   4.916  11.591  0.0488 -0.0914  0.0333
21245W        W36376   7.386   6.166   4.436 -0.0432 -0.2213  0.1923
21246W        W36377   7.322   8.939   5.512 -0.2521  0.0083 -0.2160
21247W        W36378   9.837   9.089  12.105 -0.3681 -0.3696 -0.1058
21248W        W36379  17.698   0.897   3.238 -0.1217  0.2139  0.0205
21249W        W36380  14.079   2.748   5.759  0.1870 -0.1254  0.1650
21250W        W36381  10.417  12.698   5.270 -0.2181  0.0029 -0.0045
21251W        W36382  16.806   4.248   0.749  0.4214 -0.0425  0.3867
21252W        W36383   8.533  17.451  12.281 -0.1261 -0.0802  0.0423
21253W        W36384  10.978   8.431  13.688 -0.1957  0.1755  0.0144
21254W        W36385   8.455   8.176  10.054  0.3643 -0.0406  0.3767
21255W        W36386  14.243   0.315  15.618  0.2380 -0.0538 -0.4729
21256W        W36387   7.415   5.968  15.169 -0.1026 -0.1674  0.0598
21257W        W36388   7.864   7.210   5.411 -0.0890 -0.1219 -0.0688
21258W        W36389  12.901  11.845   3.749  0.1809  0.0152  0.1055
21259W        W36390   3.129   9.167  12.769 -0.1265 -0.0058  0.0335
21260W        W36391  13.620  11.612  14.440  0.1954 -0.0575  0.2513
21261W        W36392   2.233   5.563   1.446 -0.0763 -0.2562 -0.0783
21262W        W36393  14.958  15.869   3.260 -0.2106  0.0302  0.1929
21263W        W36394   0.275   1.529  14.953 -0.0431 -0.0354  0.0841
21264W        W36395  11.997  16.949   0.087 -0.2711  0.2778  0.1850
21265W        W36396   9.598  15.627  11.703 -0.2725  0.0217  0.0741
21266W        W36397   1.987  15.000   4.007  0.1727 -0.0825  0.0979
21267W        W36398   0.102  13.864  13.752 -0.0226 -0.0426  0.0813
21268W        W36399   2.248  14.164   0.848 -0.2008  0.0524 -0.0885
21269W        W36400  15.632  13.794  13.747 -0.2349  0.1162 -0.3705
21270W        W36401   2.211  15.898  12.906 -0.2290  0.2681 -0.1202
21271W        W36402  11.295  16.175   1.058  0.1349 -0.0299 -0.1175
21272W        W36403  14.344   6.951  10.943 -0.1520  0.2399  0.1521
21273W        W36404   3.694  12.639  13.813  0.1776  0.0271 -0.2241
21274W        W36405   3.652   2.698   2.874  0.0319  0.2765  0.2952
21275W        W36406  12.626   9.595   4.270 -0.0245 -0.0099  0.3425
21276W        W36407  10.006   8.676   3.208 -0.1132 -0.0324  0.0308
21277W        W36408  15.673   0.974   5.039  0.0904 -0.1051 -0.4231
21278W        W36409   4.032   7.900   2.376 -0.1537  0.0698  0.2075
21279W        W36410   8.871   2.401   3.912  0.2336 -0.0264  0.4329
21280W        W36411   2.598   9.639  11.438 -0.0508 -0.2566  0.2069
21281W        W36412  11.315  15.251  11.402  0.3330 -0.1050  0.1915
21282W        W36413   3.721   9.180   0.725 -0.2729 -0.3189  0.0200
21283W        W36414   5.860   6.702  11.960 -0.1770 -0.0119 -0.1100
21284W        W36415   7.906  16.703  15.371 -0.0275  0.1798  0.2805
21285W        W36416   6.741   7.311  10.857 -0.1681  0.2738 -0.1960
21286W        W36417   0.710  12.629   5.514  0.2375  0.0604 -0.2843
21287W        W36418   9.768  13.987  13.900 -0.3672  0.0238 -0.1712
21288W        W36419   3.523  17.380  15.610  0.2366 -0.2001 -0.0618
21289W        W36420   6.101   7.979   4.700 -0.1110  0.1074 -0.1931
21290W        W36421   9.061  12.494   1.041  0.2952 -0.2827 -0.3494
21291W        W36422  18.737   8.907  11.125  0.6109 -0.0984  0.2102
21292W        W36423   1.708  11.644   3.805  0.0903  0.0714  0.1993
21293W        W36424   9.728  14.588   5.738  0.1262 -0.0317  0.0677
21294W        W36425   8.305   2.536   0.553 -0.0875 -0.2020 -0.1143
21295W        W36426   7.789  11.660   5.528  0.3613 -0.1223  0.0234
21296W        W36427   2.478  10.235  14.298  0.2439  0.3100  0.1579
21297W        W36428   0.225   6.412  14.197 -0.1053 -0.2801  0.0948
21298W        W36429   8.696   1.298   4.479 -0.1543 -0.2089 -0.3380
21299W        W36430  12.161   3.997   2.131  0.4228 -0.0838 -0.1631
21300W        W36431   5.435   4.018   2.930  0.1281  0.0271 -0.1200
21301W        W36432  16.259  11.314  12.878 -0.4188  0.1555  0.0075
21302W        W36433   5.180  11.168  14.311  0.2103 -0.1502 -0.0618
21303W        W36434   0.031  11.435   3.629 -0.0558 -0.2960 -0.1246
21304W        W36435  16.468  17.740  13.466  0.2073 -0.3820  0.1127
21305W        W36436  10.474  10.393   1.822 -0.4303 -0.0142  0.0329
21306W        W36437   4.858  11.493   4.207 -0.1756  0.0990  0.4603
21307W        W36438  11.643  14.772  15.246 -0.1365  0.2150 -0.1477
21308W        W36439   1.230  18.666  12.226  0.2259 -0.0226  0.0072
21309W        W36440  12.395   6.829   0.850 -0.0362  0.1908  0.1799
21310W        W36441  16.203  12.698   5.369 -0.1937 -0.4305  0.1653
21311W        W36442  15.456   8.546   2.955  0.1138 -0.1839  0.1466
21312W        W36443  12.466   3.617   2.212  0.0451 -0.0005  0.1511
21313W        W36444  11.926   3.064   4.449  0.0798 -0.0262  0.5188
21314W        W36445  13.568   4.539  10.835  0.0624 -0.0065 -0.0163
21315W        W36446   6.182  17.788   1.124 -0.0810 -0.1953 -0.1330
21316W        W36447  10.904  15.966   2.832 -0.0309 -0.3907  0.0867
21317W        W36448  15.254  10.154  10.864  0.1697 -0.1008 -0.0635
21318W        W36449  17.467  11.773   4.088  0.0775  0.2583 -0.1132
21319W        W36450  10.498   8.740   3.434 -0.2210 -0.0588 -0.4419
21320W        W36451   7.957   9.881   3.872  0.0274  0.4100  0.0476
21321W        W36452  11.623  15.602   1.836  0.1197  0.1012  0.2295
21322W        W36453   7.181  18.249   1.259  0.2059 -0.4722  0.1930
21323W        W36454  12.239  14.666  12.202 -0.2496 -0.1701 -0.0658
21324W        W36455   2.094   4.346   0.903 -0.0386  0.2557 -0.1319
21325W        W36456   9.611  11.174   5.851  0.2009 -0.2467  0.2451
21326W        W36457   5.488  12.035  14.172 -0.0250  0.0588 -0.2613
21327W        W36458   5.808   6.961  15.243  0.4092  0.0173 -0.3273
21328W        W36459   3.105  10.318  10.829 -0.0491 -0.1204  0.1114
21329W        W36460   0.485   5.705  11.642  0.0848 -0.2531  0.1589
21330W        W36461   0.509  15.840  15.084 -0.0079 -0.0044  0.1976
21331W        W36462   0.001   2.198   2.438 -0.0243 -0.2319  0.0680
21332W        W36463   0.739  16.659   0.734 -0.1958  0.0151 -0.2785
21333W        W36464   7.866   7.669   4.069  0.1068 -0.2500 -0.2446
21334W        W36465   1.978  17.697   2.489  0.4168  0.0180  0.1913
21335W        W36466  13.483   8.886  15.255  0.2009  0.0618  0.3418
21336W        W36467  13.336  18.610   0.368  0.1158  0.0916 -0.3152
21337W        W36468   4.104   5.022   4.304  0.2131 -0.2834 -0.1400
21338W        W36469   5.876  15.840  13.012  0.4120 -0.2487  0.0966
21339W        W36470  16.661   6.276   3.861 -0.2265 -0.2263 -0.2036
21340W        W36471  10.368  14.970  11.482  0.0140  0.0213 -0.1429
21341W        W36472   5.383  13.292  14.844  0.1653 -0.0117 -0.0885
21342W        W36473   8.317   8.966  15.380  0.2311 -0.0274 -0.4028
21343W        W36474   8.193  11.340   4.276  0.3447  0.0276  0.1791
21344W        W36475  11.893   3.170   4.981 -0.0942  0.0662 -0.0162
21345W        W36476  12.652  10.064   5.990 -0.1504  0.2401 -0.0360
21346W        W36477   6.062  17.758   3.622  0.0173 -0.0754  0.2002
21347W        W36478  10.829  12.668   3.923 -0.2428 -0.1847  0.0714
21348W        W36479  14.514   6.480   3.574  0.1977 -0.0814  0.2209
21349W        W36480   8.667  15.818   0.448  0.0279 -0.0761  0.0015
21350W        W36481  10.112  17.725   2.874  0.1373  0.4105 -0.0768
21351W        W36482   3.640   6.734  14.049 -0.0352 -0.1654  0.0278
21352W        W36483   6.891  11.871   3.557  0.2885 -0.2279  0.0958
21353W        W36484  12.093   1.909  10.682 -0.1937 -0.2171 -0.5420
21354W        W36485   4.586  12.330  14.020  0.2858  0.1527 -0.1042
21355W        W36486   9.942  14.771   5.337  0.2539  0.0253 -0.0542
21356W        W36487   4.557  12.057  12.596 -0.2434 -0.0373  0.0642
21357W        W36488  10.921  10.649   6.032 -0.1955  0.0363 -0.2051
21358W        W36489   6.419   3.981   5.314 -0.3845 -0.1450  0.2784
21359W        W36490   1.009   9.083   2.802  0.1440  0.0657  0.1696
21360W        W36491  11.033  10.305   5.221 -0.0680 -0.0977 -0.0057
21361W        W36492   6.891  18.582   3.927 -0.3401 -0.2818  0.3182
21362W        W36493   9.298  16.672  10.855  0.0783  0.1357  0.0469
21363W        W36494   6.545  14.562  13.085 -0.3178  0.2363  0.1300
21364W        W36495  15.740  10.794  13.515  0.3771  0.2895  0.2817
21365W        W36496  15.015   4.128  14.603 -0.1175  0.1337 -0.4510
21366W        W36497   4.852  17.194  11.642 -0.1082 -0.0856 -0.3066
21367W        W36498   2.653  16.061   2.166 -0.2403  0.0767  0.1631
21368W        W36499   2.531  12.354   0.428 -0.0963  0.0368 -0.1857
21369W        W36500  17.863  16.905  12.801 -0.1360 -0.1372  0.1249
21370W        W36501  10.992  12.141  14.298 -0.0964  0.1666 -0.3431
21371W        W36502   2.038   9.085  14.891  0.2711 -0.1019 -0.3958
21372W        W36503   5.415  14.233  13.970  0.2471  0.5122 -0.1376
21373W        W36504   9.158   9.437   4.844 -0.0878 -0.2020 -0.1957
21374W        W36505   4.963  15.676  11.662 -0.1828 -0.0770  0.2153
21375W        W36506  11.301   9.606  12.604  0.1392 -0.3805 -0.2265
21376W        W36507  16.810   7.858   2.632 -0.0726  0.0099 -0.0372
21377W        W36508   3.801   8.658  12.701 -0.0867  0.0891  0.1360
21378W        W36509   3.994   7.296   3.849 -0.0042  0.1460  0.0422
21379W        W36510   6.011   3.781  11.206 -0.2695 -0.1337  0.1878
21380W        W36511   3.440   4.704  11.109  0.2627  0.2573 -0.3203
21381W        W36512   1.662  16.296   9.663 -0.0964  0.3604  0.0174
21382W        W36513   6.065   6.099  15.493  0.2428 -0.1226  0.3498
21383W        W36514  14.201   2.921   2.649 -0.0474  0.0500  0.0152
21384W        W36515   1.556  16.819  10.545 -0.0780  0.1695 -0.2129
21385W        W36516   1.255  12.029   1.831 -0.3240  0.3239 -0.4797
21386W        W36517   5.184  16.497  11.129 -0.5326  0.1801 -0.0989
21387W        W36518   4.969   2.124  12.461 -0.1498  0.0175 -0.1266
21388W        W36519  15.882   2.997  14.001 -0.1576 -0.1113  0.0547
21389W        W36520  17.538  14.151  12.713 -0.1086  0.1877 -0.4841
21390W        W36521  11.330  17.865   0.156  0.1254 -0.1938  0.4496
21391W        W36522  13.705   9.441   0.776  0.0222 -0.0153  0.0719
21392W        W36523  12.881   2.721   4.290  0.1749  0.1165 -0.1463
21393W        W36524   6.047   0.344   2.503  0.1108  0.0333 -0.2063
21394W        W36525  17.750  13.685  15.341 -0.0054 -0.0263 -0.1842
21395W        W36526   1.389   3.240   2.191  0.0397 -0.1544  0.1598
21396W        W36527   5.383  15.563   1.053 -0.0217  0.1738 -0.2243
21397W        W36528   2.365   8.229   1.064 -0.0457 -0.1365  0.1318
21398W        W36529   1.894   4.257  10.191  0.0901  0.0724 -0.2552
21399W        W36530   5.638   0.586   2.317  0.0503  0.2090 -0.2005
21400W        W36531   9.575  17.094  11.338  0.1032 -0.2219  0.1031
21401W        W36532  16.146  13.409   4.741  0.1817 -0.2157 -0.1005
21402W        W36533  14.322  14.725   2.535  0.0916  0.0408  0.2072
21403W        W36534  15.018  17.312  11.191  0.0506 -0.0519 -0.0016
21404W        W36535   9.046   5.004   0.160  0.3852  0.5128 -0.0956
21405W        W36536   7.182  14.407  14.871  0.1547 -0.0112  0.0569
21406W        W36537   8.219  17.614   0.912  0.3460 -0.0204  0.1985
21407W        W36538   4.903  14.065   2.290  0.2873 -0.1983  0.2615
21408W        W36539  12.363  16.990   0.429  0.0643  0.1682 -0.4201
21409W        W36540  12.853   4.062   3.160 -0.2456  0.2406 -0.3664
21410W        W36541  14.035   6.353  15.205  0.1749 -0.0970  0.3803
21411W        W36542  16.338  12.314   3.504  0.1799  0.2045 -0.0355
21412W        W36543   9.948  12.538   3.012  0.0459  0.2437 -0.2508
21413W        W36544   0.749  16.279   3.799 -0.1448  0.2523  0.2570
21414W        W36545  17.320  12.648   4.919 -0.1380 -0.1648 -0.0316
21415W        W36546  10.492   6.210  11.346  0.1467  0.0736  0.0211
21416W        W36547  10.693  11.333   3.906  0.2419 -0.3168  0.3515
21417W        W36548   1.366  15.682  13.848 -0.0771 -0.0510 -0.1015
21418W        W36549   2.832  13.402  13.169 -0.2202 -0.1110  0.3021
21419W        W36550  17.898   4.721   4.093 -0.1144  0.0021 -0.2846
21420W        W36551   0.123   7.704  13.492  0.0773 -0.1574  0.4362
21421W        W36552  13.896   6.427  14.656 -0.0244 -0.1436  0.0677
21422W        W36553   0.505   2.863   4.814  0.0684 -0.1226 -0.4121
21423W        W36554   7.385   8.045  12.907 -0.1344 -0.3078 -0.0639
21424W        W36555   2.448  14.317  13.005 -0.1629  0.0669 -0.0224
21425W        W36556  16.390   7.668   0.031 -0.1045  0.0131 -0.0458
21426W        W36557   9.943   8.158  12.359  0.0724  0.0655 -0.1710
21427W        W36558   5.412   3.019   0.919  0.1659 -0.1968  0.2782
21428W        W36559  13.794   6.538   4.094 -0.2946  0.0658  0.0054
21429W        W36560   8.165   9.429   0.623 -0.0086  0.2262  0.0783
21430W        W36561   8.565  16.310  12.742 -0.0629 -0.1757  0.2178
21431W        W36562   4.324   5.948  15.667 -0.1678 -0.1739  0.4249
21432W        W36563   8.439  10.645  14.985  0.1843  0.0109 -0.0867
21433W        W36564   4.383   6.602  10.532 -0.1162  0.0095  0.1223
21434W        W36565   8.375  18.591  12.777 -0.0482 -0.1911 -0.1415
21435W        W36566   8.632  10.630   0.638  0.4191 -0.0531 -0.0783
21436W        W36567  13.016  17.666  10.642  0.1507 -0.0675 -0.0275
21437W        W36568   0.486  18.461   5.657 -0.0913 -0.2081  0.2408
21438W        W36569   2.874   7.588   0.951 -0.0559 -0.2385 -0.2663
21439W        W36570   8.642  12.601   3.107 -0.0088  0.1293  0.1141
21440W        W36571   2.959   0.481   0.724  0.0896 -0.4693  0.0637
21441W        W36572   1.136  14.150   4.304 -0.3525 -0.0824  0.2094
21442W        W36573  11.529  14.808  15.737  0.1132 -0.2592 -0.1792
21443W        W36574  12.055   4.272   1.703 -0.2914  0.3170 -0.1018
21444W        W36575  12.141   5.895  11.844  0.3621  0.0006  0.1567
21445W        W36576   5.251   0.109  11.937 -0.2711 -0.0086  0.1517
21446W        W36577   3.800  11.299   2.080 -0.0081 -0.1703  0.0656
21447W        W36578  17.372   8.832  11.558  0.0719 -0.1278 -0.0322
21448W        W36579   8.584  10.754   4.624  0.2772  0.0795  0.1331
21449W        W36580  10.882  12.547   1.149 -0.6191 -0.3545 -0.0917
21450W        W36581   3.700   9.932  10.895  0.3505  0.1402 -0.1205
21451W        W36582  16.338   1.565   1.830  0.2366 -0.0719 -0.0034
21452W        W36583  13.422  16.841  12.704 -0.1414 -0.0914  0.2555
21453W        W36584  10.084   9.194  13.249 -0.2799 -0.1063 -0.0864
21454W        W36585  11.188  15.721  12.803  0.0425 -0.0770 -0.0535
21455W        W36586  11.872  12.218  13.368  0.2791 -0.1008 -0.1401
21456W        W36587   8.889   5.542  13.835 -0.2802 -0.1713 -0.0054
21457W        W36588  15.912  15.095   1.581 -0.0158  0.0704 -0.0929
21458W        W36589  15.258   1.772   1.964  0.0119  0.0549  0.0490
21459W        W36590   9.793   8.765   0.088  0.1200 -0.1110  0.1021
21460W        W36591  18.572  18.444   6.187  0.3148  0.0180 -0.0082
21461W        W36592   1.792  16.815  11.863  0.0222  0.0770  0.0818
21462W        W36593  15.891   2.685  11.992 -0.4842 -0.0565  0.1885
21463W        W36594  16.266  18.427  15.145 -0.1492 -0.0308  0.1164
21464W        W36595  12.269   9.256  12.479  0.0040  0.1088 -0.0169
21465W        W36596   1.430   6.023   0.767  0.0613 -0.0114  0.1131
21466W        W36597   8.837  17.490  13.236 -0.1645 -0.1993 -0.1634
21467W        W36598  15.071  14.851   1.422 -0.1194 -0.0349  0.0473
21468W        W36599   2.100   8.400  10.573 -0.3712 -0.2470  0.2917
21469W        W36600  14.653   3.711   1.527  0.0092  0.2224 -0.2273
21470W        W36601   1.589  10.296   1.075 -0.1928 -0.0872  0.1534
21471W        W36602  17.991   6.630   4.346  0.2521 -0.0342 -0.1250
21472W        W36603  10.293  14.473   4.530 -0.0773  0.1002 -0.0733
21473W        W36604   4.479  15.326  12.574 -0.0718 -0.0294  0.1170
21474W        W36605   2.931  10.827   1.825  0.1003 -0.0099  0.3394
21475W        W36606   5.850   4.383   1.004  0.3859 -0.2791 -0.3542
21476W        W36607   2.291  12.837   2.218 -0.2417 -0.0738 -0.1399
21477W        W36608  10.510   3.042  11.092  0.1884 -0.0525 -0.1516
21478W        W36609   6.108   5.312  12.397 -0.3415 -0.0922  0.0426
21479W        W36610   9.978  10.817  14.423 -0.2829  0.0689 -0.0333
21480W        W36611  15.588   0.459   1.281 -0.0504  0.0048 -0.2649
21481W        W36612  15.427   6.475   4.588 -0.1523  0.1902  0.1365
21482W        W36613   3.634   5.032   2.240 -0.2855 -0.1457  0.1487
21483W        W36614   8.241   6.157   0.488  0.0277  0.0150 -0.2151
21484W        W36615   7.757   4.962  12.331  0.0083 -0.0999  0.0460
21485W        W36616  11.385   6.480   1.698  0.2527 -0.1270 -0.1237
21486W        W36617   6.597   5.973  11.515 -0.1619 -0.1524 -0.1666
21487W        W36618  15.563   2.004   1.615 -0.1217  0.1879 -0.1789
21488W        W36619   3.973  12.190  15.239  0.0132  0.2590 -0.1499
21489W        W36620   1.987   5.259   1.180  0.0964 -0.2025 -0.2439
21490W        W36621   7.340   0.866   4.543 -0.1228 -0.4587 -0.0793
21491W        W36622   8.484  12.919  11.535 -0.1316  0.1001  0.2011
21492W        W36623   9.322   0.496  10.176 -0.0480 -0.1483 -0.0921
21493W        W36624   1.402  11.558   1.143  0.1281  0.0426 -0.1717
21494W        W36625  15.122   7.940   1.542  0.3609 -0.0090  0.3274
21495W        W36626   7.591   3.660  14.246 -0.0527  0.1191 -0.1300
21496W        W36627   6.093   5.865   3.323  0.2598  0.1096 -0.1133
21497W        W36628  11.189   4.575   0.903  0.2249 -0.1049 -0.2297
21498W        W36629   8.174   7.059  11.880  0.0570  0.0207 -0.2154
21499W        W36630   0.208  11.087  11.880  0.1343  0.2409 -0.2017
21500W        W36631   2.885   8.929   2.042 -0.5543  0.4480  0.3620
21501W        W36632  17.627   3.456   0.183 -0.0600 -0.1263 -0.1055
21502W        W36633   4.508   6.289   1.898  0.3045  0.1524  0.0927
21503W        W36634  11.351   4.071   0.088 -0.1155  0.0255 -0.1044
21504W        W36635  14.880  18.579   3.244  0.2431 -0.0807  0.0159
21505W        W36636   6.296  17.273   3.470  0.2595  0.0763 -0.0577
21506W        W36637  10.301  14.411  12.645 -0.1703  0.0642 -0.0049
21507W        W36638  11.626   1.422  11.515  0.2419  0.1899  0.0007
21508W        W36639  12.510   3.543  13.227  0.3392  0.1013 -0.2645
21509W        W36640   6.176  11.496  11.896  0.1024 -0.1518  0.2879
21510W        W36641   1.839   2.748   3.643  0.0465  0.0912 -0.0669
21511W        W36642   7.642  10.176   5.298 -0.2306 -0.3433 -0.3846
21512W        W36643  14.622   2.886   5.894 -0.0998  0.2861  0.0405
21513W        W36644  14.290  12.090  15.154 -0.0577 -0.1113 -0.1104
21514W        W36645  11.226  18.449   0.955 -0.0638 -0.0022  0.0952
21515W        W36646  14.937  16.077  13.401 -0.2421 -0.1070 -0.1748
21516W        W36647  14.457   1.290  12.696 -0.0504 -0.0745  0.1388
21517W        W36648   6.431  16.383   4.749 -0.5042 -0.4052  0.0537
21518W        W36649   3.581   1.221  11.505  0.0562  0.1187 -0.3883
21519W        W36650   9.985  12.368   0.827  0.0901 -0.0200  0.2291
21520W        W36651  15.157  18.595   5.655  0.0807 -0.2308 -0.2865
21521W        W36652   5.787   0.539   4.313 -0.3807 -0.1006  0.1498
21522W        W36653  16.705  12.054   3.764 -0.0420  0.0045 -0.0578
21523W        W36654   1.155   7.202   9.550 -0.2249  0.0557  0.4544
21524W        W36655  15.646   1.610  13.525  0.0417 -0.1181 -0.0923
21525W        W36656   7.387   8.202  11.857 -0.0283 -0.1027 -0.0562
21526W        W36657   4.463   4.346   2.803  0.0674  0.2945  0.1971
21527W        W36658  15.996   7.720   2.165 -0.1273 -0.1123  0.1324
21528W        W36659  13.300   0.856   3.585  0.0432 -0.0591 -0.1751
21529W        W36660  12.115  13.994  11.019 -0.1257  0.4025 -0.1389
21530W        W36661  11.900   1.905   6.113 -0.2269  0.1413 -0.0586
21531W        W36662   8.630   1.669   4.791  0.1519  0.3309 -0.0954
21532W        W36663   7.358  11.878   0.771 -0.2965 -0.3039 -0.1475
21533W        W36664   9.995  15.050   2.676 -0.2717  0.2860 -0.2969
21534W        W36665   2.485  16.865   3.719  0.1707 -0.1928 -0.2147
21535W        W36666   9.206  14.548  14.022 -0.0143 -0.0498  0.0406
21536W        W36667   6.586   1.704   2.327  0.2720 -0.0810  0.2834
21537W        W36668  15.999   5.770   0.468 -0.1362 -0.0049  0.2183
21538W        W36669  15.741   6.463   2.871 -0.0250 -0.1290 -0.1536
21539W        W36670   4.227  15.376   3.089 -0.4591 -0.3234 -0.3500
21540W        W36671  17.064  11.313   2.146  0.0949 -0.2498  0.2280
21541W        W36672   6.528   8.156  10.799 -0.1382 -0.1089  0.4848
21542W        W36673  16.765   4.873  13.933 -0.0936  0.0237  0.2760
21543W        W36674  16.354  10.010  11.419  0.3596 -0.1191  0.1456
21544W        W36675  17.941   4.499  11.464  0.2659  0.2756  0.3039
21545W        W36676  16.704  10.783   1.251 -0.0550 -0.1740  0.0108
21546W        W36677   9.693   5.119  14.838 -0.2882  0.2078 -0.0870
21547W        W36678   1.646   7.322   2.494 -0.2038  0.2814  0.0570
21548W        W36679  13.937   8.912  11.109  0.0398 -0.0066 -0.1798
21549W        W36680   5.956  11.906   1.322 -0.2081 -0.0753 -0.0785
21550W        W36681   3.754   3.819   2.408  0.0619 -0.2726 -0.0156
21551W        W36682   4.186  11.702   5.185 -0.2837  0.1828 -0.4070
21552W        W36683  16.667   3.849   1.903 -0.1732  0.1076 -0.1333
21553W        W36684  14.552   2.845  11.122  0.2606 -0.0903 -0.0281
21554W        W36685   4.333  17.913   4.205 -0.0070  0.0218  0.0775
21555W        W36686   2.420   5.847   5.487  0.2096  0.0157 -0.4274
21556W        W36687  13.710   9.199   3.450 -0.2247  0.0560  0.1217
21557W        W36688  17.572  12.893  11.940  0.0913 -0.2618 -0.0446
21558W        W36689   5.531  11.077   2.185 -0.0064  0.0136  0.1172
21559W        W36690   7.530  11.468   3.023 -0.0525  0.3349 -0.2404
21560W        W36691   7.403   6.816   4.630 -0.3933 -0.0559  0.6322
21561W        W36692   0.918  16.276   5.026  0.2191  0.2598 -0.2288
21562W        W36693  14.485   1.978   3.834 -0.2995  0.0276  0.2340
21563W        W36694   8.983  10.700   2.194 -0.1698 -0.1448 -0.0699
21564W        W36695   8.441  16.875   3.103  0.0029  0.0949  0.3924
21565W        W36696  11.826  16.861  12.941 -0.2795  0.0553 -0.1033
21566W        W36697   2.440  12.961  15.422  0.1010  0.3966  0.3193
21567W        W36698   4.007  13.598   3.408 -0.1068 -0.0294  0.0599
21568W        W36699   5.176   3.195  11.288  0.3016 -0.1150 -0.2640
21569W        W36700   7.715  13.595  13.005 -0.2544  0.1188 -0.2360
21570W        W36701  14.060  12.051  11.421 -0.1784 -0.2107  0.1858
21571W        W36702   1.332  12.855   4.354  0.1881 -0.0255  0.4038
21572W        W36703   7.189  10.330  14.147  0.2314 -0.1711 -0.0139
21573W        W36704   7.959   7.160  14.963  0.1264  0.1694  0.2011
21574W        W36705   4.717   8.855  10.905 -0.3651  0.0845  0.0633
21575W        W36706  10.641   6.392   3.171  0.0119 -0.3563 -0.0258
21576W        W36707  11.991   3.495   2.687  0.0066 -0.0473 -0.2235
21577W        W36708   3.361   8.529  12.020 -0.0198  0.1187 -0.1695
21578W        W36709   3.414   3.841  10.955 -0.2205  0.0610 -0.0165
21579W        W36710   1.901   5.855   1.131 -0.3572  0.0303 -0.0091
21580W        W36711   8.134   6.935   5.034 -0.1457  0.1493  0.3861
21581W        W36712  16.434  11.981  12.185 -0.1920  0.1145  0.0509
21582W        W36713  12.559  15.641   1.288 -0.3330 -0.1223 -0.2474
21583W        W36714  13.772   8.325  13.870  0.1489  0.3809  0.3319
21584W        W36715  11.669   5.424  13.432  0.2132  0.2459 -0.0221
21585W        W36716   8.215   2.653   5.513 -0.0153  0.2761  0.0917
21586W        W36717  13.523  13.064   0.118 -0.1021  0.0829  0.1634
21587W        W36718   9.430  16.573  11.862 -0.1725  0.0904  0.0622
21588W        W36719  14.152  15.242   4.916 -0.1916 -0.0182 -0.0791
21589W        W36720   3.634   0.052  12.778  0.1166 -0.0479 -0.2584
21590W        W36721   2.617  14.624   3.187 -0.0224 -0.0953  0.0182
21591W        W36722  18.501   3.565  15.717 -0.0274  0.3345  0.2294
21592W        W36723  11.425  17.062  13.125 -0.0337  0.0636 -0.0582
21593W        W36724   6.445  13.231  13.613  0.0417  0.1612  0.1518
21594W        W36725   0.416  12.607  14.306 -0.0570  0.2491 -0.0304
21595W        W36726  17.960  12.907   0.301  0.0833  0.0614 -0.2441
21596W        W36727  12.174  11.365   0.208 -0.0046 -0.0781  0.1009
21597W        W36728  10.244  11.712   3.076  0.0290 -0.0585 -0.0194
21598W        W36729  14.221  15.516  12.927  0.0527 -0.2410 -0.0511
21599W        W36730  14.845   9.211   4.560  0.1639  0.0703  0.1608
21600W        W36731  14.498   4.855   0.503  0.3340 -0.0209 -0.2841
21601W        W36732  14.949   5.794  10.851 -0.2607  0.0167  0.3927
21602W        W36733  16.789   4.569   0.206 -0.3818 -0.1836  0.3431
21603W        W36734  16.941  16.553  10.880 -0.0451  0.1974  0.0686
21604W        W36735  16.077  16.740   3.081 -0.1047  0.1439 -0.0986
21605W        W36736   0.498  10.063  14.977 -0.0827 -0.1683 -0.1145
21606W        W36737  15.512   9.343   5.493  0.0559 -0.1142  0.1464
21607W        W36738  11.768  13.416   3.092 -0.0979 -0.3122 -0.1903
21608W        W36739  15.931  12.782  11.123 -0.2375 -0.2315  0.2958
21609W        W36740  13.682   4.166   0.681  0.0581 -0.3935 -0.1981
21610W        W36741  17.168  17.007   4.834  0.0363 -0.0020 -0.2793
21611W        W36742   9.965  14.106   3.017 -0.1807 -0.1833 -0.2332
21612W        W36743  10.880   2.125  10.291 -0.2094  0.0433  0.1110
21613W        W36744   0.446   1.061   2.850  0.1362  0.1379  0.3021
21614W        W36745   4.650   5.152   4.941  0.0417 -0.1197 -0.2735
21615W        W36746   8.636   7.488  14.551 -0.2923  0.0192  0.0476
21616W        W36747   9.038   6.140   1.204  0.1895  0.0320  0.1507
21617W        W36748   8.019   2.200  11.029 -0.0723 -0.1029  0.3542
21618W        W36749  18.093  16.979  14.367 -0.0635  0.1552 -0.0040
21619W        W36750  13.234   3.119   4.321  0.2182 -0.3272 -0.2278
21620W        W36751  13.050  18.461  11.331  0.0022  0.0931  0.4255
21621W        W36752   9.473  16.083  11.831  0.0258 -0.1545  0.0372
21622W        W36753  13.508   8.491  12.797 -0.1079  0.0369 -0.2830
21623W        W36754  14.307  12.797   5.247  0.3115  0.1533  0.0722
21624W        W36755  14.992   3.036   0.869  0.0231 -0.2129 -0.0220
21625W        W36756   0.199  10.948   3.748 -0.4316 -0.3006  0.2313
21626W        W36757  17.788  13.412   4.659  0.0076 -0.0116  0.2568
21627W        W36758   7.869  13.387  15.271  0.1241 -0.1857 -0.1058
21628W        W36759   9.504   7.993   1.768  0.2636 -0.0479 -0.0984
21629W        W36760   5.155  12.310   0.958  0.2667 -0.2034  0.2912
21630W        W36761   4.666  15.699   3.852  0.0262 -0.0676  0.1357
21631W        W36762   2.777   6.973   1.669  0.0660 -0.0594  0.0235
21632W        W36763  15.693  14.237  14.299  0.1036  0.1371 -0.0170
21633W        W36764  15.678   0.506   3.145 -0.1398 -0.1278  0.1947
21634W        W36765  10.178  15.181   4.460 -0.1084 -0.1159 -0.2045
21635W        W36766  12.618   7.367   4.138  0.0319  0.1308 -0.2561
21636W        W36767   1.339  13.921   2.281  0.0439 -0.0747 -0.1607
21637W        W36768   4.775  14.229  12.738  0.1629 -0.1807  0.6898
21638W        W36769   7.875   1.755  13.108 -0.0602  0.1118 -0.0585
21639W        W36770  17.400   7.950   4.137  0.2115 -0.1976 -0.1597
21640W        W36771   9.179   1.181   2.085 -0.1207  0.0242 -0.1621
21641W        W36772   2.005  17.847   1.218  0.0392 -0.0986  0.1579
21642W        W36773  14.401  10.865  12.003  0.1567  0.3055 -0.1444
21643W        W36774  17.137   6.309  13.206 -0.1748  0.0992 -0.2599
21644W        W36775  13.142   5.460  14.254 -0.0226 -0.1301 -0.1691
21645W        W36776   6.524  16.721  13.362 -0.1175  0.1430 -0.1075
21646W        W36777  15.938  12.601  11.656  0.3416 -0.1253 -0.2537
21647W        W36778  16.870  13.033   2.328 -0.0133 -0.1085  0.3623
21648W        W36779   6.007  13.965  11.413 -0.0504  0.3548 -0.0676
21649W        W36780  17.799   8.962  10.192 -0.0531  0.0702 -0.0817
21650W        W36781   2.054  14.300  11.096  0.1539  0.0648 -0.2101
21651W        W36782   5.298  10.596  15.656 -0.0674 -0.0102 -0.2258
21652W        W36783  15.938   9.423   0.722  0.1612 -0.0544 -0.4296
21653W        W36784   7.044  16.317  12.530  0.2668  0.0947  0.3301
21654W        W36785  18.118   2.853  13.452 -0.3473 -0.0630 -0.2714
21655W        W36786  16.295   0.067   2.504  0.0118 -0.1172 -0.3851
21656W        W36787   8.348   8.698  12.454 -0.1346 -0.0266 -0.2882
21657W        W36788   7.464   1.726  14.566  0.0840 -0.0751  0.2198
21658W        W36789   5.398   5.781  14.429 -0.1434 -0.2035 -0.1318
21659W        W36790  17.896   0.339   2.811  0.0366 -0.1863 -0.0143
21660W        W36791  14.031  13.272   1.376  0.2497 -0.2054 -0.0744
21661W        W36792  17.648   1.728   1.741  0.2940 -0.0633  0.1514
21662W        W36793  17.598   8.235  12.734 -0.1304 -0.1851  0.1142
21663W        W36794   6.109  10.762  13.425  0.1824  0.0315 -0.1535
21664W        W36795  11.413   9.535  15.375 -0.0019 -0.0095 -0.0914
21665W        W36796   3.332  14.148  13.851 -0.2568  0.4130 -0.1900
21666W        W36797   8.638  10.337   1.047  0.3340  0.3744  0.2657
21667W        W36798   5.616   5.764  15.633 -0.0905 -0.3817  0.1610
21668W        W36799  14.602   1.944   1.751 -0.4072 -0.4306  0.0595
21669W        W36800   2.980   8.499  11.223 -0.0831  0.2903  0.0098
21670W        W36801  10.955  10.616  11.473 -0.2112 -0.0573  0.0059
21671W        W36802   6.174  18.667   2.737  0.0515 -0.3429 -0.0850
21672W        W36803   5.537  11.065   1.443 -0.1827 -0.0951 -0.2599
21673W        W36804  15.083  12.787   2.946 -0.2046  0.4050 -0.1098
21674W        W36805  13.810   7.007   3.770 -0.3770  0.0297 -0.1049
21675W        W36806   9.478  10.360  14.551 -0.0894 -0.0707 -0.1784
21676W        W36807  14.953   7.503   1.348 -0.1353 -0.0667  0.1657
21677W        W36808   8.891  16.832  15.237  0.1573  0.2399 -0.2021
21678W        W36809   8.181  15.824   2.858 -0.3865  0.0512  0.0436
21679W        W36810   0.586   9.655  13.119  0.1420  0.0988 -0.2822
21680W        W36811  14.358  18.621  15.616  0.0791  0.1617 -0.1752
21681W        W36812   7.063  16.634   5.545  0.2117 -0.1714 -0.0109
21682W        W36813   1.064  10.690   0.059 -0.0146  0.0449  0.0781
21683W        W36814   9.245  16.585  12.346 -0.0916  0.1525 -0.1834
21684W        W36815  13.639  10.873  11.355 -0.0617 -0.1949 -0.0388
21685W        W36816  14.341   9.201   1.805  0.0460 -0.1440  0.0353
21686W        W36817  15.424   6.446   5.133  0.4264  0.5015  0.0716
21687W        W36818  17.190  17.775   4.486 -0.1443 -0.4064  0.2799
21688W        W36819   2.430  15.750  11.176  0.2198  0.0198  0.2479
21689W        W36820  18.317   2.358   2.184 -0.1680 -0.1215  0.0246
21690W        W36821  11.451   8.733   0.736 -0.0006  0.1997  0.2739
21691W        W36822   8.083   1.275  11.189 -0.0834  0.0797 -0.0008
21692W        W36823  16.014  14.978   4.897 -0.0567  0.2676 -0.0696
21693W        W36824  12.908  10.632  15.170  0.1454  0.0310 -0.2233
21694W        W36825  13.820   7.205  11.447 -0.0795 -0.0790  0.0480
21695W        W36826  10.632   3.212  14.049  0.1437 -0.0848 -0.0495
21696W        W36827   6.197   6.054  11.241  0.1525 -0.1800 -0.2061
21697W        W36828   1.361   2.592   3.823 -0.1913 -0.0661 -0.1748
21698W        W36829   9.924  10.358  11.225  0.1343  0.1724  0.4089
21699W        W36830   4.449  11.803  12.159 -0.0280  0.0285  0.1564
21700W        W36831   1.693   5.852  10.223 -0.0759 -0.1618  0.0339
21701W        W36832   0.149   9.903  10.872 -0.2076  0.1497  0.1990
21702W        W36833   9.318  15.149  15.270 -0.0687  0.0786  0.0704
21703W        W36834   4.568   2.398  11.480 -0.0972  0.3349 -0.0496
21704W        W36835  11.015  11.840   2.475 -0.1983  0.0435  0.0279
21705W        W36836  15.893   9.958  12.732 -0.1430  0.1338  0.1720
21706W        W36837   1.888  17.626   1.631  0.0259 -0.2866 -0.1471
21707W        W36838   3.468   3.429   0.644 -0.0512  0.1833  0.0637
21708W        W36839   0.449  10.472   3.488  0.0673 -0.2590  0.1431
21709W        W36840  10.873   5.956  11.151  0.2636 -0.2423  0.0311
21710W        W36841  12.857  15.918  11.948 -0.0040  0.1017 -0.1317
21711W        W36842  14.147   0.030  15.155 -0.3054  0.3686 -0.2052
21712W        W36843   9.553   4.294  11.117 -0.0901  0.0889 -0.2956
21713W        W36844  16.095   4.590   3.918 -0.1229  0.3254  0.0811
21714W        W36845   7.843   4.778  11.824 -0.0663 -0.1379  0.0288
21715W        W36846  11.003   4.857  11.361  0.0659  0.2516  0.3202
21716W        W36847   1.738  12.283  14.220  0.2295 -0.1927 -0.3446
21717W        W36848  14.036  18.412  14.364  0.2050  0.4552  0.2832
21718W        W36849  13.603   5.384   0.519 -0.0913  0.0845 -0.0932
21719W        W36850  13.090  17.831  15.560  0.1013 -0.0796  0.1303
21720W        W36851  10.021  17.072  12.359  0.0783 -0.2012 -0.1804
21721W        W36852   7.895  11.639  11.928 -0.0997  0.0291  0.5517
21722W        W36853   1.231  16.403  10.603  0.1269  0.0947 -0.1049
21723W        W36854   6.887  14.162   3.157  0.1103 -0.0339  0.1266
21724W        W36855   6.551  16.781  13.959 -0.1587  0.2160 -0.1524
21725W        W36856   3.072   8.741   3.909  0.1111  0.0501  0.0628
21726W        W36857   7.116  12.491   2.085 -0.1040  0.2099  0.2483
21727W        W36858  17.725   8.268   4.347  0.1131  0.2778  0.1585
21728W        W36859  17.202   6.170  12.365  0.3069 -0.2589 -0.1235
21729W        W36860   8.244   7.328   4.281 -0.2661  0.1088 -0.0636
21730W        W36861  16.866  14.059   4.381  0.2076 -0.1801  0.1543
21731W        W36862  14.751  16.386  11.284  0.1228 -0.0227 -0.0660
21732W        W36863   1.977   5.961   3.402  0.0895 -0.2245  0.0632
21733W        W36864   1.257  16.671  15.174  0.0006 -0.0254  0.1421
21734W        W36865  10.569   7.779   2.009  0.0091 -0.0593 -0.2097
21735W        W36866  16.519   9.746   2.700  0.2945  0.0556 -0.2005
21736W        W36867   4.200  15.712  12.482  0.1042  0.0671 -0.3952
21737W        W36868   8.683  14.478  11.017 -0.3315  0.4585 -0.1509
21738W        W36869   9.619  18.326  12.947 -0.1261 -0.0780 -0.1024
21739W        W36870   4.172   4.862  15.243  0.2133  0.0276 -0.2279
21740W        W36871   1.847  18.313  11.628  0.0587  0.2528 -0.2118
21741W        W36872  14.606   8.899  15.225  0.0377  0.1412 -0.2169
21742W        W36873   4.843   8.719  14.547 -0.1237  0.0147  0.0562
21743W        W36874  14.789  11.766  11.886 -0.2184 -0.0087 -0.1982
21744W        W36875   4.467  17.378  11.329 -0.0014  0.0656 -0.1754
21745W        W36876  16.088   0.381  11.201  0.2029 -0.0340  0.2735
21746W        W36877   6.429   5.987  10.543  0.0980  0.0407 -0.0205
21747W        W36878   3.447  11.620  12.552  0.1651 -0.0633  0.1342
21748W        W36879   7.120  17.436  10.468  0.1802 -0.1026  0.0298
21749W        W36880  10.516  17.465  12.856  0.1327 -0.0512  0.0694
21750W        W36881  15.789   1.828   4.676 -0.3204  0.5057  0.1733
21751W        W36882   7.273   3.231   3.407 -0.1093 -0.1329  0.0922
21752W        W36883   6.211   0.306   3.964  0.2632  0.2807  0.0216
21753W        W36884  10.360  17.810   1.262 -0.1371  0.1787 -0.1943
21754W        W36885   7.178   1.188   3.598 -0.0148 -0.1470 -0.0274
21755W        W36886   4.981  11.742   1.214 -0.0768 -0.0629  0.2627
21756W        W36887  12.551  16.729  12.410  0.0526 -0.1713  0.3648
21757W        W36888  14.030  18.005   2.476 -0.1366  0.0097  0.0290
21758W        W36889   6.908   5.874  10.533 -0.0692  0.2341  0.1102
21759W        W36890   2.202   0.694   5.139  0.0611  0.1475 -0.1077
21760W        W36891  10.720  11.069   4.863  0.1190  0.0995  0.1535
21761W        W36892  18.320   6.077   2.636 -0.2200  0.1856 -0.1522
21762W        W36893  15.253  12.312  11.380 -0.2479 -0.2905  0.5684
21763W        W36894   2.159   6.923  10.888  0.0507 -0.2284 -0.0222
21764W        W36895   0.005   6.834  12.297 -0.2109 -0.0312  0.1347
21765W        W36896  13.715  18.039   0.116 -0.0311 -0.1621  0.0131
21766W        W36897   3.692   8.795  15.745 -0.2217 -0.2232  0.2575
21767W        W36898   9.669  17.242  13.117 -0.2302  0.2534 -0.1406
21768W        W36899  12.559   1.461  11.742 -0.1551  0.1265  0.1083
21769W        W36900  12.456   2.107   4.557 -0.0337 -0.0664 -0.0344
21770W        W36901   0.867   3.398   2.178 -0.1075 -0.1113  0.0854
21771W        W36902   5.687  16.117   2.152 -0.2265 -0.2576 -0.3128
21772W        W36903   0.014  10.925  11.370  0.1940  0.0594 -0.0386
21773W        W36904  12.976   3.530   1.663 -0.1513 -0.2516 -0.0651
21774W        W36905   6.098  16.075  10.648  0.1864 -0.1521  0.1098
21775W        W36906   9.301   6.374  14.386  0.1632  0.1421 -0.3140
21776W        W36907   4.500   4.756  13.626  0.1498 -0.0406 -0.0533
21777W        W36908   1.903   3.774   3.767  0.1358  0.2045  0.0431
21778W        W36909  18.307  11.105  13.283 -0.0781 -0.1519  0.2491
21779W        W36910  16.094  17.745   5.718 -0.1809  0.3309  0.0438
21780W        W36911   2.661   7.107  11.184 -0.1805 -0.0630 -0.2725
21781W        W36912  17.342   4.906  12.209  0.3392 -0.1776 -0.2401
21782W        W36913   3.653  15.462  13.431 -0.0858 -0.1826  0.1113
21783W        W36914   6.147  11.242   3.306 -0.3023 -0.1032 -0.5100
21784W        W36915   8.103   8.013   2.768  0.1530 -0.2192  0.1893
21785W        W36916   0.562  12.770   2.123 -0.0345  0.2124  0.1353
21786W        W36917   9.702  12.552   1.687 -0.0119 -0.1425 -0.5166
21787W        W36918   8.004   8.721   2.219  0.2183  0.0358  0.1147
21788W        W36919   4.719  11.945  11.412 -0.1833 -0.1495  0.0618
21789W        W36920   6.742   8.621   3.582  0.3344  0.0478 -0.0955
21790W        W36921  15.245  15.507   2.107 -0.4239  0.1195 -0.0313
21791W        W36922   7.230  18.469  13.601 -0.4035 -0.2069  0.1110
21792W        W36923   1.797   7.422  13.661 -0.0745 -0.2017  0.3764
21793W        W36924   2.950  14.915  10.863 -0.2188  0.0107  0.2578
21794W        W36925   6.305  14.016  11.806 -0.1870 -0.0585  0.1449
21795W        W36926  18.385  12.030   3.133  0.0529  0.1422 -0.2709
21796W        W36927   6.390   9.110   6.158 -0.1562 -0.2233 -0.1700
21797W        W36928   3.762   2.545  14.894 -0.0871 -0.1406 -0.0246
21798W        W36929   6.386   0.654  10.455  0.2329  0.2985  0.2274
21799W        W36930  14.811   7.907   9.580  0.0776 -0.1740  0.2885
21800W        W36931   5.013  17.800  10.018 -0.0244  0.0228 -0.3672
21801W        W36932  11.193   5.863  13.966 -0.3606  0.0095 -0.2453
21802W        W36933   2.586   9.716  13.486  0.1154  0.0287 -0.2504
21803W        W36934   7.150  12.188  11.825 -0.0994  0.2799  0.3534
21804W        W36935   6.254   7.368  12.921  0.2209 -0.1798 -0.0659
21805W        W36936   1.254   6.109   1.661 -0.0535  0.0248 -0.0034
21806W        W36937   3.086  11.940   1.160 -0.1575 -0.0036 -0.0945
21807W        W36938  18.117  11.954   0.481  0.1893  0.1910  0.1227
21808W        W36939   0.942   6.887   1.947 -0.3226 -0.3963 -0.2774
21809W        W36940  14.443   1.622   0.336 -0.0337  0.2893  0.1305
21810W        W36941  10.159   0.492  13.487 -0.1108  0.1631  0.1558
21811W        W36942   6.181  15.686  13.440 -0.2373 -0.1387  0.4970
21812W        W36943   4.735  11.678   2.203 -0.1737  0.1949  0.0824
21813W        W36944  15.741   3.817   0.926 -0.0865  0.4405 -0.0611
21814W        W36945  18.516  16.089   5.002 -0.0091  0.0858  0.1347
21815W        W36946  18.079   8.663  14.093  0.2073 -0.1769  0.4001
21816W        W36947   2.368   9.082   3.083  0.1434 -0.2702  0.0910
21817W        W36948  16.094   6.686   3.359 -0.1123  0.0184  0.1939
21818W        W36949  12.027   7.675  12.476  0.2691 -0.0657 -0.4059
21819W        W36950   4.361  11.481   2.655 -0.2499  0.0618  0.2439
21820W        W36951  15.033  13.754   1.516 -0.2590 -0.0152 -0.4062
21821W        W36952   4.399   2.528   2.747  0.3797 -0.0363  0.1715
21822W        W36953  17.008  16.266  15.212  0.2750 -0.3196  0.2549
21823W        W36954  13.149   3.346   2.770  0.0214 -0.0319  0.0961
21824W        W36955   4.311  13.340   1.211  0.0786 -0.0935 -0.0101
21825W        W36956  17.993   1.088   1.178  0.0542  0.0602  0.0515
21826W        W36957  11.894   4.090  14.971  0.1272  0.0063  0.2295
21827W        W36958   4.849   8.037   4.240  0.2215 -0.2599 -0.2774
21828W        W36959   6.401  17.295   2.498  0.3036  0.2382 -0.0346
21829W        W36960   1.794  10.714  10.565 -0.0282 -0.1208 -0.3908
21830W        W36961   1.515   1.600   2.847 -0.0573 -0.2384 -0.1294
21831W        W36962   2.859   1.045  11.550  0.0430 -0.2829  0.0468
21832W        W36963  14.291  13.263  11.621  0.0593 -0.3232  0.3912
21833W        W36964   9.165   0.398   5.095 -0.2920 -0.0936  0.0506
21834W        W36965  14.778  14.930  10.952 -0.4274  0.0288  0.0948
21835W        W36966  12.632   1.316  12.219 -0.3991  0.3749  0.0157
21836W        W36967   5.734   6.539   5.364 -0.1476  0.1072  0.1911
21837W        W36968  12.207  16.378  14.321  0.0614  0.0028  0.0863
21838W        W36969   7.729   9.791  11.830 -0.1723 -0.2248 -0.0205
21839W        W36970   8.710   9.870   2.341 -0.1449 -0.1118 -0.1530
21840W        W36971  16.231   3.996  11.098  0.2629 -0.2030  0.1989
21841W        W36972  14.382   1.195   0.644 -0.0031  0.1872  0.1577
21842W        W36973   0.071   6.352  12.296  0.0501  0.1683  0.0944
21843W        W36974   0.566  10.073   3.101  0.0178 -0.0701  0.1605
21844W        W36975  10.764   1.744  11.596  0.3138 -0.1171  0.2000
21845W        W36976  13.814  10.771   4.806 -0.0865  0.0897 -0.0521
21846W        W36977   9.042   4.208   1.315 -0.2785  0.0777  0.1368
21847W        W36978   2.933   7.693  13.765 -0.1231 -0.2240  0.1768
21848W        W36979  10.267  11.329   0.475  0.0896 -0.0879 -0.0900
21849W        W36980   0.268  11.326   4.140  0.1541 -0.3109 -0.1200
21850W        W36981  12.116  14.573  14.264  0.0571  0.1052 -0.3633
21851W        W36982  12.379  14.455  12.776  0.2998  0.0439  0.2426
21852W        W36983  18.555  11.130   2.679 -0.2596  0.0824  0.0252
21853W        W36984  12.462   5.174   4.275  0.0788  0.3063 -0.2934
21854W        W36985  16.316  17.177   3.088 -0.1084 -0.0963 -0.1216
21855W        W36986  16.550   3.559   0.668  0.2821 -0.1843 -0.1047
21856W        W36987   5.489  15.104  15.163  0.0134  0.0016  0.1416
21857W        W36988  17.004  18.363   2.368 -0.1107  0.0645 -0.0267
21858W        W36989  16.792   6.229  14.239 -0.2059 -0.0645  0.0089
21859W        W36990  14.757   8.512  12.116 -0.2475  0.0608 -0.1318
21860W        W36991  13.986   7.436  11.886 -0.1058  0.2917  0.1704
21861W        W36992   9.808   6.819   2.410 -0.1823 -0.1728 -0.0950
21862W        W36993  16.855  13.864  13.669  0.1903 -0.0959 -0.0330
21863W        W36994  18.750   6.630   3.648  0.1004  0.0847  0.0332
21864W        W36995  13.003   3.490  13.143 -0.0238 -0.2548  0.0875
21865W        W36996   1.971   4.079   4.614  0.2010  0.2496  0.0777
21866W        W36997  18.294   6.411   3.429  0.0420 -0.1862  0.2293
21867W        W36998   2.749   3.809   2.516  0.1848  0.2865  0.1475
21868W        W36999   8.526   4.457  12.919 -0.1181  0.0754  0.2418
21869W        W37000   5.400  16.808   9.209  0.5525  0.1137  0.2576
21870W        W37001   0.903  12.517   4.452 -0.2611 -0.1594  0.2808
21871W        W37002   4.287   7.951  12.706 -0.0569  0.1006 -0.1668
21872W        W37003   0.325  14.104   4.712 -0.0018  0.1566  0.0330
21873W        W37004  11.205  14.350   5.083 -0.2862 -0.1502  0.1015
21874W        W37005   0.340   8.548   3.732 -0.1847 -0.2423 -0.4322
21875W        W37006   2.083   9.554   1.105 -0.0543  0.0699  0.1269
21876W        W37007  12.678  15.469  11.623  0.0711 -0.0976 -0.3168
21877W        W37008   4.641   0.116   1.402  0.0988  0.0623 -0.2187
21878W        W37009  10.712   7.957  12.198 -0.1028 -0.0823 -0.0448
21879W        W37010  12.694   8.274  10.249  0.4921  0.1338 -0.2144
21880W        W37011  14.160   2.641   4.857  0.0992  0.1231  0.1087
21881W        W37012  16.441  12.655  10.870  0.1281 -0.1296 -0.1234
21882W        W37013  11.207   0.838   1.093 -0.0026  0.0566 -0.1605
21883W        W37014  16.759  15.644  11.668  0.0048 -0.0993  0.1064
21884W        W37015  10.967   9.029   1.397 -0.0960 -0.2483  0.2898
21885W        W37016   5.511  12.595   0.747 -0.0463 -0.4184 -0.1975
21886W        W37017   3.594   7.970  11.068 -0.0266  0.1586  0.1662
21887W        W37018   8.612  15.926   1.287  0.0836 -0.2836 -0.1648
21888W        W37019  17.846   2.991  12.818 -0.0454 -0.0319  0.2153
21889W        W37020   1.647  14.496   2.951  0.1462  0.0940 -0.0442
21890W        W37021   0.735   0.874   4.337  0.0936  0.0499 -0.2668
21891W        W37022   0.109  12.776  10.929  0.0286  0.1806  0.0954
21892W        W37023  14.854   0.580  10.580 -0.1780  0.1453 -0.2929
21893W        W37024   0.834   3.674  15.194 -0.0520  0.1530 -0.1344
21894W        W37025   0.709   8.486  15.397 -0.2615  0.0811 -0.2382
21895W        W37026   6.197  10.708  12.923  0.0904  0.1508 -0.0247
21896W        W37027   1.213  17.590  12.608  0.2321  0.0938 -0.1771
21897W        W37028   4.513  13.805   0.259 -0.0786 -0.0037 -0.0762
21898W        W37029   5.507   0.960   1.143  0.0607  0.1400  0.0229
21899W        W37030   5.306  18.045  11.374 -0.1220 -0.4056  0.0693
21900W        W37031   4.521  12.910   1.900 -0.1259  0.0808 -0.6732
21901W        W37032  10.567  12.237   0.702 -0.0780  0.0065 -0.1343
21902W        W37033   0.130  16.795   4.732 -0.0125 -0.1573  0.2451
21903W        W37034   9.030   4.677  12.561  0.0148  0.0975 -0.1583
21904W        W37035   3.506   3.760   1.732  0.3099  0.0094  0.0622
21905W        W37036  17.129   4.640   0.568  0.2574  0.0144 -0.2141
21906W        W37037   2.683   9.417   2.124 -0.1236 -0.1329 -0.1113
21907W        W37038  12.729  16.648   3.847  0.2709  0.1549 -0.2395
21908W        W37039   6.550   0.484  12.848  0.0303  0.1537  0.0773
21909W        W37040   2.233   4.478   2.006  0.2759 -0.0250 -0.2562
21910W        W37041   0.953  10.695   2.092  0.2171  0.0635 -0.0041
21911W        W37042  12.484   4.602   1.134  0.0890  0.2450  0.0206
21912W        W37043   1.690   3.288   3.499 -0.1181 -0.0237  0.0988
21913W        W37044   8.046  10.413  13.441 -0.3613 -0.2779  0.1918
21914W        W37045  18.020   1.502   0.183 -0.0257 -0.0244  0.1360
21915W        W37046   8.981  17.640   3.555 -0.0737 -0.2437  0.2961
21916W        W37047   2.477   7.109   3.052  0.1024  0.2438 -0.0197
21917W        W37048   1.195   1.187   0.687  0.0312  0.2047 -0.0956
21918W        W37049  11.635   1.684   4.960 -0.0757 -0.2395 -0.1127
21919W        W37050  11.413   0.277  10.988  0.0034 -0.0725  0.0739
21920W        W37051   7.785   4.915   2.891 -0.3170 -0.0389 -0.1912
21921W        W37052  12.298  14.868  10.600 -0.0663  0.0172  0.1892
21922W        W37053   3.407   7.390   2.505  0.0555  0.1353  0.3131
21923W        W37054  17.180  17.570   0.217  0.0143 -0.1932 -0.2226
21924W        W37055   7.967  11.772   3.214  0.1118 -0.2489  0.2963
21925W        W37056  13.089   0.759   0.523 -0.0492  0.0618 -0.1099
21926W        W37057  15.827   6.641  12.638  0.0566 -0.1551  0.1274
21927W        W37058  17.922   8.788   1.583 -0.2175 -0.0320  0.1867
21928W        W37059   6.395   7.729  10.925  0.1274 -0.1926 -0.0916
21929W        W37060   8.404   6.335  13.475 -0.1801  0.2064 -0.4793
21930W        W37061  15.898  11.858  10.969 -0.2406  0.0307 -0.0837
21931W        W37062  11.643  13.492   5.420  0.1274 -0.0589 -0.0359
21932W        W37063  11.760  17.378   5.161 -0.1296 -0.0937 -0.0814
21933W        W37064   8.570  10.810   5.114 -0.2293 -0.4150 -0.1510
21934W        W37065  10.961   2.585  13.645 -0.1378 -0.5487  0.2044
21935W        W37066  17.605  12.327  12.794  0.2587  0.0368 -0.0385
21936W        W37067  16.343   8.891   2.933 -0.2165  0.0342  0.0001
21937W        W37068   8.519  18.574   5.868 -0.1835 -0.1267 -0.1048
21938W        W37069   8.316  13.789  15.489  0.3124 -0.1464  0.2084
21939W        W37070   3.336  17.254  11.757  0.0247  0.2849 -0.0402
21940W        W37071   0.913  17.340   4.863  0.0862 -0.0578  0.0533
21941W        W37072   2.954   9.225   4.167  0.1530 -0.0714 -0.0317
21942W        W37073  12.921  11.958   4.637 -0.0269  0.0317 -0.1050
21943W        W37074   3.548   9.576  13.501 -0.0031 -0.2699 -0.0735
21944W        W37075  13.971  17.194  14.803  0.0191 -0.2319  0.2173
21945W        W37076  18.402   4.783   4.055 -0.0020  0.0578 -0.1061
21946W        W37077  11.218   0.577   0.601 -0.1254 -0.1089 -0.3339
21947W        W37078  16.246  15.858   4.003 -0.0759  0.2258 -0.0071
21948W        W37079  11.520  17.507  13.248  0.1149  0.0778  0.0126
21949W        W37080  13.273  17.108  11.815  0.2039  0.0615 -0.1429
21950W        W37081  12.681   1.494  12.736  0.0028 -0.0882  0.1042
21951W        W37082   1.672  10.486   4.047  0.2775  0.0033 -0.2308
21952W        W37083  12.419  14.734   0.992 -0.0065  0.2520  0.1006
21953W        W37084   7.317  12.846  14.058  0.2670 -0.3382 -0.3305
21954W        W37085   7.456   7.325   3.878 -0.3850  0.1963  0.0743
21955W        W37086  10.847  12.872   0.636 -0.0558 -0.0991  0.1128
21956W        W37087   8.847   4.832  12.090  0.3260  0.0070 -0.4831
21957W        W37088   3.442  12.292  10.523  0.0916  0.3626  0.1369
21958W        W37089   5.789   8.447   0.369 -0.2142  0.1543  0.0515
21959W        W37090   9.244   5.248   1.342 -0.2275  0.2580  0.1026
21960W        W37091  18.673   6.130  10.352 -0.1368  0.0447 -0.1683
21961W        W37092  17.948   3.816  14.367  0.2798  0.0074  0.2249
21962W        W37093   5.785  16.332   3.354  0.1388  0.0050 -0.1556
21963W        W37094  12.380   1.512   4.679  0.0763 -0.1329  0.0133
21964W        W37095  11.848  17.236  15.443  0.0642  0.1475 -0.0287
21965W        W37096  11.086   7.778   1.893  0.0410 -0.0045  0.0001
21966W        W37097   8.844   8.170  14.369 -0.2390  0.0569  0.4360
21967W        W37098   2.580   0.763   0.593 -0.1552  0.1202 -0.2442
21968W        W37099   9.487  18.060  11.051 -0.0865  0.0618  0.1251
21969W        W37100  18.331  16.183   2.513 -0.1003  0.4184  0.1463
21970W        W37101  10.400   3.301  15.377  0.2326 -0.2089 -0.1338
21971W        W37102  15.225  14.578  14.209 -0.1982 -0.1887  0.3263
21972W        W37103   2.070  11.591  14.643  0.0331 -0.1916  0.1885
21973W        W37104  17.842   2.872   2.792  0.0445 -0.0939 -0.3833
21974W        W37105   9.716   1.072  14.393 -0.0084  0.1281 -0.0335
21975W        W37106   1.974  12.508   1.398 -0.1575  0.2262  0.0320
21976W        W37107  17.058  10.810  13.437  0.1691 -0.1497  0.3935
21977W        W37108  17.828  18.341  14.787 -0.1316  0.0058 -0.0799
21978W        W37109  13.445   0.951   1.101 -0.1172 -0.0956 -0.2369
21979W        W37110   4.252   9.860  12.028 -0.2056  0.0187  0.2316
21980W        W37111   1.265  16.786  12.177  0.2344 -0.1960 -0.0484
21981W        W37112  18.438   6.107  12.968  0.1148 -0.2800  0.3893
21982W        W37113   9.274   9.116  11.922 -0.2003  0.1210 -0.1368
21983W        W37114  10.661   1.578   4.778  0.1870 -0.1180  0.0205
21984W        W37115   7.776  13.994   1.753  0.0957 -0.3511  0.1508
21985W        W37116   7.986   0.996  12.947 -0.3017  0.2460 -0.4805
21986W        W37117  15.380   8.843   3.529 -0.0678  0.0895  0.4040
21987W        W37118   6.906   4.342  10.258 -0.2943 -0.0046  0.0425
21988W        W37119  10.815   6.926   0.968 -0.0925 -0.0214 -0.0539
21989W        W37120   1.263  15.464   3.212 -0.1136  0.0994 -0.0083
21990W        W37121  10.892   7.704   2.483  0.1576  0.0159  0.2177
21991W        W37122   4.922   1.065  12.864  0.3295  0.0673  0.1919
21992W        W37123  11.868   4.540   0.373 -0.0422 -0.1000  0.1168
21993W        W37124  12.065  15.650  15.070  0.0407 -0.0457  0.1475
21994W        W37125   9.502   6.162   1.421 -0.0207 -0.0033  0.2595
21995W        W37126   5.411  13.040   9.971  0.2181  0.1547  0.2314
21996W        W37127  13.756   3.005   3.541  0.0675 -0.2301 -0.2527
21997W        W37128  13.036   8.135  12.562  0.1527 -0.2653  0.0710
21998W        W37129   6.887   9.041   0.470  0.0208  0.1214 -0.1834
21999W        W37130  14.690  18.733   3.796 -0.1136  0.0396 -0.2773
22000W        W37131   7.847   4.506   3.185 -0.4036  0.0612  0.3205
22001W        W37132   3.145   6.883  13.328  0.0070  0.0016  0.4414
22002W        W37133  12.119   9.743   1.951  0.0408 -0.0838 -0.0566
22003W        W37134   4.880   6.899   1.477 -0.1436 -0.0657 -0.1721
22004W        W37135   6.844   4.592  11.656  0.1580  0.1591 -0.1068
22005W        W37136  16.356  16.095   5.437 -0.0601 -0.0045  0.0603
22006W        W37137  12.906  11.463  12.259 -0.1263 -0.1147  0.1987
22007W        W37138  15.704   3.437  13.381  0.1129 -0.0184 -0.2010
22008W        W37139  15.111  15.026  15.083 -0.1976  0.1076  0.1467
22009W        W37140  11.247   7.404   2.198 -0.4351  0.3242 -0.3151
22010W        W37141   6.059   2.457  10.536 -0.4438  0.2246 -0.3806
22011W        W37142  17.968  15.219  14.779 -0.2509 -0.1504  0.0089
22012W        W37143   9.979  17.354  10.720 -0.1327 -0.1649  0.0424
22013W        W37144   0.428   8.608   0.342 -0.3480 -0.2582  0.2703
22014W        W37145   3.634   0.949  15.478 -0.4749  0.0078  0.0826
22015W        W37146   6.559   1.993  12.030 -0.1657 -0.1409 -0.1176
22016W        W37147   9.123   0.065   0.320  0.1609  0.2605 -0.0429
22017W        W37148   1.804  13.725  13.028  0.0130  0.0226 -0.2461
22018W        W37149  13.812   4.215  15.420 -0.1684 -0.1056 -0.1546
22019W        W37150   1.703   8.614   9.263  0.2892  0.1422  0.3320
22020W        W37151   2.338  10.183  15.359  0.0934  0.2304  0.0004
22021W        W37152  14.904   9.701   2.238  0.0973  0.3480  0.2260
22022W        W37153  15.266   9.442   2.562  0.1622  0.2160 -0.1448
22023W        W37154   8.859   7.832  15.570  0.1511 -0.2660 -0.1150
22024W        W37155   2.758  11.076  14.536  0.1808  0.1376 -0.1818
22025W        W37156   1.718  17.051   2.329  0.4590 -0.2201  0.0590
22026W        W37157   9.793  18.644   3.075  0.0228  0.1552  0.0346
22027W        W37158  11.488   3.266   4.516 -0.2389 -0.0194 -0.4225
22028W        W37159   9.536   7.679  13.079 -0.1170 -0.0353  0.1110
22029W        W37160   6.021   0.280  15.083 -0.0648  0.0378  0.3385
22030W        W37161  18.660  16.175   3.716 -0.3148 -0.0202 -0.1748
22031W        W37162  18.180  15.124   0.331 -0.1111  0.0523  0.0461
22032W        W37163   9.760  16.867  10.607 -0.3408 -0.1303 -0.1957
22033W        W37164   2.315   6.088   2.270 -0.0498  0.0648  0.2205
22034W        W37165  10.143  11.717  14.035  0.0618  0.0797 -0.0333
22035W        W37166  14.305  14.198   0.689 -0.0649  0.1055 -0.0490
22036W        W37167   5.562  15.088  15.726 -0.1292  0.1518 -0.0987
22037W        W37168   7.073   3.810   4.334  0.2290 -0.1263  0.0761
22038W        W37169  15.215  16.403  10.037  0.1305  0.0438  0.1281
22039W        W37170  12.602  18.217  12.642 -0.1041 -0.0049 -0.0218
22040W        W37171   5.054  12.498  11.802 -0.2096  0.1815 -0.0737
22041W        W37172  11.550  16.124   5.231  0.1898 -0.0429 -0.1273
22042W        W37173   1.020  11.917  13.817  0.2978  0.3543 -0.3934
22043W        W37174   8.087   7.500   2.702 -0.0702 -0.0167  0.0569
22044W        W37175  10.885  18.287  15.533 -0.1785 -0.0230  0.1347
22045W        W37176  14.549  17.036   3.275  0.3271  0.0633  0.0195
22046W        W37177   6.422  11.948   4.392  0.1247  0.1609  0.1781
22047W        W37178  13.750  16.186  10.563  0.1149  0.1177  0.1078
22048W        W37179  12.776   7.271  12.901  0.0427  0.4794 -0.0326
22049W        W37180  13.163   2.153   3.503  0.0472 -0.1141  0.0330
22050W        W37181  17.074  11.094   4.029  0.0256 -0.1682  0.1187
22051W        W37182  10.731  11.267   4.399 -0.3086 -0.2201 -0.2781
22052W        W37183   0.609  15.393   5.440  0.1668 -0.0076 -0.0661
22053W        W37184  15.177   7.130  13.970  0.1002  0.1333  0.0111
22054W        W37185  13.381   2.277   5.249 -0.0583 -0.0218  0.2049
22055W        W37186  12.142   6.487  11.505  0.1625  0.2870 -0.0018
22056W        W37187  10.766   3.389   9.650 -0.1951  0.1422  0.1147
22057W        W37188  17.613   1.216   0.923  0.1178 -0.1453  0.1072
22058W        W37189   3.019  17.956  15.384 -0.2715 -0.3222  0.0066
22059W        W37190  14.490  18.278   4.049  0.0137 -0.1302 -0.0712
22060W        W37191  13.633   1.600  14.151  0.0293 -0.1216 -0.0580
22061W        W37192   9.433  11.273   1.571  0.1927 -0.1729  0.3920
22062W        W37193  11.909   5.641  12.641  0.3339  0.1574  0.0759
22063W        W37194   3.512   2.161   4.243  0.1454  0.1325 -0.0298
22064W        W37195   7.540  16.459   9.963 -0.0253  0.0826 -0.0268
22065W        W37196   3.052   8.138  10.221 -0.3906  0.1723 -0.0761
22066W        W37197   8.304  18.422  14.671  0.1694 -0.0185  0.2479
22067W        W37198   0.473  18.303  14.076  0.0820 -0.3723  0.1480
22068W        W37199  12.546  10.329   1.985 -0.2758  0.2293 -0.0325
22069W        W37200   1.512   0.879  14.956 -0.1153 -0.1395  0.0938
22070W        W37201  13.687   7.412   4.131 -0.0817 -0.0507  0.1298
22071W        W37202  14.857  16.780   2.992  0.0800  0.1999 -0.2900
22072W        W37203  12.482   1.149  15.165 -0.0591 -0.2032  0.1284
22073W        W37204   2.267  12.601  11.666  0.1996 -0.5008 -0.2598
22074W        W37205  17.730   4.467  12.265 -0.0119 -0.1548 -0.0089
22075W        W37206   8.826  10.482   3.585 -0.2322  0.0221 -0.3307
22076W        W37207   2.024  14.089  12.644  0.0866 -0.0069 -0.0407
22077W        W37208   3.039  17.192   6.572  0.0344 -0.2363  0.0746
22078W        W37209  10.576   6.029  12.153 -0.2047 -0.1587  0.2766
22079W        W37210   5.681   1.664   4.568 -0.2157 -0.0528  0.0663
22080W        W37211   9.175   2.429   5.262  0.2662 -0.1239  0.0493
22081W        W37212  11.654   4.876  11.847  0.0464  0.1677 -0.2231
22082W        W37213   5.461  16.415   3.778 -0.2019 -0.1565  0.0233
22083W        W37214  14.524   4.167  14.752  0.1406  0.2646  0.1330
22084W        W37215   1.173   7.288  11.441 -0.0350  0.0202 -0.0063
22085W        W37216   6.381  12.433   1.940 -0.0122 -0.0703 -0.0802
22086W        W37217   7.057   7.621  15.158  0.0337  0.1264  0.0937
22087W        W37218   3.008  18.142   1.970  0.1422  0.0762 -0.0107
22088W        W37219  18.013   0.101   1.998  0.0917  0.0997 -0.2897
22089W        W37220  17.330   2.984   4.647  0.2674 -0.3495 -0.0388
22090W        W37221   5.633   7.054  12.269 -0.1222  0.1414 -0.2042
22091W        W37222  11.377   3.416   0.868  0.1121  0.0939 -0.1482
22092W        W37223  16.516   2.286  12.918 -0.0798 -0.1162  0.1316
22093W        W37224   7.537  15.101  13.803 -0.3105 -0.0343  0.1968
22094W        W37225   8.487  15.957   3.198  0.1459  0.6216  0.0336
22095W        W37226   4.591  12.842  13.513 -0.1825 -0.1691 -0.1430
22096W        W37227   8.163  17.483  11.926 -0.0483  0.0136  0.6092
22097W        W37228   3.055   6.946   2.692  0.0255  0.2252 -0.1365
22098W        W37229  17.209   5.019  13.671  0.0140 -0.2311  0.0040
22099W        W37230   7.743  18.321  14.564  0.1040  0.2680 -0.2228
22100W        W37231  14.841   2.702  12.563  0.0958 -0.1374 -0.0166
22101W        W37232   8.621  14.862  15.450  0.2235 -0.1721 -0.2060
22102W        W37233  14.106  14.944   1.399 -0.0386 -0.1456  0.2008
22103W        W37234   7.314   2.868   4.754 -0.0639  0.0069 -0.0326
22104W        W37235   5.966  17.922   4.579  0.0815  0.0623 -0.0146
22105W        W37236  14.052   8.136   2.294  0.0168 -0.0806  0.3661
22106W        W37237   4.233   6.109   2.892 -0.1930  0.1960  0.0391
22107W        W37238   2.297   7.981  15.134 -0.0514 -0.2453  0.2773
22108W        W37239   5.020  13.470  15.163  0.0810 -0.1097  0.1171
22109W        W37240  15.574  16.787  13.213 -0.2054  0.1493  0.0674
22110W        W37241  17.913   2.632   2.365  0.2182  0.3294  0.0282
22111W        W37242  15.063  10.166   1.254  0.2722 -0.0573  0.0391
22112W        W37243   2.628   8.759   0.966 -0.2492 -0.1137  0.0857
22113W        W37244  14.851   8.345  13.506  0.1738  0.0676  0.0086
22114W        W37245   5.028  17.389  13.031  0.1019  0.1601  0.2292
22115W        W37246  12.397  13.981   3.798 -0.0465  0.1120 -0.2551
22116W        W37247  18.129  16.964   0.981  0.1723  0.0020 -0.2786
22117W        W37248   4.634  15.116  13.021 -0.0817  0.0530 -0.3924
22118W        W37249  18.187  12.626  12.648 -0.2012 -0.3659 -0.1982
22119W        W37250  17.701   4.357  10.653 -0.1575  0.3813 -0.1862
22120W        W37251   2.330   6.557   4.462 -0.0662 -0.0358 -0.2420
22121W        W37252  11.311   9.807   2.067 -0.0428  0.0264 -0.1863
22122W        W37253   4.009   5.298  14.455 -0.4329  0.2198 -0.1086
22123W        W37254   5.675  10.084  11.880 -0.0939  0.0120  0.0705
22124W        W37255   2.774   7.830  15.640  0.3366 -0.0274  0.0337
22125W        W37256  15.353   9.092  14.043 -0.2204 -0.3583  0.2560
22126W        W37257   6.222   1.612   9.495  0.1283  0.1318 -0.1133
22127W        W37258   3.409   2.210  10.175  0.2576 -0.1243  0.0405
22128W        W37259   6.145   3.747   4.327 -0.0098 -0.0850  0.1533
22129W        W37260  14.824   3.385  11.647 -0.3086 -0.0513 -0.2652
22130W        W37261  18.710   4.129   1.093 -0.0282 -0.2566  0.2785
22131W        W37262   7.267   1.459  11.088 -0.1148 -0.2430  0.0351
22132W        W37263  10.748  11.275  15.451 -0.1984 -0.0071 -0.4832
22133W        W37264  15.916   0.833   0.644  0.0456  0.0910  0.1901
22134W        W37265   9.864  10.170  14.146  0.1312 -0.4446  0.1843
22135W        W37266  13.525  16.300   0.552 -0.1154  0.0554 -0.3761
22136W        W37267   3.994  14.591  10.712 -0.2190  0.1649  0.4886
22137W        W37268   4.637   1.350  10.349 -0.0978 -0.4594  0.1212
22138W        W37269   2.889  13.681   1.243 -0.3708 -0.1998  0.0859
22139W        W37270   1.975  16.349   1.233  0.1610  0.0797 -0.0187
22140W        W37271  16.904   0.739  14.858  0.2439 -0.1922  0.2171
22141W        W37272  10.753  16.601   5.620  0.2204  0.2438 -0.2924
22142W        W37273  18.577   7.431   3.117 -0.4045 -0.1897 -0.1334
22143W        W37274  18.716   0.402  11.160 -0.0705 -0.2653 -0.1584
22144W        W37275   2.971  14.920  14.760 -0.0238 -0.2925  0.4041
22145W        W37276   0.750  11.487  11.264  0.2964  0.0344 -0.1263
22146W        W37277   1.897   9.632   3.761 -0.0359  0.2953  0.2559
22147W        W37278  15.037  10.241  12.714 -0.0868  0.1770  0.1682
22148W        W37279  14.117  16.695   3.546  0.2421 -0.0433 -0.4221
22149W        W37280  13.479   1.638  14.970  0.2988 -0.1140 -0.0986
22150W        W37281   1.615   2.989  13.949 -0.1350 -0.1566  0.1983
22151W        W37282  12.472   4.765   0.292 -0.3953 -0.2300  0.0082
22152W        W37283  14.984  12.481   0.887 -0.1383  0.1803 -0.1064
22153W        W37284   5.707  12.156  12.368  0.1834  0.4632 -0.0188
22154W        W37285  13.922   9.112   2.127  0.1496 -0.0278  0.2332
22155W        W37286   4.298  18.592  10.659 -0.2427 -0.6349  0.0139
22156W        W37287  14.427  14.612   5.326 -0.1870  0.2460  0.0001
22157W        W37288   0.065  10.887   0.188 -0.0436 -0.0315  0.3261
22158W        W37289  15.873  10.913  14.246 -0.0273 -0.2013 -0.0328
22159W        W37290   1.916  16.314   5.620 -0.0578 -0.2933  0.2505
22160W        W37291   2.473   6.932  12.641  0.4505 -0.1837 -0.0072
22161W        W37292   5.049  11.707  14.357  0.0863  0.4691  0.0109
22162W        W37293   3.690   2.173  15.188 -0.2305 -0.0281  0.1601
22163W        W37294  11.482   4.245  15.261 -0.0659 -0.0731 -0.2712
22164W        W37295  12.759   2.599   4.741 -0.1676 -0.0284  0.1905
22165W        W37296   7.965  12.849  11.902 -0.0634  0.0109 -0.1936
22166W        W37297  15.081   5.746   2.601  0.2998 -0.2599  0.0142
22167W        W37298  10.550   5.058   1.439  0.1419  0.2890  0.0769
22168W        W37299   6.808  10.028   0.623  0.3086  0.0637  0.2135
22169W        W37300  11.319  10.238  10.520 -0.2741  0.1177 -0.0437
22170W        W37301   9.158  13.614  12.113 -0.0372 -0.1227  0.1349
22171W        W37302   2.303   7.812   0.749 -0.0459  0.2827  0.2705
22172W        W37303  17.340  12.077  14.547  0.0669  0.0762 -0.0421
22173W        W37304   2.172  11.128  15.556  0.0780  0.4206 -0.1977
22174W        W37305   4.223   5.474  14.052  0.2060 -0.1022  0.1594
22175W        W37306   6.288   0.893  11.930 -0.1997 -0.3466 -0.1191
22176W        W37307  18.592   8.297  11.829 -0.0012  0.1447 -0.3169
22177W        W37308   3.011   4.079  10.519  0.1360  0.0212  0.1391
22178W        W37309   8.743   1.600   0.295 -0.0860  0.0611 -0.0175
22179W        W37310   6.794  18.414  14.018 -0.0839  0.1769  0.2475
22180W        W37311   5.074   1.487   2.527 -0.1962 -0.1042  0.3028
22181W        W37312  10.897   9.950   1.198  0.3354  0.0542 -0.1666
22182W        W37313  16.297  12.161   1.060  0.1503  0.3442 -0.2144
22183W        W37314   4.336   8.135   3.979  0.0351  0.0795  0.0331
22184W        W37315  12.985   5.977   9.846  0.0367  0.1947  0.1371
22185W        W37316   4.997  11.155  12.497  0.0593 -0.1465  0.1771
22186W        W37317   5.262   4.352   1.097  0.0677 -0.0891  0.0604
22187W        W37318   3.247  13.464  15.442  0.1175 -0.0122 -0.1437
22188W        W37319   6.014  15.703  14.731 -0.3050  0.1749 -0.1452
22189W        W37320   1.821  14.041   1.827  0.1644 -0.0663  0.3597
22190W        W37321  17.063  11.029  15.053 -0.0948  0.3276 -0.1060
22191W        W37322   4.781   2.321   0.290  0.0080  0.0068 -0.1980
22192W        W37323  14.311  11.286   4.021 -0.0569 -0.3076  0.0475
22193W        W37324  16.195   2.106  12.126 -0.2140 -0.0134  0.0904
22194W        W37325   5.895   8.839   5.269 -0.0154 -0.3436  0.0210
22195W        W37326  12.351   8.768  15.471 -0.0512 -0.0231 -0.1432
22196W        W37327   4.892   3.886  13.908  0.2057 -0.2679 -0.0389
22197W        W37328   2.441   8.827   2.031 -0.0907 -0.1631  0.2263
22198W        W37329  12.343   3.307   4.667 -0.2194  0.1432 -0.0654
22199W        W37330  18.345  18.514   1.805  0.0208  0.1579  0.5486
22200W        W37331   8.216   8.932   3.742  0.0713 -0.1376 -0.2051
22201W        W37332   7.755   5.254   0.515  0.0230 -0.0561  0.1854
22202W        W37333  18.232  10.600  11.271  0.0342  0.1804  0.2743
22203W        W37334  13.825   4.859  14.443 -0.1466  0.2015 -0.2173
22204W        W37335   4.293  17.882  14.506  0.1276  0.0884  0.3257
22205W        W37336  13.439  10.910   0.150 -0.1185 -0.0499 -0.1398
22206W        W37337   3.961  10.845  11.361  0.0579 -0.0082 -0.2627
22207W        W37338   9.123  13.444   3.038 -0.0183 -0.2423  0.3576
22208W        W37339   4.832   3.762   0.404  0.2073  0.1479 -0.1617
22209W        W37340  11.297   3.652  12.052  0.3486  0.0785 -0.0447
22210W        W37341   4.785  18.236   3.631  0.1675 -0.1173  0.0435
22211W        W37342   3.799   5.274  12.639  0.0472  0.0269  0.1433
22212W        W37343  14.131  12.115   1.206  0.2624 -0.1163 -0.1009
22213W        W37344   8.793  13.568  12.443 -0.1154  0.2162 -0.2661
22214W        W37345  11.792  12.225  12.435 -0.2518 -0.2416  0.0555
22215W        W37346   1.876  14.030   4.916  0.5672 -0.2986 -0.0239
22216W        W37347   7.976  16.883  14.073 -0.3429  0.0575 -0.0009
22217W        W37348  16.824  11.007   0.033  0.2245 -0.1265  0.1865
22218W        W37349  13.533   6.033   4.900  0.0886 -0.1657  0.1187
22219W        W37350   8.307  14.284   3.455  0.1035 -0.0306  0.2444
22220W        W37351  12.385  13.523   1.591 -0.1996 -0.3616 -0.0051
22221W        W37352   0.910   3.597  12.892  0.0983  0.2431  0.0126
22222W        W37353  13.653  12.780   5.456  0.1175  0.0512 -0.5228
22223W        W37354   7.191  17.544   4.546 -0.4405 -0.0236 -0.0353
22224W        W37355   9.774   4.835  12.812  0.0900  0.2090  0.2172
22225W        W37356   7.038   4.418  14.548 -0.1006 -0.1642 -0.2216
22226W        W37357  16.338  17.631   1.914  0.0778  0.3241  0.0515
22227W        W37358  11.541   3.285  15.233 -0.1771 -0.0392 -0.0687
22228W        W37359  14.113   5.294  14.439  0.1290  0.2909  0.2039
22229W        W37360  15.434   3.139  13.698  0.1469  0.0923 -0.2119
22230W        W37361  16.626  11.934   4.255 -0.1314 -0.3113 -0.0406
22231W        W37362   0.350   6.178  11.419  0.1436  0.0019 -0.2577
22232W        W37363   2.182   9.224   4.095  0.2294 -0.1246 -0.0024
22233W        W37364  18.466  17.279   1.670  0.1572  0.3205 -0.2470
22234W        W37365   5.929  10.855   1.132 -0.2687  0.0392  0.1264
22235W        W37366   4.770  13.049   0.935 -0.1949 -0.0274  0.0330
22236W        W37367  17.801  13.848   4.173  0.3892 -0.3536  0.0569
22237W        W37368  15.749  18.072   2.029  0.2305 -0.0536  0.1096
22238W        W37369  12.835   6.047  15.397  0.2095 -0.1822  0.0949
22239W        W37370  12.614  15.397   2.843 -0.2656 -0.0086 -0.4182
22240W        W37371   6.188   9.071   4.389  0.0390  0.0421  0.2970
22241W        W37372  15.718  11.427   4.368  0.0796 -0.1491 -0.2065
22242W        W37373  14.893   3.274  12.686  0.4020 -0.0660  0.0434
22243W        W37374  15.859  15.861   0.267  0.1023  0.0064  0.0451
22244W        W37375  16.134  11.590  11.974 -0.2885 -0.1583 -0.0030
22245W        W37376   5.552  17.917   4.867  0.1328  0.0478 -0.1664
22246W        W37377   9.771   7.175   1.312 -0.1635 -0.1588 -0.3233
22247W        W37378  17.226   4.475  13.014  0.2484  0.0693  0.1700
22248W        W37379  10.092   3.889   3.629  0.2701 -0.3444 -0.0403
22249W        W37380   5.941  13.538  10.545 -0.2964 -0.1640 -0.0083
22250W        W37381  15.167  15.089  12.926 -0.1058  0.1192  0.1714
22251W        W37382  11.799   6.309   2.824  0.1719  0.0543  0.0446
22252W        W37383   3.207  16.408   3.183  0.0892 -0.0261 -0.1185
22253W        W37384   8.371  11.384   1.805  0.2382 -0.4571 -0.1581
22254W        W37385   2.389  10.777  10.672  0.0842 -0.2162 -0.0208
22255W        W37386  10.322  14.704   0.487 -0.3267  0.2997  0.1964
22256W        W37387   0.461   9.869   4.213 -0.2626  0.1896  0.3263
22257W        W37388   6.777   3.688   1.955  0.0463 -0.3008 -0.0284
22258W        W37389   9.464  18.000  13.623  0.4752  0.0649  0.0262
22259W        W37390   7.015   2.751   2.018  0.0210 -0.0929 -0.0015
22260W        W37391   2.711   8.257  15.042  0.0441 -0.1972 -0.1593
22261W        W37392  16.084  11.999   3.780  0.2050 -0.0005 -0.0840
22262W        W37393  15.932  18.338   5.616  0.0585  0.0363 -0.1588
22263W        W37394   1.769   2.619  12.812  0.0578  0.3585  0.2164
22264W        W37395   6.434  12.299  13.059  0.0542 -0.2158 -0.0253
22265W        W37396   0.018  17.603  12.642  0.2099 -0.1893  0.3496
22266W        W37397   2.723   7.165   1.213 -0.1494  0.0549  0.1068
22267W        W37398  13.382  12.617   4.142 -0.0047 -0.2285 -0.1737
22268W        W37399  11.176  13.572   0.377 -0.2143 -0.1636  0.1218
22269W        W37400  12.642   0.746  13.588 -0.0521 -0.0119 -0.0823
22270W        W37401  15.611  12.646   0.186 -0.0997 -0.0109  0.0661
22271W        W37402  17.366   6.657  13.633 -0.0568  0.1769 -0.1918
22272W        W37403  13.652   2.440   4.837  0.0376 -0.1948  0.1855
22273W        W37404   3.197   3.559  10.622  0.1789 -0.1315  0.0025
22274W        W37405   3.610  14.788   5.514  0.1854 -0.0703 -0.0575
22275W        W37406   8.960  10.705  15.060  0.2677 -0.2344  0.2118
22276W        W37407  16.588   2.506   0.162  0.1937 -0.0014 -0.1743
22277W        W37408   9.229  18.740   4.259  0.1547  0.1521 -0.2716
22278W        W37409   2.466  18.019  13.355 -0.3839  0.2074  0.0219
22279W        W37410   4.840   9.784   3.477 -0.0238  0.2997 -0.1135
22280W        W37411   5.870  16.179   1.508  0.2594 -0.3383  0.1959
22281W        W37412   4.652  12.779   5.835 -0.0320  0.0133 -0.2297
22282W        W37413  11.238   8.847  15.454 -0.0267 -0.2561  0.0810
22283W        W37414  12.007  14.656  11.699  0.1546  0.0021  0.1857
22284W        W37415   5.655   4.093   3.943 -0.0066 -0.0083  0.1778
22285W        W37416   7.596  18.467  12.223  0.0721 -0.1351  0.0767
22286W        W37417   4.952  13.200   1.859  0.0128  0.0484 -0.0783
22287W        W37418   6.621  17.774   9.666  0.0127 -0.0754 -0.1030
22288W        W37419   9.087  18.248   3.338 -0.2501 -0.2455  0.0175
22289W        W37420   0.979  12.679   4.917 -0.0241  0.0071  0.0742
22290W        W37421   0.311   0.937  14.285  0.0473  0.1678  0.1842
22291W        W37422   8.126   3.478  11.760 -0.4669  0.2923  0.4359
22292W        W37423  11.852  14.426  15.580  0.0608  0.0494 -0.2007
22293W        W37424  15.075  14.077  10.843 -0.2133  0.4174 -0.2981
22294W        W37425  10.829  14.472  10.962 -0.3248 -0.0391 -0.3359
22295W        W37426   1.368  10.275  13.353 -0.0698  0.2333  0.3799
22296W        W37427  15.296   3.344  11.403  0.2134  0.1161 -0.5009
22297W        W37428  15.337  17.640   1.324  0.0702 -0.2962 -0.0660
22298W        W37429  17.517  16.917   2.083  0.0213 -0.2158 -0.4182
22299W        W37430   1.540  12.091  11.259  0.2815 -0.2016 -0.1942
22300W        W37431   7.230  17.171  13.620 -0.5383 -0.0392  0.0065
22301W        W37432   9.483   9.621  10.955 -0.2528  0.0580 -0.0563
22302W        W37433  13.801  12.904  12.656  0.1655 -0.0282  0.2497
22303W        W37434  10.412  11.349   3.434 -0.0409 -0.0488  0.2204
22304W        W37435   8.204   7.030   0.400 -0.0641  0.0907  0.2644
22305W        W37436   8.212   6.144   3.806  0.0185 -0.0634 -0.0603
22306W        W37437  10.162  11.805   2.539  0.4060  0.0486 -0.2771
22307W        W37438  15.348   1.698   6.516  0.1098 -0.2191  0.0075
22308W        W37439   0.011  13.082   1.282  0.3301  0.1133  0.2540
22309W        W37440   3.056   2.290  11.898  0.0694  0.2841  0.1116
22310W        W37441  15.161   4.985   3.067  0.0930  0.3378  0.0625
22311W        W37442   0.973   6.540  12.632 -0.0206  0.3162 -0.0583
22312W        W37443   0.592   5.356  13.831 -0.0138  0.5201 -0.0579
22313W        W37444   7.482  12.505  10.674  0.0960  0.3485 -0.1130
22314W        W37445   2.850   2.060  10.176  0.0392  0.1458 -0.0831
22315W        W37446   0.772   4.047   3.435  0.1477 -0.0709  0.3776
22316W        W37447   1.666   5.331   4.533  0.0963 -0.0286 -0.4057
22317W        W37448   4.308  15.018   9.859 -0.1361 -0.0377  0.1068
22318W        W37449  17.847  11.457   0.487  0.0152  0.0769 -0.1368
22319W        W37450   9.562  12.619  13.038 -0.0686  0.1901  0.2296
22320W        W37451  15.042  11.798  13.363  0.0759  0.2697 -0.0947
22321W        W37452   9.471   7.427   5.658 -0.1237 -0.2325  0.4140
22322W        W37453   1.363   6.304   3.409 -0.0909 -0.3753 -0.4845
22323W        W37454   8.000   8.163   1.382 -0.0855 -0.1012  0.1343
22324W        W37455  16.578  14.924   3.968  0.2300 -0.1711  0.3360
22325W        W37456   0.769  12.759  11.628 -0.1574 -0.0256  0.0363
22326W        W37457   1.067   9.005   3.268  0.4842 -0.2269  0.2470
22327W        W37458   2.170   8.477  12.254 -0.1091  0.2309  0.2952
22328W        W37459  12.949   7.587  11.445  0.0979 -0.0687 -0.1509
22329W        W37460   0.480  11.476  11.703 -0.4169  0.0177 -0.0564
22330W        W37461  15.842  15.013   2.155  0.2277 -0.0401 -0.2981
22331W        W37462   2.622  10.061   0.536 -0.0909  0.1562 -0.1363
22332W        W37463   0.720  13.235   0.844 -0.2502  0.0425 -0.1716
22333W        W37464  13.161  18.074   1.876 -0.0627 -0.0165 -0.1371
22334W        W37465   0.822   0.428   0.073  0.1528  0.0442 -0.1275
22335W        W37466  16.929  16.830  12.948 -0.1267 -0.0518 -0.1946
22336W        W37467   8.745   4.305   3.713  0.2569  0.2297  0.3023
22337W        W37468  16.069   4.269   0.360  0.1070  0.1867  0.3556
22338W        W37469   5.683   8.383   3.885 -0.1372 -0.1927 -0.1585
22339W        W37470   3.487  10.478   1.718  0.0151  0.0143  0.3913
22340W        W37471   9.257   5.853   0.478  0.1125 -0.1604  0.2428
22341W        W37472   5.670   1.501  12.956  0.0193 -0.1158 -0.2037
22342W        W37473   4.000  16.729   0.384 -0.0325 -0.5543 -0.0663
22343W        W37474   5.764   3.834  14.975  0.0359  0.1134  0.0031
22344W        W37475  11.988  16.143  14.759  0.1479 -0.1597  0.2190
22345W        W37476  15.249   1.184  14.766 -0.0474  0.0567  0.0642
22346W        W37477   5.703   1.459   4.120 -0.1836  0.0017  0.2046
22347W        W37478   5.711  17.991   1.546 -0.2919  0.1359 -0.1712
22348W        W37479   2.409  12.211  10.869 -0.5087 -0.0212  0.2864
22349W        W37480   2.151   9.514   5.221 -0.2762  0.1203  0.0686
22350W        W37481   8.441  17.770  12.728  0.1113  0.1313 -0.1740
22351W        W37482   5.388   6.681   1.682  0.0612  0.0441 -0.3421
22352W        W37483  11.309   1.258  10.782 -0.1943 -0.2142  0.0150
22353W        W37484  12.376   5.239   9.492 -0.1647 -0.2512 -0.0517
22354W        W37485  16.847   4.208   4.712  0.0757 -0.0021 -0.3427
22355W        W37486   4.064   9.371   1.873 -0.0837  0.3247  0.0593
22356W        W37487  13.458   6.872  11.617 -0.1159  0.0117 -0.2302
22357W        W37488  17.005  17.372   1.494  0.1721  0.0522 -0.2122
22358W        W37489   9.385   3.060   3.510  0.3761 -0.0084 -0.3181
22359W        W37490   6.887  11.019   2.882  0.0738 -0.0565  0.2751
22360W        W37491  13.477  13.666  11.474  0.0493  0.3120  0.0684
22361W        W37492   2.564  16.943   1.681  0.0770 -0.0492  0.0057
22362W        W37493   7.128   1.343   4.930 -0.2617 -0.0299 -0.0086
22363W        W37494  16.971  11.590   3.053  0.3992 -0.1391 -0.1745
22364W        W37495   9.099  15.710   4.169  0.3665  0.0539 -0.0848
22365W        W37496   3.133  11.596  10.598  0.2037 -0.0892  0.2073
22366W        W37497   7.095   4.255  15.632  0.1178  0.3085  0.1518
22367W        W37498   3.938  14.848  14.594  0.0762  0.3096 -0.0783
22368W        W37499   1.417   5.324  11.477  0.1114 -0.0415  0.0757
22369W        W37500  18.687   0.597   4.564  0.0286  0.0923 -0.2753
22370W        W37501   7.766   7.906   0.545 -0.4395 -0.2474  0.2134
22371W        W37502   0.659  14.815   6.342  0.0885 -0.0921 -0.1645
22372W        W37503   1.268  16.348   3.904 -0.3601  0.1504  0.1093
22373W        W37504   2.248   4.914  15.521  0.1425  0.0654  0.0212
22374W        W37505  18.049  17.082   5.873  0.0682  0.1271  0.1771
22375W        W37506   5.716   0.595   1.414 -0.2965 -0.0005 -0.3292
22376W        W37507   9.475  10.159   4.615  0.0336 -0.0682 -0.0360
22377W        W37508   8.934  13.955   0.552 -0.0835  0.0876  0.0858
22378W        W37509   5.369  10.764   6.241  0.3484  0.0727 -0.0353
22379W        W37510  13.454   9.605  10.587  0.0611  0.1351  0.0218
22380W        W37511   9.594  14.273   2.693  0.1126  0.3188  0.3867
22381W        W37512  11.285  18.024   4.712 -0.0691  0.0506  0.0678
22382W        W37513   3.178   0.381  15.232 -0.0128 -0.0338 -0.1274
22383W        W37514  16.269   0.143   3.927 -0.1514 -0.4349  0.1418
22384W        W37515   8.585   8.606   1.668 -0.0249 -0.0187  0.2663
22385W        W37516  15.561  14.636   1.400  0.1225  0.1242  0.1550
22386W        W37517   2.389  17.149   4.231  0.1805 -0.1057  0.0762
22387W        W37518   6.518   7.539  15.250  0.0287  0.0037  0.2608
22388W        W37519   3.237  15.875  14.191  0.0721 -0.0379  0.0930
22389W        W37520  12.601   8.195   4.399 -0.2715  0.0110  0.1517
22390W        W37521   4.425   3.059  10.898 -0.2126 -0.1756  0.0485
22391W        W37522  16.213  16.262   2.939  0.0394  0.1351  0.2985
22392W        W37523  11.259  11.716  10.659  0.4549  0.0577  0.1100
22393W        W37524   7.638   1.400   1.691 -0.3437 -0.0487  0.1458
22394W        W37525  17.980  15.114  11.121 -0.1177  0.0675  0.2083
22395W        W37526   4.138  16.460   4.076 -0.2581 -0.0770 -0.1220
22396W        W37527   6.466   1.158   0.058 -0.1653 -0.1894  0.0100
22397W        W37528  15.567  17.314  12.245 -0.4705  0.0534 -0.1555
22398W        W37529   6.730  16.425   1.042 -0.0553  0.1088  0.3957
22399W        W37530  15.121  10.311   0.731  0.0300  0.1941 -0.4987
22400W        W37531  10.793  14.824  14.773 -0.2183 -0.0257  0.2181
22401W        W37532   5.753  14.598  12.266 -0.1258  0.0482  0.2351
22402W        W37533  17.408  16.081   1.517  0.0875  0.1507  0.0234
22403W        W37534  16.588  10.636   0.473  0.1585  0.1108  0.5837
22404W        W37535   0.557   0.528   5.405 -0.1932  0.0381  0.0135
22405W        W37536   6.547  12.452   0.582  0.1494 -0.0873 -0.0354
22406W        W37537   4.528   1.880  13.947  0.0227 -0.5671  0.0321
22407W        W37538   7.614   5.338  13.685 -0.2562 -0.0151 -0.2358
22408W        W37539  13.251  12.100  12.952  0.0683 -0.1619 -0.1210
22409W        W37540  16.767  11.940  14.601  0.1020 -0.2248 -0.0176
22410W        W37541   5.580  10.779   2.702 -0.1115 -0.0860  0.2606
22411W        W37542   9.611   1.870  13.216 -0.2103  0.3347 -0.1779
22412W        W37543  16.055   0.999  13.037  0.2270 -0.0145 -0.0907
22413W        W37544   4.247  10.592  13.629  0.0365  0.2642 -0.1097
22414W        W37545  17.065   3.109   3.288 -0.2538 -0.4413  0.1051
22415W        W37546  10.820   5.125   4.429 -0.1842  0.1625 -0.0182
22416W        W37547   7.660   1.719  13.580 -0.2034  0.1628 -0.0612
22417W        W37548  13.738   7.210   5.243 -0.2176 -0.0948  0.0069
22418W        W37549   8.636  12.390   2.120 -0.1123 -0.2636  0.0418
22419W        W37550   3.439  15.456  14.687  0.4151 -0.0864  0.0295
22420W        W37551   7.623   7.357   4.432  0.1210 -0.2646  0.0630
22421W        W37552   8.411  14.130   1.110  0.0408 -0.1706 -0.3409
22422W        W37553   7.963   7.473   3.454  0.1289 -0.0315  0.0544
22423W        W37554  12.525  10.048   3.306  0.1382  0.1675 -0.1494
22424W        W37555  16.247   9.799  11.008 -0.4065  0.0495  0.1275
22425W        W37556  12.859  10.830   3.155 -0.2357 -0.1796 -0.1854
22426W        W37557  17.707   9.525   2.551  0.0232  0.5999  0.4028
22427W        W37558   2.564  18.163  15.524  0.2838  0.3480 -0.1133
22428W        W37559   9.703   9.606  13.449 -0.2346  0.1403  0.2296
22429W        W37560   2.303  13.824  12.973  0.1636  0.0682 -0.1524
22430W        W37561  17.713   1.983  13.455 -0.0453 -0.3681 -0.0776
22431W        W37562   3.534   4.551  14.810 -0.1183 -0.2611 -0.2097
22432W        W37563   5.169   5.805   3.003 -0.3324  0.1189 -0.0974
22433W        W37564   9.881  15.471   0.236  0.1041  0.3088 -0.0097
22434W        W37565   0.230   6.280  10.918  0.1068 -0.0667 -0.1939
22435W        W37566  15.134  12.401  15.278 -0.1304 -0.2702  0.1049
22436W        W37567   6.170   2.698  12.193  0.0120 -0.0765 -0.1625
22437W        W37568   3.699   5.120   3.245  0.0013  0.3652 -0.2705
22438W        W37569   6.629  10.787  13.938 -0.0187  0.0087 -0.2313
22439W        W37570  11.939  16.669   2.564 -0.2337  0.1518 -0.2008
22440W        W37571  16.762   4.021   3.272  0.0952  0.0176  0.1213
22441W        W37572  14.758   9.633   1.313  0.1472  0.0665 -0.0692
22442W        W37573  17.539   5.565   0.824 -0.3852 -0.1682  0.1508
22443W        W37574  18.440   4.303   3.615 -0.0225  0.4044  0.3182
22444W        W37575  18.565  15.451   2.074  0.0562  0.0608 -0.1192
22445W        W37576  12.562   3.133  11.413  0.1556  0.0224 -0.2502
22446W        W37577  17.944   2.530   0.876  0.0396 -0.1144 -0.1390
22447W        W37578  13.744  17.582   3.874 -0.3883 -0.0697  0.2111
22448W        W37579  17.322   9.239   4.984 -0.0404  0.1302 -0.1092
22449W        W37580   4.867   1.839   2.224  0.2070 -0.0584 -0.0058
22450W        W37581   0.192   2.331   5.330 -0.1523 -0.3661  0.2133
22451W        W37582  11.012   0.273   0.964  0.2317  0.2210 -0.0686
22452W        W37583  14.237   3.759  14.020  0.0906  0.1636  0.0871
22453W        W37584  15.628   4.931   3.006  0.1691 -0.1149  0.2559
22454W        W37585   3.233  10.950  14.604  0.0458  0.0599 -0.0834
22455W        W37586  16.491   4.296   1.723  0.2887 -0.0162  0.0023
22456W        W37587   9.960  13.159  12.200 -0.0852 -0.0076  0.2840
22457W        W37588  17.647  11.245  14.052  0.0711  0.1748  0.4255
22458W        W37589  17.485   1.057  13.516  0.1378  0.0189 -0.2057
22459W        W37590   7.720   9.149   0.521  0.1591 -0.1411 -0.3997
22460W        W37591  14.904  11.135  14.308 -0.0585 -0.1667 -0.0791
22461W        W37592   0.722  13.426  10.207 -0.3537 -0.0466  0.0671
22462W        W37593  14.240   9.227  12.520 -0.0197  0.0290  0.0561
22463W        W37594   8.027  10.420   2.929  0.1686  0.1533  0.0160
22464W        W37595  15.890  14.338   3.034  0.1427 -0.2674 -0.0747
22465W        W37596   8.879   3.420   3.484 -0.0525 -0.0326  0.0261
22466W        W37597   8.509   0.421   2.510  0.0487  0.1094 -0.5509
22467W        W37598   1.409  17.204  11.843 -0.4272 -0.2014 -0.1797
22468W        W37599   5.283  17.860  14.528 -0.2054 -0.0200  0.1735
22469W        W37600   9.426  16.739  10.254  0.0859 -0.2222 -0.0898
22470W        W37601  16.856   8.385  15.661  0.4220  0.0027  0.1995
22471W        W37602   5.311   6.385   3.911 -0.2410 -0.1254  0.0483
22472W        W37603  18.221   0.397   5.043 -0.3125  0.0973 -0.2621
22473W        W37604  10.955  15.063  14.212 -0.2020  0.1493  0.1393
22474W        W37605   5.446   2.095  11.917 -0.0938  0.2368  0.2393
22475W        W37606  11.770  12.078  15.716  0.1226  0.2980  0.0722
22476W        W37607  13.211  12.455   2.217  0.1414  0.2723 -0.4503
22477W        W37608  15.120  14.627  10.716 -0.2388 -0.3582  0.0726
22478W        W37609  16.058   7.847  10.851 -0.0402  0.3044 -0.0050
22479W        W37610  13.089  12.146  11.259  0.1026  0.0490 -0.0411
22480W        W37611  18.508   0.891   4.237  0.1978 -0.2115  0.4439
22481W        W37612  12.643   5.597   1.518 -0.0218  0.1342  0.0168
22482W        W37613   4.084   7.485   9.633  0.0854 -0.1496 -0.0424
22483W        W37614   8.318  10.113  14.656  0.1685  0.0720 -0.0077
22484W        W37615  17.302  12.280   0.332 -0.1845 -0.2203 -0.0147
22485W        W37616   5.164   6.500   1.203  0.1410 -0.1822  0.1701
22486W        W37617   3.467  11.927  15.482 -0.0408 -0.2197  0.3435
22487W        W37618   2.780   7.339   2.093  0.0926 -0.1505 -0.0974
22488W        W37619   9.763  12.079  13.198  0.3628  0.3481  0.2459
22489W        W37620   5.828  14.871   5.198  0.0063 -0.0857 -0.2615
22490W        W37621   3.799   4.786  10.700  0.0979 -0.1131  0.1025
22491W        W37622   7.787   7.154   1.401 -0.1871  0.2424  0.1275
22492W        W37623  11.442   1.197   5.743  0.0809  0.1556 -0.1127
22493W        W37624  11.876   0.153   4.168  0.1238  0.1461 -0.2983
22494W        W37625   9.176   8.437  15.625  0.2277  0.1000  0.0914
22495W        W37626   3.622   7.654   3.813 -0.1441 -0.0180  0.2370
22496W        W37627  17.680  11.815  14.833  0.1306 -0.2526  0.1816
22497W        W37628  12.327  16.669   2.984 -0.1612 -0.0658 -0.0654
22498W        W37629  18.265  17.317  13.482 -0.0625  0.1783  0.2940
22499W        W37630  17.428   3.422  11.525  0.1234  0.2527 -0.1612
22500W        W37631  13.154  17.566  14.419 -0.0983 -0.0667  0.0633
22501W        W37632   3.420   5.663   5.694  0.0591 -0.1948  0.0803
22502W        W37633  15.863  15.133   4.110 -0.4130  0.0421 -0.2449
22503W        W37634   4.885   7.399   0.156 -0.0386  0.4711 -0.4328
22504W        W37635  14.153  11.888   0.494  0.1690 -0.0615 -0.4366
22505W        W37636   9.542   2.432   5.567  0.0463  0.2746 -0.0557
22506W        W37637   7.383   0.132  11.258 -0.2412  0.0792 -0.0807
22507W        W37638   7.822   6.756  12.762 -0.0887  0.0446  0.2355
22508W        W37639   4.602  11.842   5.497  0.2414  0.0506  0.1568
22509W        W37640  11.205  12.616  14.711  0.3193 -0.0008  0.1421
22510W        W37641  10.087   0.296   3.186 -0.0013 -0.2547 -0.0102
22511W        W37642   0.227   0.151   5.554 -0.0568 -0.0515 -0.0127
22512W        W37643   2.562  17.892  14.502 -0.0323 -0.0838  0.1432
22513W        W37644  16.967  14.864  12.935  0.0899 -0.1186  0.0077
22514W        W37645   9.042   0.964  12.130 -0.3136 -0.0107  0.1241
22515W        W37646   2.721  15.783   3.812  0.1347  0.4186  0.0509
22516W        W37647  15.912  11.867   0.794  0.1027 -0.1489  0.3213
22517W        W37648   8.282   6.436   0.882 -0.0518 -0.1812 -0.4646
22518W        W37649   0.118  14.341   2.818  0.0611 -0.5005  0.0889
22519W        W37650  15.399   5.126   0.924 -0.0539 -0.3187  0.0687
22520W        W37651   5.999   6.302   5.765 -0.0566  0.1575  0.1346
22521W        W37652   6.533   8.376   1.726 -0.0632 -0.0545 -0.1784
22522W        W37653   9.710  10.669   5.041  0.1912 -0.0280 -0.1514
22523W        W37654  18.717  17.170   0.696 -0.1553 -0.0977  0.4684
22524W        W37655  10.215   8.897  13.705 -0.2249  0.5713  0.4063
22525W        W37656   1.549  10.932  13.820 -0.1414  0.3650  0.0337
22526W        W37657   8.390  17.998  15.111  0.1203 -0.0903  0.3285
22527W        W37658  13.699   3.990  13.352  0.4517  0.3270  0.0766
22528W        W37659   6.446   2.560   1.289  0.0741  0.0316  0.1538
22529W        W37660  15.057   7.087  15.216  0.3220 -0.1974 -0.0253
22530W        W37661   2.192   9.692   0.568  0.1837  0.1016  0.0081
22531W        W37662  17.803   2.281  12.555 -0.1863 -0.0574 -0.2938
22532W        W37663  16.585   4.574  11.394 -0.0414 -0.0818  0.0965
22533W        W37664   1.856   7.552  11.984 -0.1767  0.0468  0.0061
22534W        W37665   1.217   5.057  15.585  0.3653 -0.1330 -0.0235
22535W        W37666   1.199   8.570   9.293 -0.1251  0.5600  0.1213
22536W        W37667   0.422   2.413  15.626  0.0774 -0.1237  0.0604
22537W        W37668   6.713  10.496   3.011 -0.0825 -0.2322  0.1580
22538W        W37669   3.650  14.946   3.871 -0.2099 -0.2515  0.0209
22539W        W37670  10.783  12.506   1.626 -0.1545 -0.1340 -0.2316
22540W        W37671   1.635  16.387   1.576  0.1717 -0.1015 -0.0769
22541W        W37672  17.847   5.427   1.379 -0.1009 -0.4042 -0.1170
22542W        W37673   2.025  16.352   3.054 -0.2125  0.1912 -0.0306
22543W        W37674   0.350  10.178  10.569 -0.0766  0.1401  0.2664
22544W        W37675  17.341  10.184   3.185 -0.1486  0.1287 -0.2811
22545W        W37676   7.354  18.354   4.282 -0.2271  0.1428  0.2330
22546W        W37677  16.439  14.732  15.089  0.0414  0.0742  0.1027
22547W        W37678   7.661   3.189  10.880 -0.1079  0.0380  0.1726
22548W        W37679   5.734   6.612   3.855 -0.1117 -0.2241  0.1105
22549W        W37680   1.483  14.248  11.437  0.0713  0.0331  0.3009
22550W        W37681  15.021  11.319   2.577  0.1771  0.0601  0.1010
22551W        W37682   7.922   4.767  13.433  0.0588  0.2407  0.1723
22552W        W37683   3.260  11.191   2.240 -0.0385 -0.0028  0.4545
22553W        W37684  11.898   8.278  14.463  0.3849 -0.1730  0.1429
22554W        W37685   8.498  16.386   0.360 -0.0677  0.1129 -0.1972
22555W        W37686   5.016  17.943  13.999  0.0985 -0.1414  0.2904
22556W        W37687  16.439  11.230  15.567 -0.2543 -0.0218 -0.0393
22557W        W37688   3.223  13.240   3.851  0.2683 -0.2723  0.0842
22558W        W37689   8.242   7.936   3.714  0.1434 -0.1452  0.1805
22559W        W37690   0.250  15.097   2.114  0.1824 -0.1271 -0.0379
22560W        W37691   3.012   5.448   1.548 -0.0283 -0.0442  0.1729
22561W        W37692  16.957  10.603  15.528 -0.0165 -0.1102 -0.0225
22562W        W37693  16.412   2.968   0.299 -0.2091 -0.0524  0.0271
22563W        W37694  17.980  12.141  11.459  0.1702  0.1173  0.0002
22564W        W37695   7.082   1.154   1.505 -0.2148  0.0885  0.3894
22565W        W37696  13.444  12.504  11.185 -0.2491 -0.3548 -0.1154
22566W        W37697   2.788  13.543   2.449 -0.2209  0.1537 -0.1054
22567W        W37698  11.425   7.551   4.572  0.1195 -0.0322 -0.2295
22568W        W37699   7.512   4.553   4.880 -0.1948 -0.0645  0.2502
22569W        W37700   3.998  15.848  11.136 -0.1206  0.1108 -0.2945
22570W        W37701  15.237  12.303  15.760  0.1388  0.1565 -0.0493
22571W        W37702   6.698   1.080  10.498 -0.0641  0.0153 -0.1532
22572W        W37703  14.738  12.722  13.220 -0.0255  0.2551  0.1846
22573W        W37704   8.220  13.584   0.320  0.0801  0.1310  0.0116
22574W        W37705  16.772  14.638   0.893 -0.0889  0.0806 -0.2258
22575W        W37706   1.608  10.894  12.379  0.1106 -0.0266  0.0667
22576W        W37707   0.934  14.972   3.338  0.3373  0.3727  0.0153
22577W        W37708   3.633  13.575  14.213  0.2624 -0.0488 -0.0737
22578W        W37709  11.206   2.115  11.893  0.0357  0.1071 -0.0494
22579W        W37710   0.702   7.566  14.572  0.2745 -0.4322  0.1569
22580W        W37711   6.397  12.735   1.560 -0.0614 -0.2751  0.3733
22581W        W37712  15.392  18.008   3.875 -0.2800  0.3862 -0.4760
22582W        W37713   6.244  13.202   1.148  0.1242  0.5638  0.1287
22583W        W37714   7.128   5.340   5.855  0.1696  0.1515 -0.1083
22584W        W37715  10.228  10.699  11.058 -0.1491  0.2832  0.0483
22585W        W37716   7.536   7.529  14.225 -0.0851  0.0572 -0.1010
22586W        W37717   4.936   2.636   9.989  0.0704 -0.1561 -0.1595
22587W        W37718   8.719  11.859   3.882 -0.0800 -0.0855 -0.0384
22588W        W37719  16.645   3.412  12.408 -0.0673  0.2039  0.1452
22589W        W37720   0.912   2.034   4.855 -0.1022 -0.3311  0.0590
22590W        W37721  12.142  14.089  15.197  0.0337 -0.4527 -0.0202
22591W        W37722   1.152   3.903   5.584 -0.4023 -0.0465  0.0323
22592W        W37723   7.777   5.795   1.271 -0.4286  0.1498  0.0475
22593W        W37724   8.744   7.334  15.471  0.1373  0.0759  0.0705
22594W        W37725   4.382  14.764   3.700  0.0465 -0.1006  0.0465
22595W        W37726   4.568   4.073  15.489  0.2813  0.1665  0.0111
22596W        W37727   6.098   1.138   0.596 -0.0995  0.0329  0.0614
22597W        W37728   2.335   2.717   2.367 -0.4565 -0.1175 -0.1688
22598W        W37729   7.528   7.014   5.070 -0.0212 -0.0972 -0.5081
22599W        W37730   7.154  12.861   5.552  0.2268 -0.0170  0.3126
22600W        W37731  12.973   1.942  11.012  0.1652  0.0984  0.0667
22601W        W37732   1.174  10.431  10.844  0.0584 -0.1661 -0.3209
22602W        W37733   8.597   6.878   3.371 -0.1100  0.3038 -0.0435
22603W        W37734  14.561  14.028   1.140 -0.0943 -0.4418 -0.0965
22604W        W37735   0.139  16.960   1.450 -0.1293  0.3669  0.1421
22605W        W37736   8.721  12.034   0.620  0.1384 -0.1202  0.0389
22606W        W37737  10.089   2.904  15.189 -0.2753  0.0012 -0.1906
22607W        W37738   8.624  16.867   2.660  0.4076  0.1678 -0.2816
22608W        W37739   8.209   4.188   1.405 -0.4014 -0.0723  0.0868
22609W        W37740   6.727  13.615  15.178  0.0299  0.1245 -0.2733
22610W        W37741   6.541   6.957   1.053  0.1897 -0.0233 -0.0839
22611W        W37742   8.331  12.723   0.098 -0.0063 -0.0373  0.2683
22612W        W37743  14.505   4.737  10.664 -0.2179 -0.0606 -0.0216
22613W        W37744   8.247  15.074  14.131 -0.2668  0.1186 -0.2059
22614W        W37745  15.592   0.048  12.085  0.3088 -0.1174 -0.0166
22615W        W37746   6.070  16.694  12.690  0.0543  0.2769 -0.0049
22616W        W37747  16.175   6.227   3.604 -0.0494 -0.1525  0.1547
22617W        W37748   6.516   0.841   3.848  0.1588  0.0667 -0.2973
22618W        W37749   8.795  14.797  13.918  0.3230 -0.1680  0.1387
22619W        W37750   6.278  15.052  14.006  0.0721 -0.2460  0.0067
22620W        W37751  13.552   4.143  13.888 -0.0920 -0.2210  0.0883
22621W        W37752  15.400   2.709   2.912 -0.2552 -0.0353 -0.0628
22622W        W37753  10.150   8.722   4.427 -0.0736  0.3141  0.1663
22623W        W37754   9.912   4.976  10.515 -0.1187  0.1862 -0.0048
22624W        W37755  11.002   6.874   4.229  0.0329  0.2301  0.0092
22625W        W37756   7.668  10.535  14.329 -0.0748 -0.1997 -0.0399
22626W        W37757   5.891   6.983  13.415  0.0764 -0.3162 -0.0140
22627W        W37758  13.103   1.614  11.394 -0.4191 -0.1131 -0.0298
22628W        W37759  15.611   8.786  14.405 -0.2175 -0.3140 -0.2446
22629W        W37760   5.281   3.127  10.404  0.0020  0.0603 -0.4356
22630W        W37761  14.744  13.338   1.539  0.2661  0.0233 -0.0997
22631W        W37762   0.392   6.660  11.982  0.4664 -0.5007  0.0832
22632W        W37763  10.401  10.401  12.164 -0.1316 -0.1050  0.2157
22633W        W37764  18.574   9.049   9.918 -0.1355 -0.2866 -0.0149
22634W        W37765   2.077  14.064  14.958 -0.2076 -0.2186  0.0521
22635W        W37766   7.697   8.513   1.165 -0.4227 -0.1327 -0.2422
22636W        W37767  14.067  16.383  14.474 -0.0060  0.1331 -0.0034
22637W        W37768   1.687   5.441  11.119  0.4593 -0.1056 -0.0505
22638W        W37769   3.286   5.035   9.904  0.2106 -0.1122  0.1580
22639W        W37770   1.854   8.103   1.790  0.2901  0.0532  0.1424
22640W        W37771   5.170   9.610   0.661  0.1341  0.2254 -0.0401
22641W        W37772   8.576  12.009  11.457 -0.1064  0.1061  0.0166
22642W        W37773   2.606   4.290  10.849 -0.1201  0.0136  0.3356
22643W        W37774  12.691   9.979  10.435 -0.1319  0.1679 -0.0265
22644W        W37775   1.083   2.290  10.956  0.0609 -0.0939  0.0105
22645W        W37776   9.448  10.195  11.058 -0.0641 -0.1837 -0.1180
22646W        W37777   5.812   6.556  12.531 -0.0828 -0.0103 -0.2195
22647W        W37778   7.221   7.558  11.776  0.0448  0.4759 -0.1578
22648W        W37779  15.805  10.396   5.178  0.4009 -0.0353 -0.2498
22649W        W37780   5.531   2.277   9.752  0.0354  0.2123 -0.0980
22650W        W37781   6.197  11.692  14.205 -0.2133  0.1220 -0.2239
22651W        W37782  14.825  13.216  15.418 -0.1463  0.0076  0.0568
22652W        W37783  10.246   2.306   3.513  0.1676 -0.4208  0.1287
22653W        W37784  16.586  16.960   5.897  0.0323  0.3261 -0.1701
22654W        W37785   3.455  15.947  12.137 -0.1032 -0.0342 -0.1046
22655W        W37786  16.240  16.741   0.536  0.2809 -0.4495 -0.3184
22656W        W37787  17.908  12.197   2.370 -0.5517 -0.3201 -0.3177
22657W        W37788  15.180  17.986   5.188  0.0847 -0.2089 -0.0179
22658W        W37789  18.096   8.544   2.489  0.1198  0.3372  0.0972
22659W        W37790  16.747  10.172  15.383 -0.1705 -0.2324  0.1469
22660W        W37791  12.148  18.747  13.167  0.2147  0.1827  0.4720
22661W        W37792   5.594   6.234   1.428  0.0958 -0.2394 -0.1254
22662W        W37793   0.071   4.105  14.833  0.0642  0.1756  0.1106
22663W        W37794   9.650  15.121   4.535  0.0162  0.1974 -0.2635
22664W        W37795  15.758   4.977   0.598 -0.0447  0.0014 -0.3293
22665W        W37796  16.842   3.486   2.986 -0.1598  0.1385  0.1600
22666W        W37797   5.982   6.965   1.026 -0.1407 -0.3995  0.1288
22667W        W37798   9.822  10.112   5.011  0.0638 -0.1318  0.2764
22668W        W37799  12.468  12.922  13.753 -0.0545 -0.0844  0.4143
22669W        W37800   5.304   8.440   3.572  0.0293  0.0221 -0.5025
22670W        W37801   0.782   6.394  11.646  0.3622  0.1508 -0.1637
22671W        W37802   9.893   6.924   0.880 -0.1670  0.1597  0.3735
22672W        W37803   2.293  11.172  14.910 -0.1717  0.1720  0.2114
22673W        W37804   8.417   9.670  13.002 -0.1274  0.0142  0.0195
22674W        W37805   8.088  14.902  14.710  0.2369  0.1185 -0.1176
22675W        W37806  13.439  10.478  15.177 -0.1374  0.3231 -0.2575
22676W        W37807  18.382  11.584   1.854 -0.1587  0.0396 -0.0004
22677W        W37808   8.690   6.555   4.891  0.0556  0.1677  0.2238
22678W        W37809   8.221  16.770   5.788  0.1020 -0.0115 -0.0779
22679W        W37810   6.797  15.581  10.957  0.1870  0.1002 -0.0639
22680W        W37811   5.603   1.022   4.391  0.0559 -0.2631 -0.2089
22681W        W37812   2.981  15.300  12.809  0.0428 -0.1388  0.0405
22682W        W37813  15.434  14.837   4.101  0.3370  0.1177 -0.0446
22683W        W37814  15.577   8.312   3.451  0.2813 -0.0722  0.1396
22684W        W37815   3.962   2.035   1.027  0.2409  0.4376 -0.1203
22685W        W37816   4.425  13.308   0.122 -0.1771 -0.1454 -0.2925
22686W        W37817  10.339   9.634   4.369  0.2341 -0.0790 -0.3699
22687W        W37818   9.520  13.655  11.746 -0.3718  0.0975 -0.0444
22688W        W37819  16.427  14.955  11.424  0.0577  0.0310 -0.2606
22689W        W37820   7.944   5.960   2.445 -0.2454 -0.3261  0.5575
22690W        W37821   2.910   1.250   1.178  0.0350  0.1462  0.0034
22691W        W37822  16.656   1.340  12.477 -0.0327  0.0077 -0.1132
22692W        W37823   3.118   9.375   0.546 -0.1969 -0.0876  0.0244
22693W        W37824  16.900   2.255  14.719 -0.1936  0.2099  0.2406
22694W        W37825   3.178  18.406  13.994 -0.0316 -0.0300 -0.2172
22695W        W37826  11.994  15.131  15.277 -0.1038 -0.1505  0.3422
22696W        W37827  17.154   8.753   0.190 -0.2656  0.2470  0.1088
22697W        W37828  10.307   4.869  12.706  0.1773 -0.2240  0.4542
22698W        W37829  10.447   7.185   6.019 -0.1484  0.2076  0.0770
22699W        W37830   4.942   7.870  12.102  0.1006 -0.0455  0.3062
22700W        W37831   3.053  11.965  12.442 -0.0122 -0.0175  0.1232
22701W        W37832   7.671   9.593   2.944 -0.2981  0.3656  0.2720
22702W        W37833  17.519  10.258   5.112  0.2128  0.1084  0.2053
22703W        W37834   7.645  17.805   9.599  0.2194 -0.0426 -0.0115
22704W        W37835   9.680   6.061   0.371 -0.3213 -0.0127 -0.0384
22705W        W37836  15.229   1.139   3.207  0.2350  0.1232  0.2458
22706W        W37837  11.313   4.117   4.917 -0.0515 -0.3301 -0.1055
22707W        W37838   4.280   8.720  13.394  0.0167 -0.1964 -0.2427
22708W        W37839  10.695   3.391  13.585 -0.1699 -0.0427  0.0451
22709W        W37840  10.091   5.262  13.005  0.2095 -0.1638 -0.0591
22710W        W37841  15.527   4.095   1.855 -0.0540  0.3499  0.0961
22711W        W37842  13.732   5.881   1.339  0.1530 -0.3604  0.2329
22712W        W37843  14.377  14.770  15.411  0.1467 -0.1008  0.3051
22713W        W37844   5.595  15.606   2.839 -0.3061  0.1809 -0.2814
22714W        W37845  12.367   6.712  13.881  0.1202 -0.1105  0.4813
22715W        W37846   6.343  10.751   3.456  0.5127  0.3204  0.3467
22716W        W37847   7.844   9.356   1.524  0.1174  0.1591  0.3070
22717W        W37848  14.446   9.826  11.516  0.0934  0.2095  0.2102
22718W        W37849  18.697  16.576  11.763 -0.1036  0.1946  0.0793
22719W        W37850   6.023   6.290   3.090 -0.0574 -0.2899  0.3456
22720W        W37851   3.033   5.296  15.582  0.0417 -0.1048 -0.0767
22721W        W37852  12.937  16.863   1.001  0.1220  0.0064  0.1018
22722W        W37853   9.060   7.421   4.494  0.0418  0.1036 -0.3268
22723W        W37854   4.936  11.610  13.513  0.0419  0.2066 -0.0006
22724W        W37855  17.854  17.425   4.787 -0.0857  0.1376  0.2417
22725W        W37856   9.877  18.149   9.789 -0.1229  0.0300  0.2878
22726W        W37857   7.683   0.446   3.176  0.4748  0.3213 -0.0140
22727W        W37858   1.515   0.519  12.266 -0.0100 -0.0517 -0.1868
22728W        W37859  14.081   5.954   1.754  0.0365  0.3435 -0.1437
22729W        W37860  14.833  11.398   4.118  0.1540  0.0119 -0.2011
22730W        W37861  17.975  11.053  14.363 -0.0199  0.1828 -0.3869
22731W        W37862   5.892  13.316   3.443  0.1048  0.0437  0.2482
22732W        W37863  17.732  15.617   2.263 -0.0928  0.1911 -0.0071
22733W        W37864   6.223   3.301  10.483 -0.2148 -0.0650  0.1750
22734W        W37865  10.716   6.943  10.604  0.0162 -0.1439  0.2700
22735W        W37866  15.363   1.255   2.730 -0.1101  0.2114  0.0071
22736W        W37867   4.995  15.429  13.249  0.0423  0.0796 -0.1003
22737W        W37868   1.022   3.268  11.272 -0.2871  0.1372  0.1864
22738W        W37869  16.726  14.338  13.125 -0.0044  0.0478 -0.3197
22739W        W37870  14.308   6.043  14.825 -0.2054  0.0605  0.1571
22740W        W37871   0.913   2.693  13.835 -0.5920  0.1600 -0.0949
22741W        W37872   2.675  16.371  14.726  0.5135  0.0600 -0.0005
22742W        W37873   5.972  14.972   0.519  0.2312  0.1672 -0.2333
22743W        W37874   7.519  18.181  11.833 -0.5413  0.1858 -0.2171
22744W        W37875  17.271   4.608  15.742 -0.1388 -0.1671 -0.3127
22745W        W37876   5.603   4.684  13.592 -0.1059 -0.2749  0.1321
22746W        W37877   9.914  17.510  12.760  0.2154 -0.1952 -0.3424
22747W        W37878   4.419   5.890   4.158  0.3248 -0.1713 -0.0846
22748W        W37879  16.630   7.305   9.473  0.1097  0.0711  0.0086
22749W        W37880   5.286  10.108  13.359 -0.0997  0.1806 -0.0027
22750W        W37881  10.642  15.682  15.193  0.0728 -0.0742 -0.1404
22751W        W37882  15.860   4.085   4.159  0.1744 -0.4745 -0.0202
22752W        W37883   6.391   6.442   0.151  0.0953  0.2901  0.1608
22753W        W37884  18.262  15.546   3.936  0.0745 -0.3156 -0.0404
22754W        W37885   5.198  14.071  14.477  0.1335 -0.1091  0.0878
22755W        W37886   4.642  16.504  15.064  0.0904  0.0204 -0.3688
22756W        W37887   6.421  15.964  13.095 -0.1822 -0.0350  0.0864
22757W        W37888   3.156   4.246   5.456  0.3793  0.0783  0.2685
22758W        W37889  14.003   0.517   6.143 -0.0753  0.0110  0.0551
22759W        W37890  11.538   4.537  12.156  0.0103  0.0660  0.0405
22760W        W37891   9.206  18.210   1.646 -0.2481  0.0660  0.1155
22761W        W37892   3.329  14.402  15.432  0.0660  0.0413 -0.1248
22762W        W37893  10.487  13.026   4.836  0.0540  0.1366  0.0014
22763W        W37894  12.772  10.917   4.300 -0.1072  0.0006 -0.2219
22764W        W37895   1.020   5.833  14.304 -0.1524 -0.2930 -0.0152
22765W        W37896  17.981   7.309   0.348 -0.4710 -0.0769  0.1568
22766W        W37897   3.801  10.321  12.784  0.1978 -0.2331 -0.0233
22767W        W37898   3.546   6.923  10.143 -0.0071 -0.2045  0.2651
22768W        W37899   1.955   1.327  15.699 -0.2583  0.1347 -0.0507
22769W        W37900   9.304   7.073  10.329 -0.3025  0.4402  0.2034
22770W        W37901   2.818  15.951  12.351  0.0121 -0.0366  0.1013
22771W        W37902  18.188   1.448  13.033  0.0259 -0.2243  0.0884
22772W        W37903  16.795   1.009   1.385 -0.2538  0.0276 -0.1206
22773W        W37904   8.142   4.921   2.518  0.1933  0.1782 -0.0348
22774W        W37905   4.071   6.842   2.413  0.2409 -0.1704  0.2594
22775W        W37906  18.390  10.728  15.422 -0.1837  0.1538 -0.3198
22776W        W37907   4.023   0.946  10.310 -0.2364 -0.3143 -0.0605
22777W        W37908   9.051   7.858  10.347  0.0704  0.3329  0.0376
22778W        W37909   6.732  13.715   0.771 -0.1270  0.0626  0.0507
22779W        W37910   6.148   5.353   1.478  0.1874  0.3356  0.3458
22780W        W37911  17.062  12.205   2.258  0.1597 -0.2335  0.3416
22781W        W37912   0.798   3.162  15.380 -0.3190 -0.1907 -0.0933
22782W        W37913   0.683   9.151   1.394  0.2915  0.0348  0.0959
22783W        W37914  12.844   7.760   4.934 -0.2189 -0.1054  0.0091
22784W        W37915   8.423   8.843  13.531  0.0790  0.1170 -0.2635
22785W        W37916  10.398  17.031  13.846  0.2684 -0.0175  0.0453
22786W        W37917   4.067  17.243   0.365  0.2506  0.0455  0.0306
22787W        W37918  10.470   3.545  11.360 -0.2498  0.0650 -0.0550
22788W        W37919   6.087   4.561   3.652 -0.1479 -0.0156 -0.1399
22789W        W37920   3.558  18.135   0.268 -0.0489  0.2130  0.1650
22790W        W37921   3.897  18.407  11.031  0.0854  0.3451 -0.1931
22791W        W37922  12.969   7.164  11.127 -0.0559  0.1893 -0.0845
22792W        W37923   6.123   3.111   1.331 -0.1069 -0.1356 -0.1733
22793W        W37924   3.803  11.063   4.942 -0.0591 -0.0306  0.2103
22794W        W37925   3.442  10.943   0.505  0.2600 -0.2943  0.0635
22795W        W37926  15.282  17.332   2.196  0.1799  0.1127 -0.1552
22796W        W37927  16.908   5.455  15.357  0.2236 -0.1707  0.3267
22797W        W37928  15.317  13.926   4.957 -0.1184  0.1157  0.1271
22798W        W37929   3.774   8.805  10.765  0.0939  0.0445 -0.2984
22799W        W37930   2.647  17.754   1.788  0.1061  0.0977 -0.0102
22800W        W37931  10.916  16.253  14.513 -0.0767 -0.1366  0.1509
22801W        W37932  13.895   2.987   3.070 -0.0967 -0.1010  0.2351
22802W        W37933   9.042   5.387   4.813 -0.3894 -0.1786  0.2755
22803W        W37934   3.383   5.705  12.822 -0.0411 -0.0074  0.0713
22804W        W37935   3.682   7.883  15.688 -0.1512 -0.2463 -0.0579
22805W        W37936  10.635  11.732   0.799 -0.1609  0.2366 -0.3288
22806W        W37937   3.246   3.695  11.421 -0.0574  0.0586  0.1652
22807W        W37938   9.077  16.018   5.131  0.3310  0.3049  0.1995
22808W        W37939   3.358   4.523   0.413 -0.3483  0.0001 -0.0673
22809W        W37940   3.773  17.113  14.172 -0.1024  0.0148  0.3771
22810W        W37941  15.279   2.476   4.016  0.4500 -0.0527 -0.1327
22811W        W37942  11.525   8.900   6.180  0.2389  0.1748 -0.0579
22812W        W37943   3.227   2.227  15.138  0.0427 -0.3297 -0.1488
22813W        W37944  14.501  17.547   4.648  0.0903 -0.0880 -0.1769
22814W        W37945   1.697  15.212   3.680 -0.3737 -0.5119 -0.4309
22815W        W37946  14.199  17.047   0.681  0.0534  0.0225  0.0231
22816W        W37947   9.912  15.457   4.879 -0.0204 -0.1434  0.2343
22817W        W37948  13.336   5.023  15.009  0.3906  0.0605  0.5900
22818W        W37949  16.547  11.232   4.791  0.4373 -0.1692  0.1332
22819W        W37950   8.499  13.457   1.806 -0.0105  0.4394 -0.0867
22820W        W37951   6.525   1.877  14.823  0.1246  0.3815 -0.0558
22821W        W37952   6.074  12.399   3.055 -0.0456 -0.0344 -0.2343
22822W        W37953   5.584   5.559  13.572 -0.3454  0.1842 -0.3141
22823W        W37954   2.573   5.198  13.423 -0.1852 -0.1227 -0.2843
22824W        W37955  11.633   2.232  15.435 -0.1898  0.1540 -0.0618
22825W        W37956   4.241   4.214   1.319  0.0053  0.1321  0.0806
22826W        W37957  15.538  12.651   0.802 -0.0390  0.1917  0.1176
22827W        W37958  12.757  16.822   0.176  0.1438  0.0023 -0.1464
22828W        W37959   9.672   4.666  14.617  0.1762  0.2012 -0.0442
22829W        W37960   6.518  17.993  14.693 -0.0271  0.0983  0.0765
22830W        W37961   6.970   0.199  13.464 -0.0798 -0.1071  0.1969
22831W        W37962   6.855  15.046   2.683  0.1326  0.1139  0.1622
22832W        W37963   9.736  10.280   3.265  0.0215 -0.1562  0.2076
22833W        W37964   0.769   9.149   4.670 -0.2611 -0.1846  0.1221
22834W        W37965  11.008   3.710  14.816  0.3911  0.0679  0.1752
22835W        W37966   4.491  16.131   1.517 -0.1332 -0.4192  0.4343
22836W        W37967  12.682   9.789  11.784  0.1363  0.1587 -0.1202
22837W        W37968  12.141   3.103   2.990  0.3423  0.2074 -0.2905
22838W        W37969   3.572   6.167   1.449 -0.2632  0.1592 -0.2171
22839W        W37970  18.228   4.735   2.418 -0.2203 -0.1037 -0.1996
22840W        W37971   4.474  15.402   2.620 -0.0619  0.0726 -0.0236
22841W        W37972  17.045   5.129   0.760 -0.2719 -0.2070 -0.2741
22842W        W37973   0.775  10.348  14.150 -0.4999  0.0524  0.4732
22843W        W37974  10.265  14.583   0.961 -0.2230 -0.0697  0.2023
22844W        W37975   8.438  13.863   3.113  0.0465  0.0405  0.2255
22845W        W37976  17.757  12.641  11.585  0.4043  0.0305  0.1121
22846W        W37977  10.265   3.982  12.515 -0.0275 -0.1013 -0.1228
22847W        W37978   8.720   1.022  10.017 -0.0534 -0.1286 -0.1553
22848W        W37979   2.007   9.681   4.727 -0.2002  0.0447 -0.0613
22849W        W37980   9.841   5.971   5.845  0.2716  0.0552 -0.2289
22850W        W37981  15.120   2.089  15.186 -0.4412 -0.2954 -0.0261
22851W        W37982   9.444  12.392   5.418  0.3401 -0.2412  0.1283
22852W        W37983   0.073   0.899   3.812  0.0576  0.0405 -0.2780
22853W        W37984   1.248  16.803  13.061  0.4102 -0.1063  0.1399
22854W        W37985   1.835  12.882   3.956  0.2585 -0.1350  0.1056
22855W        W37986   1.267   8.468   3.392  0.3626  0.3458  0.0052
22856W        W37987  10.370   9.535  15.481  0.6302 -0.2521 -0.1528
22857W        W37988  17.481  10.403   2.297 -0.0662 -0.0709  0.0448
22858W        W37989   8.933  17.118  10.949  0.3040  0.0870  0.3671
22859W        W37990  16.642  12.054  15.051  0.4787  0.1208  0.0411
22860W        W37991  13.321  10.917   0.927 -0.0117  0.1047 -0.1208
22861W        W37992   0.132   6.212  15.297 -0.0471 -0.3567  0.2487
22862W        W37993  12.898   6.126   0.773  0.0212  0.3791 -0.0761
22863W        W37994  16.244   8.155   3.263 -0.0157 -0.1498 -0.2697
22864W        W37995  13.763  13.613   4.782 -0.0728 -0.1290  0.2079
22865W        W37996   4.783  14.893   1.608  0.3090  0.0101 -0.0764
22866W        W37997  10.624   0.758   4.094 -0.1114 -0.2355  0.2717
22867W        W37998  15.908   4.668   4.413  0.1532  0.1866 -0.2462
22868W        W37999   8.582  11.796   3.294 -0.2026 -0.1681  0.0250
22869W        W38000   1.747   8.433   3.386  0.1500  0.4678 -0.0140
22870W        W38001   4.930   9.057  12.075  0.2819  0.1388  0.1332
22871W        W38002   5.866  14.794  11.669 -0.1511 -0.4021 -0.1521
22872W        W38003   3.863  18.418  13.250 -0.0469  0.1960  0.0125
22873W        W38004  17.296   3.687   5.223 -0.1458  0.2356 -0.1377
22874W        W38005  11.867   5.048   3.530 -0.1932 -0.0760  0.0057
22875W        W38006  16.049   8.738  14.123 -0.0872  0.0840  0.3332
22876W        W38007   1.623  18.407   3.378 -0.1784 -0.2574 -0.1773
22877W        W38008  17.725  14.452   0.771 -0.0557 -0.2244 -0.0593
22878W        W38009   7.402  16.264   2.641 -0.2211 -0.3597 -0.2018
22879W        W38010   3.228  15.945  12.611 -0.0629 -0.1128 -0.2435
22880W        W38011   5.907   8.834   0.796  0.5473 -0.1251 -0.3850
22881W        W38012   0.081   9.409  13.778 -0.1914  0.0041  0.2973
22882W        W38013  14.893  11.458  14.685  0.0870  0.0051 -0.2783
22883W        W38014  16.620   5.904  15.640  0.0052  0.4015 -0.1011
22884W        W38015  11.419   0.938   3.228 -0.1578 -0.1737  0.1782
22885W        W38016  11.469   9.854  12.087  0.1286 -0.2301 -0.2755
22886W        W38017  17.768  13.183   6.091 -0.1690  0.1857 -0.1389
22887W        W38018   8.500  11.716  15.499  0.0044  0.0361  0.0755
22888W        W38019   6.401  10.717  15.559  0.0430 -0.0345 -0.1517
22889W        W38020  16.515   0.490   2.690 -0.0948  0.2000 -0.2481
22890W        W38021   9.814  11.979   2.825 -0.2365  0.3057 -0.2846
22891W        W38022  10.435   5.618  12.957 -0.0565 -0.2205 -0.0851
22892W        W38023  12.776  15.525   3.992 -0.0525 -0.0147 -0.0161
22893W        W38024   0.576   6.295  13.866  0.1284  0.1133 -0.2357
22894W        W38025   0.467   8.081   1.282  0.0039 -0.1493 -0.2851
22895W        W38026   0.953   5.917   2.472  0.2011 -0.0137  0.0324
22896W        W38027   2.901  16.211  11.873 -0.0748 -0.0731 -0.2516
22897W        W38028   8.922   3.902  10.441 -0.0327 -0.3691 -0.3243
22898W        W38029   8.266   0.492  14.078  0.0691  0.1215  0.0373
22899W        W38030   2.939   3.785   1.655  0.0223  0.4053 -0.0371
22900W        W38031   1.158  12.932  12.363 -0.0641 -0.1515  0.0270
22901W        W38032   1.600   2.169  15.267 -0.3049 -0.0439 -0.2783
22902W        W38033   2.293   0.300  14.284 -0.1537 -0.2105  0.0767
22903W        W38034  13.598   1.483  11.173  0.3200 -0.0760 -0.0645
22904W        W38035  11.969  14.073  11.613  0.0385  0.1503  0.1364
22905W        W38036  17.208  12.143   3.819 -0.4081 -0.1282  0.1160
22906W        W38037  17.358   7.738   1.334 -0.3719 -0.1060  0.1378
22907W        W38038  15.243  13.145   3.278  0.1060  0.2269 -0.4287
22908W        W38039  11.657  11.258  14.302 -0.2346  0.1614 -0.0260
22909W        W38040   3.430  18.230   2.805 -0.1716  0.0110 -0.1928
22910W        W38041   4.684  16.138  13.209  0.3785 -0.0425  0.1411
22911W        W38042   5.532  10.126   1.473  0.2447 -0.0180  0.1088
22912W        W38043  14.460  18.685  11.990  0.2548  0.0574  0.3701
22913W        W38044   7.964  17.895  12.820  0.1235  0.1939  0.2672
22914W        W38045   2.645  15.735   4.361  0.0914 -0.2436  0.1267
22915W        W38046   3.635   3.613  14.707 -0.2139 -0.0606  0.1565
22916W        W38047  11.707   0.018  14.869 -0.1377  0.0667 -0.2801
22917W        W38048   9.890  13.902   0.964  0.0387  0.1443 -0.0589
22918W        W38049  11.394   8.087  11.879  0.3801  0.0922 -0.2215
22919W        W38050  17.716  17.977   3.057 -0.3378  0.0802  0.1887
22920W        W38051   3.755   0.961   4.553 -0.0628  0.0547  0.0663
22921W        W38052  10.941  12.678  12.595 -0.2889 -0.0558 -0.2817
22922W        W38053   0.701  16.259   1.421  0.3824  0.3783 -0.1014
22923W        W38054   0.497   2.479   1.248  0.7776  0.0807  0.3823
22924W        W38055  15.634   2.328   0.390 -0.0674  0.1931 -0.0802
22925W        W38056   6.201   6.037   1.113  0.2079 -0.1321  0.1118
22926W        W38057  17.434  16.162  13.989 -0.0578 -0.0126  0.2624
22927W        W38058  13.324  10.909   1.464 -0.3577  0.0740 -0.2712
22928W        W38059   0.389   8.861  14.396  0.1890  0.0509  0.0863
22929W        W38060  17.118   4.640  11.356  0.0490 -0.0705  0.0722
22930W        W38061   5.024   3.074   3.978 -0.0969  0.2015  0.1687
22931W        W38062  11.012  17.206  15.430  0.0741 -0.1161  0.0062
22932W        W38063  12.161   1.041  12.957 -0.1145 -0.1532 -0.2134
22933W        W38064   9.436   9.039   4.973  0.0765  0.4019  0.1402
22934W        W38065   3.682  13.878  11.802 -0.2848 -0.1225  0.2524
22935W        W38066  13.733   8.480  11.059  0.1621 -0.0707 -0.0206
22936W        W38067   5.064   6.279  11.846  0.1868  0.4323 -0.1422
22937W        W38068  14.915  17.111   3.844  0.0268 -0.1482 -0.1615
22938W        W38069  13.326  13.263   2.478 -0.4569 -0.2919 -0.0476
22939W        W38070   6.830   3.339  12.499 -0.0062 -0.0903  0.1990
22940W        W38071   4.029   4.748  10.234 -0.2046 -0.0203  0.0188
22941W        W38072   7.922   1.594  11.625  0.1735  0.3170 -0.1693
22942W        W38073  11.940  17.940   5.342  0.1569 -0.1509  0.4629
22943W        W38074  14.776  15.131   2.994 -0.0715  0.2029 -0.0302
22944W        W38075  18.456   3.676   2.098 -0.4422 -0.0103 -0.1221
22945W        W38076   7.704   7.258  12.011 -0.1248 -0.3510 -0.0941
22946W        W38077  17.437  15.564  10.681  0.0590  0.0562 -0.4387
22947W        W38078   8.146  13.424   2.809  0.4225 -0.0509  0.1740
22948W        W38079  11.803  15.133   5.392 -0.0911 -0.1049  0.0883
22949W        W38080   5.782  11.229  10.451 -0.1904 -0.0583  0.1014
22950W        W38081   3.891   6.518  13.242 -0.1581  0.0984  0.0438
22951W        W38082  11.712  17.827  11.420  0.1894 -0.2059  0.5026
22952W        W38083   5.453   4.218  15.626  0.0642 -0.0757 -0.0571
22953W        W38084  18.187  13.657   5.007 -0.0990 -0.2267 -0.0851
22954W        W38085  18.688   5.680   2.714 -0.1130  0.3145 -0.1938
22955W        W38086   6.122   2.731  11.592  0.1076  0.3999  0.1802
22956W        W38087   0.877  18.285   5.953  0.0781  0.1412  0.1297
22957W        W38088  15.354   4.600  12.711  0.0307  0.1038  0.1229
22958W        W38089   9.509   8.265  15.191 -0.1043 -0.1390  0.0185
22959W        W38090  17.487  17.776  14.688  0.0589  0.3414  0.3965
22960W        W38091   8.662   3.222   0.463 -0.2132  0.1868  0.0869
22961W        W38092  15.916   1.854  12.615 -0.0280  0.0913 -0.1599
22962W        W38093  14.909  16.815  13.837 -0.1215 -0.3152  0.1973
22963W        W38094  11.976   5.885  13.383 -0.3099  0.1359  0.0821
22964W        W38095  14.099  17.183  13.086  0.0991 -0.5850  0.3913
22965W        W38096   8.519   1.102  13.158  0.0018  0.4775  0.2394
22966W        W38097   2.012  16.551  11.023 -0.0892  0.1680  0.3009
22967W        W38098   4.007  17.355  14.605  0.1786  0.1163  0.0966
22968W        W38099   1.473  11.825   2.365 -0.0579  0.2014 -0.0147
22969W        W38100  16.279   2.464   5.110 -0.1073  0.0748 -0.0078
22970W        W38101   0.035  12.039  14.682 -0.1819  0.0357 -0.2186
22971W        W38102  15.395   3.189  13.122  0.0445  0.1966 -0.1214
22972W        W38103  11.374   9.205   4.513 -0.1200 -0.1842  0.0078
22973W        W38104   9.458  11.770   1.442 -0.2169  0.1864 -0.1758
22974W        W38105   9.031   3.660   2.972 -0.0435  0.0664 -0.2029
22975W        W38106  13.504   2.830  12.771  0.2318 -0.0516 -0.0321
22976W        W38107   1.137   0.073  13.494 -0.1998 -0.1360 -0.1202
22977W        W38108   9.418  14.913  14.731 -0.3505 -0.2204  0.1755
22978W        W38109  13.322  10.617  11.018  0.1405  0.1382 -0.4340
22979W        W38110   6.795   8.770   2.421 -0.2339 -0.1554  0.1781
22980W        W38111   7.595   0.047   0.562 -0.1328 -0.1535 -0.0505
22981W        W38112   1.146  13.138   2.924 -0.2310 -0.1756 -0.1241
22982W        W38113   0.306   6.292   2.446 -0.2614 -0.1803  0.0431
22983W        W38114   1.397  14.078   5.044  0.0677 -0.2458  0.1631
22984W        W38115   5.048  13.400  12.734  0.3131 -0.0505 -0.0587
22985W        W38116  16.180  10.598  14.418  0.1194  0.0212 -0.2214
22986W        W38117   5.168   0.735  11.042 -0.0899  0.0611  0.2314
22987W        W38118  14.894   3.061  15.170  0.1831 -0.1178  0.2674
22988W        W38119   0.560   2.109  12.102 -0.0305  0.2331  0.0005
22989W        W38120   0.085   1.085   4.851 -0.1773 -0.3226 -0.2855
22990W        W38121   0.324   5.735   0.881 -0.3386  0.1199  0.0497
22991W        W38122  15.044   0.071  12.127  0.1402  0.3116  0.1767
22992W        W38123   3.487  13.644   9.843  0.0758  0.1658  0.0973
22993W        W38124  18.702   4.864  13.871 -0.1090  0.0523 -0.1407
22994W        W38125   1.979   9.305  13.254  0.0371 -0.1378 -0.1022
22995W        W38126   7.885   7.070  14.161 -0.0630 -0.2657  0.2066
22996W        W38127   9.882  17.864   3.822 -0.0121 -0.2187 -0.0669
22997W        W38128  16.384  14.182  10.593 -0.2096 -0.1345 -0.1403
22998W        W38129  14.045  17.746  11.538  0.0677  0.2138  0.3509
22999W        W38130  18.701   8.329   4.080 -0.2987  0.0447 -0.1490
23000W        W38131   4.413   6.775   1.623 -0.0340 -0.0263 -0.2276
23001W        W38132   0.767   0.457  12.894  0.1596 -0.0950  0.0064
23002W        W38133   9.961   9.888  13.030  0.1915 -0.0459  0.0427
23003W        W38134  13.288  10.182   5.896 -0.3747  0.1440  0.0211
23004W        W38135  15.505  11.222   0.848 -0.2728 -0.3812 -0.2154
23005W        W38136   3.677   1.500   3.616 -0.1975  0.0910  0.0359
23006W        W38137   0.253   0.246  12.441  0.2509  0.0382  0.1460
23007W        W38138   3.588   1.395  11.030  0.0229  0.0168  0.0963
23008W        W38139   8.384  12.450   2.605 -0.2140  0.2284 -0.0140
23009W        W38140   6.980  11.371  15.344 -0.2931  0.0297 -0.1989
23010W        W38141  14.101  10.270  10.494  0.2308 -0.2568  0.2804
23011W        W38142   9.721   6.557   4.209 -0.2791 -0.3033  0.0801
23012W        W38143  10.690  17.419  13.984 -0.2235  0.1635 -0.2603
23013W        W38144  15.037   4.708  10.296  0.2454  0.0805  0.3745
23014W        W38145   0.250   4.250   3.578  0.0340 -0.2209  0.0606
23015W        W38146  14.812   2.145   2.277 -0.3112  0.0935  0.1819
23016W        W38147  10.872   9.340  12.509  0.0463 -0.0919  0.2048
23017W        W38148  11.100   0.182   5.152 -0.1646 -0.0494 -0.3482
23018W        W38149  14.869  12.180   2.921  0.2060 -0.2193 -0.1097
23019W        W38150  16.687  12.625  14.065  0.2095  0.3599 -0.1641
23020W        W38151   2.522   6.918  14.073  0.4749 -0.2211 -0.0906
23021W        W38152  16.042   6.028   5.484  0.0543  0.3644 -0.0611
23022W        W38153   4.875  18.130   3.113 -0.4528 -0.1969 -0.2614
23023W        W38154  11.073  10.019  12.843 -0.1230 -0.3367  0.5480
23024W        W38155   6.993   2.053   2.700  0.2618 -0.2366 -0.0949
23025W        W38156  12.587   9.889  11.300 -0.3220  0.0111  0.2080
23026W        W38157   3.019  17.528   2.117  0.2341  0.1256  0.0266
23027W        W38158   5.661  10.874  13.667 -0.0578  0.1535  0.0570
23028W        W38159   3.909   7.216  12.753  0.2867  0.0888 -0.0432
23029W        W38160  17.500   7.432   3.346  0.0784  0.0433  0.1439
23030W        W38161   2.668   2.240  15.585  0.0075  0.0967  0.1871
23031W        W38162  12.457   8.396   1.306  0.1647  0.0401 -0.1591
23032W        W38163   0.971  12.496   0.171  0.0682  0.1041  0.0921
23033W        W38164   4.521   0.909   3.638  0.0423 -0.2023 -0.2053
23034W        W38165  11.102  16.472   1.987 -0.1172 -0.1929 -0.3914
23035W        W38166  12.831   3.594  13.621 -0.0120 -0.0440 -0.1042
23036W        W38167  11.647  12.808   4.714 -0.0628  0.0021  0.1033
23037W        W38168  15.252   6.322  13.400 -0.1751  0.0037 -0.0633
23038W        W38169   9.752   1.177  10.898  0.2723 -0.2587  0.3204
23039W        W38170  11.951   3.744  10.566 -0.1966  0.4106 -0.2878
23040W        W38171  18.497   4.461   4.992  0.1171 -0.3382  0.1128
23041W        W38172  10.004  18.392  11.421 -0.0577  0.0444  0.0539
23042W        W38173  13.271   6.848   1.462  0.2802 -0.0219 -0.0584
23043W        W38174   3.396  16.582  10.994 -0.3070  0.0080 -0.0194
23044W        W38175   1.678   5.903  12.611 -0.3096 -0.1894  0.0526
23045W        W38176  15.205   0.103   3.973  0.2571  0.3376 -0.3210
23046W        W38177   2.462   9.141  13.512  0.2232 -0.2518 -0.1866
23047W        W38178   7.852   8.809  10.310  0.1772  0.4227  0.0292
23048W        W38179   1.198  17.795   0.876  0.2569  0.2894 -0.3754
23049W        W38180   6.123   3.459  13.145  0.0570  0.0092 -0.1625
23050W        W38181  16.093  10.518   2.617  0.0700 -0.0741 -0.2809
23051W        W38182   0.531  17.431  14.087 -0.1003  0.2883  0.0183
23052W        W38183   1.647  16.116  10.622 -0.3312  0.1006 -0.1753
23053W        W38184   5.642   0.504  10.932  0.0605  0.0535  0.3111
23054W        W38185  15.402  17.513  15.648  0.0931  0.2891 -0.1254
23055W        W38186  14.898   7.823   5.453 -0.3503  0.0087 -0.1560
23056W        W38187   4.463  14.823  14.658  0.2338  0.2398 -0.0760
23057W        W38188   0.503  14.522   2.591  0.1974 -0.1222 -0.0495
23058W        W38189  16.525   8.105  11.606  0.0658  0.3733 -0.1440
23059W        W38190   0.506  14.270  14.795 -0.3579 -0.3159 -0.1682
23060W        W38191   7.681  13.423   4.573 -0.1207  0.2860  0.1176
23061W        W38192   6.847   0.775  15.752 -0.0843 -0.2041 -0.1508
23062W        W38193   1.473  10.448   3.415 -0.2521  0.1888  0.4092
23063W        W38194   8.110   9.148  14.832  0.3060  0.1362 -0.1959
23064W        W38195   8.196   5.325  15.019  0.3722 -0.0079 -0.0922
23065W        W38196   1.072   4.493  11.054 -0.0224 -0.0324  0.0410
23066W        W38197  16.358  12.377   4.005 -0.1962 -0.1379  0.0495
23067W        W38198  14.803  15.675  14.380  0.1278 -0.1023 -0.1860
23068W        W38199   9.649  14.863   2.354  0.1726  0.1870 -0.0684
23069W        W38200   7.532   5.666   2.223 -0.1136 -0.4117  0.4213
23070W        W38201  15.803  17.011   0.587 -0.0100  0.1632  0.0013
23071W        W38202   0.642   7.125  12.046 -0.1738  0.0478  0.0119
23072W        W38203   3.778  13.058   1.689 -0.0926 -0.0227  0.0987
23073W        W38204   2.697   5.659   1.194 -0.1800  0.1971 -0.0066
23074W        W38205   9.279   6.842  13.146  0.2569 -0.2528  0.1423
23075W        W38206  11.592  14.883   0.518  0.3306 -0.3637  0.2847
23076W        W38207   3.214  13.775  13.072 -0.0226 -0.1627  0.2587
23077W        W38208  12.521   7.954  15.704 -0.0347 -0.0797 -0.0746
23078W        W38209   4.586  18.530   2.239 -0.1153 -0.1826  0.1177
23079W        W38210   6.553  16.563  12.393  0.0315  0.2558  0.2544
23080W        W38211   7.223  17.969  15.388 -0.2973 -0.1117  0.2841
23081W        W38212   3.063   9.521   5.171 -0.0667  0.1051  0.1775
23082W        W38213  18.389   4.017  10.777 -0.2015  0.0415 -0.0240
23083W        W38214  18.351  14.233  11.990 -0.0817  0.2306 -0.1934
23084W        W38215  16.976  10.138   2.393 -0.0335 -0.2559  0.1181
23085W        W38216  10.767   3.416  10.120 -0.2145  0.4637 -0.0547
23086W        W38217   7.494   8.281  12.348 -0.2244 -0.2685 -0.2483
23087W        W38218   1.059   0.367  11.334  0.1615 -0.0810 -0.2118
23088W        W38219  13.874  12.544  13.622  0.1096  0.0564 -0.0182
23089W        W38220  12.425   5.525   2.322  0.1303  0.1715 -0.1395
23090W        W38221   4.288   0.929   4.876  0.2309  0.2310  0.2602
23091W        W38222   4.975  14.614   3.582 -0.2072  0.0985 -0.2824
23092W        W38223   1.055   9.358  11.048  0.0275 -0.0897  0.2527
23093W        W38224   9.993   7.476   2.876  0.0280 -0.0441 -0.2947
23094W        W38225  18.234   5.777   3.969 -0.1476  0.2632 -0.3852
23095W        W38226   7.895  11.900   4.923 -0.2715  0.3592 -0.2048
23096W        W38227  13.921   9.725   3.881 -0.2320  0.1714 -0.2668
23097W        W38228   7.312   5.428  15.448  0.0950 -0.2856  0.1710
23098W        W38229   4.699   1.954  15.685 -0.2527  0.1988  0.1756
23099W        W38230  14.790   6.756   3.895  0.0870 -0.1376 -0.0541
23100W        W38231  10.970   6.127  15.639  0.2273 -0.2649 -0.0473
23101W        W38232   4.097  15.791  13.515 -0.0896  0.2820  0.1435
23102W        W38233  14.499   9.109   4.904  0.1107 -0.2583 -0.0915
23103W        W38234   5.523  16.608  14.842 -0.1826  0.2350 -0.2421
23104W        W38235  14.526   2.429   3.370  0.2712 -0.4121 -0.0967
23105W        W38236   6.235   4.509   2.043  0.2815  0.0387  0.1565
23106W        W38237   4.164   4.028   3.060  0.0756  0.1161  0.1582
23107W        W38238  18.748  15.888   1.124 -0.0133 -0.1661 -0.0922
23108W        W38239  12.552   1.921   3.873  0.4282  0.1745  0.0507
23109W        W38240   6.793  14.637  12.141 -0.0096 -0.0171 -0.0293
23110W        W38241   0.028   8.040   2.112  0.0522 -0.1750  0.6020
23111W        W38242   6.883   7.773  10.815  0.0987 -0.1452  0.0938
23112W        W38243  14.201  13.157  12.637  0.0753  0.1143 -0.0155
23113W        W38244   9.614  12.741  12.072  0.7259  0.0200  0.3594
23114W        W38245   6.341  10.995   4.518  0.1484  0.0529  0.3042
23115W        W38246   0.488   6.907  15.207 -0.2710 -0.0272  0.1963
23116W        W38247  10.617   2.566   6.310  0.0006  0.0265  0.0958
23117W        W38248  18.213  11.079   6.036  0.2074  0.1184 -0.3809
23118W        W38249  12.008   4.987   4.156  0.1080  0.0095  0.0477
23119W        W38250   7.577  13.209   1.870  0.1002  0.3555 -0.1045
23120W        W38251  10.001  12.965   6.024 -0.2091  0.0158  0.0632
23121W        W38252   6.478   2.446  10.160  0.3609 -0.0914 -0.1380
23122W        W38253   9.233  13.655  12.668  0.2060 -0.1079 -0.0791
23123W        W38254  16.931   0.270   3.032  0.0411  0.2440  0.3257
23124W        W38255   5.743   7.435   1.293  0.1597  0.1315 -0.1188
23125W        W38256   5.431   6.818  13.715  0.1393 -0.5357  0.0188
23126W        W38257   7.069  13.651   6.153 -0.0093 -0.1240  0.1385
23127W        W38258  12.356   3.322   5.171 -0.1989  0.0345 -0.2850
23128W        W38259   5.019   4.049   1.364  0.3034 -0.0057 -0.1296
23129W        W38260  13.130  13.048  12.222  0.4372 -0.1280  0.2060
23130W        W38261   5.302   8.913   2.308  0.0981  0.2326 -0.3390
23131W        W38262   0.160  14.229  11.407 -0.0701  0.2660  0.1272
23132W        W38263   6.680   7.059   3.434 -0.0860 -0.0668 -0.0067
23133W        W38264   6.307   3.533   3.205  0.0114 -0.1173 -0.3015
23134W        W38265  17.735  17.310   2.418  0.1289  0.0588 -0.2944
23135W        W38266   0.585   2.454  12.482 -0.0519  0.0367 -0.1270
23136W        W38267  14.878   6.705  14.901  0.3695  0.0102 -0.1559
23137W        W38268  16.827  11.502   3.515  0.0703 -0.4071  0.4592
23138W        W38269   0.176  11.514  14.542 -0.0232 -0.2820 -0.4904
23139W        W38270   6.896  16.446   4.663  0.4425 -0.0547 -0.0862
23140W        W38271   7.680   1.308  11.977 -0.1746  0.2310 -0.0193
23141W        W38272  17.184   8.068  13.991 -0.1084 -0.0329  0.0569
23142W        W38273   1.430   2.562  14.755 -0.1527 -0.0327  0.0236
23143W        W38274   3.790   4.517  11.653 -0.2058 -0.1118  0.1143
23144W        W38275  17.547  17.903  10.408  0.1179 -0.1381 -0.2992
23145W        W38276  17.003   0.302   5.147 -0.0384  0.2725  0.2527
23146W        W38277   7.568   3.820   0.424  0.0212 -0.1442  0.3138
23147W        W38278  12.337  16.521   0.181  0.0169 -0.0094 -0.0111
23148W        W38279   2.452  15.344   1.532  0.4806 -0.2785  0.1620
23149W        W38280   0.590  17.157  12.838 -0.1444  0.0188 -0.3359
23150W        W38281   4.468   8.687   3.442  0.0511  0.3828 -0.2220
23151W        W38282  17.254   5.752  12.708 -0.2355 -0.0131  0.0222
23152W        W38283   5.114   2.824  14.326  0.0245 -0.0247  0.4990
23153W        W38284  10.777  12.903   2.649 -0.0413 -0.1854 -0.1718
23154W        W38285   8.287  11.912   5.308 -0.2703  0.0827 -0.1875
23155W        W38286  18.636  12.810   5.158 -0.1397 -0.0677  0.4353
23156W        W38287   0.441   0.776   9.624 -0.0262 -0.0781 -0.0376
23157W        W38288   4.341   9.079  10.024  0.1670  0.0042  0.1249
23158W        W38289  13.320  16.692  10.983  0.0843  0.0879 -0.0476
23159W        W38290  13.763  16.845  11.160  0.3530 -0.1641 -0.1089
23160W        W38291  18.534  15.249  12.370  0.3135  0.2044 -0.2309
23161W        W38292  11.462   5.315   0.618 -0.0715  0.1569 -0.1204
23162W        W38293   7.198   4.183  11.969  0.2678 -0.0802  0.0767
23163W        W38294   2.622   2.440   0.674 -0.1135 -0.2966 -0.0305
23164W        W38295   4.131   1.572  13.879  0.0954  0.3682  0.1299
23165W        W38296  10.652  11.561  14.408 -0.0771 -0.0118  0.2583
23166W        W38297  17.416  17.538   3.315 -0.1342 -0.1951 -0.2057
23167W        W38298   5.445   4.073  14.634 -0.1759  0.4590  0.2835
23168W        W38299   6.202   0.781   4.995  0.2555 -0.2549  0.2871
23169W        W38300   1.459   2.675   1.873 -0.0286  0.1884  0.2604
23170W        W38301  14.959  17.056   5.006  0.3489  0.0000 -0.0255
23171W        W38302  16.169  15.173   3.686 -0.2579  0.0252  0.1711
23172W        W38303  14.741  11.623   2.295 -0.0030  0.1130 -0.0090
23173W        W38304   7.680   0.367  13.016  0.0774 -0.0414 -0.0113
23174W        W38305   1.601  10.860   4.911  0.0146 -0.0523 -0.0615
23175W        W38306  16.165  14.466  11.491 -0.1891 -0.4050 -0.0810
23176W        W38307  12.510  15.199  13.289  0.0091  0.1750  0.1508
23177W        W38308  14.260   3.539   1.984 -0.1186 -0.1052  0.0770
23178W        W38309  17.994  14.368   0.024  0.0249  0.1907 -0.0550
23179W        W38310   1.203  16.509   2.788  0.0468 -0.1029 -0.0835
23180W        W38311  11.320  17.061   2.584 -0.0568 -0.2509 -0.0733
23181W        W38312  14.187  10.744  14.978 -0.1190  0.1036 -0.2965
23182W        W38313  15.415  15.077   0.617  0.0747 -0.1962  0.1547
23183W        W38314   2.170   7.783   2.006  0.3240  0.1354  0.0941
23184W        W38315  15.410   4.844  10.013  0.0286  0.0436 -0.1691
23185W        W38316  15.402   5.943   1.666 -0.1945 -0.0662 -0.2606
23186W        W38317  17.365  13.197   5.165 -0.0947 -0.0857 -0.2561
23187W        W38318  16.995   2.177  15.210  0.1795 -0.0928  0.2380
23188W        W38319  11.505   3.633  13.824 -0.1053 -0.0071  0.2373
23189W        W38320  12.306   0.859  11.468 -0.0280 -0.2954 -0.1619
23190W        W38321   2.046   5.301   4.862  0.1460  0.1962  0.0175
23191W        W38322  10.474  17.799   4.620  0.1334  0.5022  0.1985
23192W        W38323  18.057   4.572  12.647  0.0884 -0.0207  0.0844
23193W        W38324   5.101  16.750  15.023  0.0111  0.0590 -0.1488
23194W        W38325  13.816   9.021   0.586  0.4214  0.0141  0.1653
23195W        W38326   6.463   9.139  12.592 -0.0757 -0.1348 -0.2345
23196W        W38327  16.573  10.791  14.768  0.2646  0.0451  0.1142
23197W        W38328   0.943  11.951   2.447 -0.0312 -0.2364 -0.1282
23198W        W38329   8.486   5.748   0.240  0.1582  0.0089  0.0626
23199W        W38330   4.015  17.109  12.002  0.0114 -0.1097  0.1731
23200W        W38331  15.963  10.165   3.382  0.1845 -0.0165  0.0328
23201W        W38332   4.594  13.940   4.229 -0.1537  0.1548 -0.1319
23202W        W38333   6.703  12.677  14.039  0.0433  0.2197 -0.2021
23203W        W38334  17.959  16.688   1.849  0.2170  0.0563 -0.2525
23204W        W38335  12.588   8.866  11.609  0.2062  0.0740 -0.1819
23205W        W38336   2.624  18.154   6.307 -0.1947  0.2840 -0.2141
23206W        W38337   1.413   3.182  10.983 -0.2777 -0.0862 -0.0601
23207W        W38338   4.568   3.963   0.991 -0.0879 -0.2872 -0.1248
23208W        W38339  14.606   3.163   3.961  0.1798  0.0994  0.2089
23209W        W38340  11.031   6.401   0.314  0.1060 -0.1867  0.1472
23210W        W38341  17.984  11.868   1.672  0.2321  0.0606 -0.1011
23211W        W38342   2.937  17.550   3.853 -0.0534 -0.3209 -0.2013
23212W        W38343  10.617   8.097   2.825 -0.0177  0.0578 -0.0247
23213W        W38344   5.583  15.602  13.328  0.1228  0.2669  0.2536
23214W        W38345   1.866  17.718   2.964  0.1301 -0.2327 -0.2679
23215W        W38346   0.655   6.381   1.171  0.1294 -0.2173 -0.0024
23216W        W38347   6.597   4.050   4.321 -0.1353 -0.0495  0.1708
23217W        W38348  15.680  13.236   3.070  0.1091  0.1241 -0.0110
23218W        W38349  10.000  15.958   3.040  0.3684 -0.1075  0.0551
23219W        W38350   4.329  18.655  14.122  0.2204 -0.1027  0.3045
23220W        W38351  12.329  18.221   4.078 -0.1776 -0.1695  0.0119
23221W        W38352   7.070  17.368   3.476 -0.1354  0.0202  0.3061
23222W        W38353   7.599   7.578   0.913 -0.2358 -0.0054  0.0151
23223W        W38354  13.152   7.677  14.450 -0.2273  0.0186 -0.0316
23224W        W38355  17.346   2.729  15.343  0.1502  0.0043 -0.6077
23225W        W38356   5.403  16.677  10.645 -0.5045 -0.1481  0.2251
23226W        W38357  18.696  10.221  11.619 -0.0099 -0.2205 -0.1614
23227W        W38358  11.930   5.094   0.492  0.1948  0.0827  0.0768
23228W        W38359  14.668  16.578  14.237  0.1699 -0.1285 -0.3778
23229W        W38360  12.551  14.494  10.848 -0.3503  0.3199  0.0896
23230W        W38361  13.994  16.939   4.020  0.3028 -0.1810 -0.2475
23231W        W38362  18.510   9.510  13.460 -0.2407  0.1730  0.0826
23232W        W38363  17.927  10.353  15.491  0.0736  0.3590  0.1695
23233W        W38364   0.217   5.520   4.109 -0.1105 -0.0519  0.2424
23234W        W38365  13.444   4.678   0.733 -0.2855  0.1698 -0.0169
23235W        W38366  16.947  15.163  13.474  0.1474 -0.2006  0.1256
23236W        W38367  16.852   2.517  13.556 -0.2798 -0.1590  0.2022
23237W        W38368  12.608  16.340   3.351  0.2206  0.1086  0.1973
23238W        W38369  15.051   3.746  12.393 -0.0819 -0.3333  0.2102
23239W        W38370  15.298  17.620   0.327 -0.4553 -0.0537 -0.1863
23240W        W38371   5.161  11.180   4.383 -0.0223 -0.2197  0.0143
23241W        W38372  14.184   6.266  11.804 -0.3009 -0.1912 -0.0620
23242W        W38373   4.938   2.194   2.963  0.0961  0.0283  0.2524
23243W        W38374   7.051  15.286  13.043 -0.3099 -0.2004 -0.2068
23244W        W38375  12.031  14.415  10.752  0.2203  0.0052  0.1342
23245W        W38376   3.889  14.290  14.818 -0.1212  0.6691 -0.4208
23246W        W38377   2.112   7.536  13.351 -0.1018 -0.4465 -0.1363
23247W        W38378  11.912   2.668   1.083 -0.1401 -0.0694 -0.1486
23248W        W38379   0.487   6.433  15.068  0.1996  0.2701  0.5303
23249W        W38380   0.963  15.276   0.373  0.0071 -0.2001  0.2772
23250W        W38381  13.578   2.733   2.093 -0.1877 -0.0768 -0.2839
23251W        W38382  14.343  17.549   0.768 -0.0650  0.1912  0.1802
23252W        W38383   4.015   1.918   9.319  0.0635  0.0403 -0.1106
23253W        W38384  18.523  15.904  15.734 -0.1023  0.2643 -0.0352
23254W        W38385  12.729   9.293  11.996 -0.1592 -0.1569 -0.2535
23255W        W38386   5.987   6.978   4.672 -0.2448  0.2564 -0.3957
23256W        W38387  14.720   3.294   3.452 -0.0771 -0.0648 -0.0465
23257W        W38388  18.235  14.950   5.652 -0.1017 -0.1551  0.0486
23258W        W38389   0.456  18.497   5.095  0.0291  0.0411 -0.2956
23259W        W38390   1.948   7.026   5.720 -0.1733  0.3430 -0.2211
23260W        W38391  14.069   2.573  11.050 -0.0863  0.1729 -0.0330
23261W        W38392   9.883  15.239   5.639  0.2488  0.2676  0.1507
23262W        W38393   3.853   8.858   3.225 -0.0899 -0.0031 -0.0659
23263W        W38394   1.882   4.263  11.470  0.2129 -0.0166  0.0973
23264W        W38395   6.869   5.021   1.899  0.0930 -0.2927 -0.0162
23265W        W38396  11.038  17.426   2.859 -0.1057 -0.0451  0.1969
23266W        W38397   4.514   2.402   0.710  0.0179  0.0078  0.0556
23267W        W38398   3.478  11.639   2.154  0.4729  0.1232 -0.2410
23268W        W38399   0.189  14.561   4.975 -0.1146  0.4180 -0.3391
23269W        W38400   5.029   9.635   4.143 -0.1440  0.0957 -0.1737
23270W        W38401  14.038  15.877  10.851  0.0370 -0.1462 -0.1693
23271W        W38402   0.575   4.709  11.742 -0.3354 -0.1971 -0.3034
23272W        W38403   7.229  14.333   4.581  0.4234  0.2058 -0.0547
23273W        W38404  15.571  15.480  14.933  0.0802  0.0899 -0.2748
23274W        W38405   9.939   9.403   4.519 -0.0023 -0.1107 -0.1293
23275W        W38406   5.501  12.397   1.708  0.2698 -0.0692 -0.1934
23276W        W38407  14.116  15.490  13.677  0.0943 -0.4375  0.2611
23277W        W38408   4.458   5.470   4.606  0.0674 -0.2462 -0.0619
23278W        W38409   4.802  10.778  14.126  0.1139  0.0068 -0.4421
23279W        W38410   5.428   8.745   1.646  0.3701  0.4530  0.0504
23280W        W38411  16.318  13.149  14.677 -0.1814 -0.1128  0.0159
23281W        W38412   9.280   3.537   0.079  0.4992 -0.1655  0.1567
23282W        W38413  10.987   5.251   1.571  0.0603 -0.2209 -0.0524
23283W        W38414   3.486   9.181   3.064  0.0276  0.0400  0.1877
23284W        W38415   6.670   8.211   0.697  0.0296 -0.3880  0.0867
23285W        W38416   3.672   5.068   0.367  0.2503 -0.1736 -0.0069
23286W        W38417  14.084   8.095  11.179 -0.1562  0.0826 -0.0269
23287W        W38418   7.927   2.757   3.442 -0.1185 -0.3430  0.1305
23288W        W38419   8.685  16.539   3.719 -0.0312  0.1031 -0.0727
23289W        W38420  17.539   1.784  12.420 -0.1367 -0.2317 -0.2923
23290W        W38421   1.151  18.203  12.022 -0.0935  0.0031 -0.0387
23291W        W38422  10.055   7.387   0.900  0.1636  0.0167  0.1979
23292W        W38423  12.333  10.633   1.610  0.3688 -0.2020 -0.1961
23293W        W38424   8.297  18.751   1.828 -0.1938 -0.1819 -0.1294
23294W        W38425   9.718  15.844  13.506  0.0864  0.0907  0.1862
23295W        W38426  13.508  16.217   3.511  0.1943  0.1583 -0.0035
23296W        W38427  18.222   1.547   3.671 -0.0411  0.1074  0.0674
23297W        W38428   0.170   9.083   0.093  0.2454 -0.1174  0.2499
23298W        W38429   7.137   2.343   3.897  0.0057  0.0579 -0.0194
23299W        W38430  14.832   1.377   4.598  0.1660 -0.0078 -0.3043
23300W        W38431  14.895   1.940   0.056 -0.2296  0.1151  0.2371
23301W        W38432  17.383  16.775  14.731  0.0912  0.3134  0.0879
23302W        W38433  18.150   2.365  13.561 -0.0871 -0.0033 -0.2157
23303W        W38434   1.609  10.029   3.842 -0.0761  0.0179 -0.0381
23304W        W38435   9.742  15.324  12.496  0.0515 -0.1668  0.2772
23305W        W38436  13.187   8.485   0.343  0.3938  0.0100  0.3149
23306W        W38437  18.593  10.917  12.210  0.0139 -0.3122  0.0054
23307W        W38438  15.820   3.255  11.570 -0.0272  0.0156  0.1486
23308W        W38439  13.405  10.504   3.414 -0.0458 -0.1685 -0.2298
23309W        W38440  18.362  14.725  11.645 -0.2979  0.1178 -0.2722
23310W        W38441  17.135  14.279   3.190 -0.1512  0.4488  0.1753
23311W        W38442  14.578   6.010   1.793  0.1077 -0.0376 -0.2800
23312W        W38443   6.545   6.158  13.976 -0.1489  0.2849  0.2724
23313W        W38444   3.382  14.153  14.902  0.2642  0.0422 -0.1487
23314W        W38445  12.810   6.824  14.227 -0.3417  0.0210 -0.1672
23315W        W38446   9.162   5.144  10.971 -0.1302  0.0230 -0.1660
23316W        W38447   3.670   2.797  11.449  0.0780  0.1171  0.1128
23317W        W38448   0.198  17.768  15.543  0.0331  0.0123 -0.0818
23318W        W38449  14.880   4.826   4.453  0.0053  0.3425 -0.3266
23319W        W38450   7.699  12.511  15.255  0.0664  0.3868 -0.1436
23320W        W38451   1.739   7.121   0.787 -0.2647  0.0509  0.1144
23321W        W38452   3.834   7.966  13.150 -0.0644 -0.0530  0.2518
23322W        W38453  12.781   8.208  11.386  0.1253  0.2197 -0.0690
23323W        W38454   2.654   3.932  11.963  0.1181  0.1112 -0.1674
23324W        W38455  12.555   5.176  12.247  0.1935 -0.2529  0.2043
23325W        W38456  12.452  17.849  14.062  0.4498 -0.0207  0.1495
23326W        W38457   1.017   7.481   2.660 -0.3323  0.1964  0.1436
23327W        W38458   0.898   3.574   9.573 -0.2274  0.0466  0.2417
23328W        W38459   7.821   8.551   4.376 -0.0498  0.3075 -0.2106
23329W        W38460   9.560  18.445  11.853 -0.2124 -0.1025  0.0587
23330W        W38461   3.222   8.562  10.422  0.4916  0.0337  0.1614
23331W        W38462   8.673   3.588  13.811 -0.1306 -0.2088 -0.3458
23332W        W38463  17.994   6.269  10.201  0.0043 -0.1477  0.0966
23333W        W38464   8.255   0.491  11.742  0.1867 -0.3932  0.0253
23334W        W38465  17.205   3.963  12.939  0.0644  0.2995  0.1783
23335W        W38466   9.641  13.320  11.403 -0.0216 -0.0772 -0.0684
23336W        W38467  13.549  13.597  14.806  0.0949  0.2396  0.0623
23337W        W38468  12.010   1.949  12.609  0.2316 -0.3247  0.0873
23338W        W38469  12.123   5.839   0.850 -0.0021 -0.1790 -0.1572
23339W        W38470   1.622   3.885  12.446 -0.0034  0.3961  0.3394
23340W        W38471   6.714   9.539  14.278  0.1190  0.2597  0.1930
23341W        W38472   6.779  14.598  12.627  0.0918  0.0558  0.2416
23342W        W38473  11.541  14.900  11.761 -0.0511 -0.0338 -0.0451
23343W        W38474   8.952  14.207  13.255  0.1923 -0.0788  0.2020
23344W        W38475  17.068  11.881   0.471 -0.1355  0.1842 -0.0861
23345W        W38476  11.643   6.225  10.636 -0.0976  0.0625 -0.2672
23346W        W38477  18.308  17.715   4.742 -0.0960  0.0409  0.0584
23347W        W38478   5.656   5.009  15.034  0.2565  0.0229 -0.0243
23348W        W38479  11.179   4.258   4.454  0.4663 -0.0754 -0.2043
23349W        W38480  17.390  11.504   1.247 -0.0638  0.0247  0.2953
23350W        W38481  11.238  12.395  11.747 -0.2251  0.0315 -0.2553
23351W        W38482  15.969  13.813  12.303  0.1154 -0.1577 -0.2886
23352W        W38483  14.200   8.493  11.965 -0.1511  0.2702 -0.2142
23353W        W38484   4.474   9.328   9.617  0.2614 -0.2363 -0.0327
23354W        W38485   7.761   2.796   4.446 -0.0075 -0.1080  0.2063
23355W        W38486  14.568  18.185   2.365 -0.0649  0.0420  0.0764
23356W        W38487   1.166  15.370  15.536 -0.0367 -0.0195 -0.0538
23357W        W38488  13.409  11.161  13.106 -0.0441 -0.2844  0.3265
23358W        W38489  15.691   6.967  12.290  0.2165 -0.0314  0.4215
23359W        W38490  12.505  11.951  13.895  0.1876 -0.0360 -0.2649
23360W        W38491   2.402   9.234  12.046 -0.1752  0.1593 -0.0116
23361W        W38492  10.534   2.080  14.723  0.0231  0.1694 -0.1076
23362W        W38493   9.621  10.276   2.479  0.0123 -0.1080 -0.0555
23363W        W38494  14.567  14.956   4.225  0.1439  0.0034  0.2067
23364W        W38495  10.806  11.888  11.486 -0.0631  0.1079 -0.0438
23365W        W38496  13.481  10.103  14.670  0.1813 -0.1542  0.0409
23366W        W38497   7.816   4.971  10.856 -0.1616  0.0184  0.1766
23367W        W38498  10.855   1.222   3.123 -0.1242  0.2168  0.0491
23368W        W38499  13.316   9.405   3.177  0.1493  0.0438  0.3927
23369W        W38500  11.930  15.685   0.782  0.0834  0.1947 -0.0418
23370W        W38501   9.589  14.753  13.445  0.0084  0.2010  0.1899
23371W        W38502  10.795   6.453   2.494  0.3701  0.0497 -0.3582
23372W        W38503   3.089   6.235   5.086 -0.1642  0.2823  0.0268
23373W        W38504  16.503  17.264  13.147  0.2827 -0.3872  0.1060
23374W        W38505  12.778  10.896   4.996  0.0808 -0.1231 -0.0869
23375W        W38506  17.023   0.599   2.645 -0.3707  0.0921 -0.2996
23376W        W38507  15.851   2.054   3.845  0.0632 -0.0961  0.0013
23377W        W38508   2.313   8.879  10.879  0.1672 -0.0257 -0.0778
23378W        W38509  15.634  12.190   1.036 -0.1346  0.0451  0.0946
23379W        W38510  12.031  18.433   1.319 -0.2841  0.0534 -0.1894
23380W        W38511  18.295  11.062   5.374  0.1515  0.1389 -0.2664
23381W        W38512  13.799   3.366   1.296 -0.0904  0.2193 -0.0341
23382W        W38513   4.486   8.791  10.484 -0.0348  0.0261  0.1103
23383W        W38514   8.763   2.341   0.441 -0.0564  0.3839  0.4022
23384W        W38515   1.837  15.572  13.715 -0.2526  0.1173  0.3132
23385W        W38516  18.263  17.688  13.874 -0.2609  0.2069 -0.0271
23386W        W38517   3.972   5.721   2.921  0.0388  0.1668 -0.2195
23387W        W38518  18.321  13.925  13.902 -0.0442  0.2888  0.2394
23388W        W38519   9.769  16.644  12.267  0.0087 -0.0162 -0.0495
23389W        W38520  11.972   0.834  13.946  0.0658 -0.2310  0.0944
23390W        W38521   8.991  16.846   2.340 -0.0512  0.5141  0.0509
23391W        W38522  18.012  15.724   5.942 -0.0382 -0.0398 -0.1184
23392W        W38523   2.186  10.537   4.031 -0.0695  0.1233 -0.0696
23393W        W38524   0.296  12.823   0.259 -0.0478 -0.1009 -0.0631
23394W        W38525   9.043   1.250   5.746  0.0332  0.0240  0.4348
23395W        W38526  16.574   3.868   2.865 -0.2082 -0.1436  0.2769
23396W        W38527  12.181   1.630  10.119  0.0709  0.1147  0.0706
23397W        W38528   2.249  17.196  14.226  0.0584 -0.2632  0.4979
23398W        W38529  17.738   1.722   4.026 -0.1104 -0.1794  0.0205
23399W        W38530  18.495  18.335   3.456  0.4434  0.0087 -0.0185
23400W        W38531  10.821  18.381  13.974  0.2501  0.0346 -0.1069
23401W        W38532   4.572  15.607   0.434  0.2265 -0.0365 -0.1589
23402W        W38533   9.539  10.624   4.245  0.1283  0.0657 -0.1976
23403W        W38534   7.165   2.035   3.179  0.1686 -0.0614  0.2788
23404W        W38535  12.787   4.589   3.183 -0.2990  0.0281  0.3432
23405W        W38536  14.929   2.348   0.881 -0.2519 -0.3371 -0.0026
23406W        W38537   7.651  16.767  12.298  0.2373  0.1045  0.0430
23407W        W38538   7.255   7.876   0.672  0.2720 -0.1308 -0.2829
23408W        W38539  18.264  18.066  12.070  0.2305 -0.2878 -0.0110
23409W        W38540  17.127   0.805   3.296  0.0002  0.1973 -0.2648
23410W        W38541  10.665   5.182  13.996 -0.0027  0.0562  0.0906
23411W        W38542  14.338   4.870  12.768 -0.0707  0.2837 -0.1108
23412W        W38543   5.678  18.335   1.942  0.1041  0.1595  0.2951
23413W        W38544  10.176   3.333  13.633  0.1384  0.2978  0.0399
23414W        W38545   0.788  17.263  14.537 -0.1230 -0.4328 -0.0982
23415W        W38546  11.291   3.147  13.477 -0.1838 -0.0184  0.0087
23416W        W38547  11.333  17.794   1.103  0.3813 -0.0735 -0.1833
23417W        W38548   1.236   6.230  15.262 -0.2182  0.2682 -0.1542
23418W        W38549   3.076   7.645   3.836  0.2287 -0.4784 -0.2497
23419W        W38550  10.328   3.074  12.065 -0.2926  0.0694 -0.4083
23420W        W38551   5.419   0.581  12.601  0.3182 -0.1658  0.0640
23421W        W38552  12.120  16.219   4.645 -0.4460 -0.1524  0.1512
23422W        W38553   6.335   6.886  13.170 -0.0970  0.0689 -0.0138
23423W        W38554   5.345  16.509  12.146  0.0494 -0.0334 -0.0802
23424W        W38555   1.068  17.153  12.792 -0.0244 -0.2041 -0.1482
23425W        W38556   2.213   2.411  12.471 -0.1739  0.0164 -0.1204
23426W        W38557   9.404   5.819   5.529 -0.2632  0.2096  0.0168
23427W        W38558  11.221   1.548   1.592 -0.0161  0.1703  0.1534
23428W        W38559   7.846   7.798   0.086  0.0802 -0.0201  0.0788
23429W        W38560  13.053   4.390  10.788 -0.0189 -0.0918 -0.0490
23430W        W38561  10.656  10.967  11.145 -0.0486 -0.1430 -0.1645
23431W        W38562   3.085  12.423   3.412  0.1254 -0.0398 -0.0367
23432W        W38563   7.032  10.041  13.289 -0.0646 -0.1363 -0.1776
23433W        W38564   7.482  17.054  15.407 -0.0867  0.1511 -0.0627
23434W        W38565  18.429  14.476   1.590 -0.2130 -0.0913 -0.2738
23435W        W38566   2.337  18.391  11.824 -0.0647  0.0413 -0.0314
23436W        W38567  16.159   0.778  12.065 -0.0969 -0.2256  0.0321
23437W        W38568  17.399   9.758   4.995  0.0716  0.0650  0.0883
23438W        W38569  18.065   6.156   4.311 -0.0472  0.1287 -0.1303
23439W        W38570  11.855  17.560  14.073 -0.3565 -0.0339 -0.1183
23440W        W38571  14.033   9.492   2.534  0.3631  0.0116  0.2660
23441W        W38572   6.808   0.410   2.249 -0.2911  0.2901  0.1395
23442W        W38573   7.764  14.926  12.958 -0.0570  0.2728  0.1135
23443W        W38574  18.687  11.702   1.483 -0.0991 -0.0667  0.0688
23444W        W38575  11.475   6.836   2.630 -0.1115  0.0250 -0.2057
23445W        W38576  11.318  12.890   2.173 -0.2014 -0.3303  0.2157
23446W        W38577   2.947   0.016  14.987  0.0716  0.1412  0.1606
23447W        W38578  11.341   9.375   2.801 -0.2460  0.2436  0.0561
23448W        W38579   3.315   3.055   1.121 -0.0959  0.0678 -0.0860
23449W        W38580   3.980   5.990  11.317 -0.3826 -0.0743  0.3013
23450W        W38581   4.231   3.873   2.571  0.0025 -0.3686 -0.1966
23451W        W38582  15.059   6.417  11.521  0.2032  0.1648  0.1243
23452W        W38583   0.274  15.393   1.160 -0.0278  0.1395 -0.3748
23453W        W38584   5.589   4.004   0.889 -0.1234  0.1837  0.1032
23454W        W38585  12.700  11.638   0.336  0.1629 -0.0872  0.0557
23455W        W38586   3.907   9.591   0.484  0.3578 -0.3213  0.5307
23456W        W38587   4.444   1.516  14.296 -0.1765 -0.2628  0.1552
23457W        W38588   7.306   6.107  13.315 -0.1958  0.1767  0.0073
23458W        W38589  13.107   7.758  13.347  0.1570 -0.0007  0.1794
23459W        W38590  15.814   7.143   4.012 -0.0335  0.2568  0.0330
23460W        W38591   2.646   2.842   4.786  0.1498 -0.1662  0.0426
23461W        W38592   7.601  16.614  11.607 -0.1349 -0.0180 -0.1771
23462W        W38593  13.812   8.385   0.967  0.1273  0.1242 -0.1795
23463W        W38594   2.336  13.402   0.101 -0.3142  0.0774  0.1119
23464W        W38595   5.511   6.692   4.488  0.4095 -0.0600 -0.1459
23465W        W38596  15.612   4.471   3.989  0.2814 -0.1694 -0.1879
23466W        W38597   0.536  13.476   1.344 -0.2500  0.1373  0.1427
23467W        W38598   7.026  11.637  13.987 -0.1322  0.0611  0.0283
23468W        W38599  14.676   5.615   4.132  0.0714 -0.0428  0.0190
23469W        W38600  10.835   8.642   2.330  0.1420  0.0844 -0.3498
23470W        W38601  14.041   6.987   5.605 -0.0686 -0.2911  0.2250
23471W        W38602   4.567   9.571   1.194 -0.2227  0.1636  0.0464
23472W        W38603   9.930   7.193   5.733 -0.0727  0.1125  0.2127
23473W        W38604   5.241   4.438   2.120 -0.0184 -0.0962 -0.0789
23474W        W38605   8.839  17.342  11.788 -0.1602  0.2341  0.1690
23475W        W38606   4.948   7.436   3.329 -0.0944  0.1381  0.0070
23476W        W38607  15.678  18.317   0.056  0.0091  0.2735  0.1473
23477W        W38608  15.199   3.141   2.063 -0.0892 -0.0452  0.0520
23478W        W38609   7.143   1.862  14.128 -0.0302 -0.4094 -0.2031
23479W        W38610   4.287   6.606   5.039 -0.1398 -0.1167  0.1237
23480W        W38611   0.133  16.113  11.842  0.0819  0.2466 -0.0561
23481W        W38612  11.161  18.660   4.719 -0.1485  0.0808 -0.3111
23482W        W38613  13.404   5.650   4.451  0.1556 -0.2807  0.2755
23483W        W38614  10.043   1.965  14.693  0.0035  0.0912 -0.4577
23484W        W38615   7.797   6.761   2.655  0.0643 -0.3340 -0.1240
23485W        W38616  17.431   2.410   2.624  0.0342  0.0067  0.2170
23486W        W38617   1.781  11.980   4.278  0.0817  0.2210 -0.0422
23487W        W38618   6.491   4.858   0.476 -0.1345  0.0122  0.1773
23488W        W38619   6.176   2.561   5.443 -0.2544 -0.0346  0.0621
23489W        W38620   7.821   2.709  15.561  0.3195  0.4770 -0.2684
23490W        W38621   2.428  15.327   4.151 -0.1348 -0.1976  0.0016
23491W        W38622   8.430  13.351  15.211 -0.3841 -0.1562  0.0880
23492W        W38623  14.730  17.824  13.526  0.1695 -0.0617 -0.1721
23493W        W38624  15.697  17.474   1.674 -0.3523  0.1284 -0.0241
23494W        W38625  17.244  15.094   5.139 -0.0967 -0.0443 -0.0823
23495W        W38626   5.043  11.921   4.979  0.2710  0.3750  0.0629
23496W        W38627   9.770   4.266  13.252  0.0183  0.1112 -0.0192
23497W        W38628   8.736  16.596  11.431 -0.1292  0.0175  0.0604
23498W        W38629   5.425   0.419  13.031  0.0008 -0.0463 -0.2368
23499W        W38630  10.699   4.694   4.228 -0.2174  0.2991  0.2136
23500W        W38631  11.309  15.088   5.295  0.1111  0.0526  0.1487
23501W        W38632  11.444   6.472  14.991 -0.3419  0.1949  0.4332
23502W        W38633   3.483   8.337   4.768 -0.1879  0.2380 -0.1039
23503W        W38634   1.468   2.805  12.026 -0.1733 -0.2189 -0.0997
23504W        W38635   3.395   7.035  11.522  0.1863 -0.1944  0.0574
23505W        W38636   8.076  10.292  14.246  0.0622 -0.1402  0.0873
23506W        W38637  18.552   6.053  14.916 -0.1999 -0.0022  0.3811
23507W        W38638  18.747   5.662   4.731  0.2040 -0.1368 -0.1201
23508W        W38639   6.281  17.526  12.786  0.0900  0.0140 -0.2081
23509W        W38640  14.600   8.134   4.672 -0.0276 -0.1073 -0.0816
23510W        W38641   5.747   2.468   3.313 -0.1949  0.0340  0.2518
23511W        W38642  17.285   0.993   1.712 -0.1019  0.0376 -0.2068
23512W        W38643  17.025  12.108  12.022 -0.1808  0.2255  0.1979
23513W        W38644   3.802   0.029  10.694 -0.0704  0.0282 -0.2438
23514W        W38645  15.627  17.869  11.868 -0.0624 -0.0359  0.0863
23515W        W38646  11.178  16.975  12.001 -0.3111 -0.3762  0.0631
23516W        W38647  10.148  16.765   1.342  0.0860 -0.0872  0.2224
23517W        W38648   8.724  12.840   0.963 -0.1519  0.1059  0.0098
23518W        W38649   3.791  14.656  11.146  0.4272  0.1665 -0.1457
23519W        W38650   3.014  14.349   3.139 -0.4117 -0.1725  0.3022
23520W        W38651   8.667   8.440  15.340  0.2702 -0.1520 -0.2240
23521W        W38652  13.410   1.132  15.002  0.0048 -0.3896 -0.2439
23522W        W38653   2.262   4.232  13.738 -0.0427 -0.0979 -0.4208
23523W        W38654   9.228  18.144   2.646  0.2244 -0.4352  0.0331
23524W        W38655   7.868   6.646   0.565  0.0105 -0.2778  0.1997
23525W        W38656  11.148   4.428  12.458 -0.0087  0.1938 -0.0256
23526W        W38657   9.357   0.213   4.655  0.1864  0.0546  0.3342
23527W        W38658  16.999  16.378  10.358  0.2940  0.1160  0.0615
23528W        W38659  14.389   7.357   5.553 -0.0578 -0.0229  0.1058
23529W        W38660   1.227  14.555   5.037 -0.1311 -0.0604 -0.1773
23530W        W38661  14.294   2.850   4.194  0.1091 -0.3320 -0.3369
23531W        W38662  17.581   3.657  15.419  0.0186 -0.0981 -0.4295
23532W        W38663   8.899   4.163  11.774  0.0297 -0.1293 -0.0608
23533W        W38664  14.584   9.720   0.051 -0.1107 -0.2858  0.2599
23534W        W38665   2.673  17.837   5.518  0.1978  0.0985  0.4083
23535W        W38666  11.908  10.830   5.368  0.0955 -0.1331  0.0940
23536W        W38667   4.757  16.957  14.311  0.0024  0.1376 -0.1448
23537W        W38668   1.783  12.569   4.436  0.1150 -0.1416  0.0502
23538W        W38669   1.260  13.560  12.247  0.1239 -0.3529  0.1794
23539W        W38670  14.386  18.137  12.393 -0.0612 -0.2139  0.3496
23540W        W38671  14.761  13.719  15.344  0.3034 -0.2520 -0.2410
23541W        W38672   8.678   3.087  10.031  0.2708 -0.2576  0.0542
23542W        W38673   5.158   7.345   1.383  0.0296 -0.0424 -0.2975
23543W        W38674  14.280   0.059   5.217  0.1820 -0.0545 -0.1976
23544W        W38675   3.077   8.887   9.770  0.1440 -0.1574  0.1566
23545W        W38676   1.327   2.048   5.197 -0.0795 -0.1375  0.0470
23546W        W38677   7.563   0.404   2.674  0.1387 -0.3750  0.0472
23547W        W38678   3.647   7.802   1.574  0.1255 -0.3327 -0.0803
23548W        W38679  10.998  16.988  13.349 -0.1995  0.0592 -0.0534
23549W        W38680   4.730   1.605   4.301 -0.1445 -0.2239 -0.0206
23550W        W38681   0.433   1.624   2.682 -0.1133  0.2433 -0.0290
23551W        W38682  16.783   3.589   1.107  0.1832  0.2922 -0.0118
23552W        W38683   7.680  10.558   4.623 -0.1693  0.0747  0.3270
23553W        W38684  10.365  17.156   5.121 -0.2029 -0.0587 -0.0283
23554W        W38685  11.900  17.560   1.538 -0.1205 -0.1855  0.1860
23555W        W38686   2.369   8.065   5.363 -0.5039 -0.0139  0.0456
23556W        W38687  11.860  17.054   1.554 -0.0025 -0.0951  0.0198
23557W        W38688  16.344   1.221  11.388 -0.1087  0.0691 -0.2490
23558W        W38689  16.850  15.895  11.231 -0.0278 -0.1076  0.0614
23559W        W38690  14.621   9.065   3.116  0.0432 -0.0920 -0.0836
23560W        W38691   7.315   2.159  14.919  0.0293  0.1940 -0.0154
23561W        W38692  11.063  14.354   2.076  0.0809  0.0638 -0.1662
23562W        W38693  13.289  13.378  14.413  0.1581  0.0005  0.2374
23563W        W38694  10.161   2.359  15.020  0.0378 -0.0953  0.0457
23564W        W38695   5.394  13.651  12.322  0.0383 -0.1642  0.0234
23565W        W38696  16.479   9.062   4.932 -0.2283 -0.1221  0.0309
23566W        W38697  13.040   7.258   2.725  0.0811  0.3163  0.1881
23567W        W38698   9.552   3.832   3.964  0.0545 -0.1015  0.0161
23568W        W38699   2.861   8.757  15.203 -0.3071  0.0129 -0.0320
23569W        W38700  18.663   0.209   4.896  0.0360 -0.0921 -0.1493
23570W        W38701  17.653   4.752  10.152 -0.1425 -0.2131  0.1163
23571W        W38702   8.732  17.439   3.062 -0.1934 -0.0166 -0.1627
23572W        W38703   8.955  10.220   2.591  0.0889 -0.2320  0.0966
23573W        W38704  14.791  18.416   0.752 -0.3097  0.2381 -0.0707
23574W        W38705   9.066   9.824   4.593 -0.1613 -0.1437 -0.0071
23575W        W38706   3.652   3.024   1.672 -0.1678  0.0846 -0.0984
23576W        W38707   4.516  18.128   0.858 -0.0088 -0.4238 -0.0558
23577W        W38708  17.073  13.477   5.447  0.1825  0.0692  0.2336
23578W        W38709  10.425   3.660  12.221  0.1089 -0.3177 -0.2815
23579W        W38710  17.273   4.591   2.038 -0.0898  0.1360 -0.0275
23580W        W38711   9.344   8.362   4.046  0.2477  0.3280 -0.2226
23581W        W38712  11.923  11.603  13.443 -0.4003  0.4502  0.1826
23582W        W38713  15.725  12.481   2.137 -0.0106 -0.2570  0.4130
23583W        W38714   5.640  18.328  14.782  0.1661 -0.2912 -0.0702
23584W        W38715   6.091   4.554   4.608 -0.0828  0.1177 -0.0235
23585W        W38716   9.923   9.927   4.503 -0.1183 -0.0135 -0.2330
23586W        W38717   5.415  13.901  13.162  0.1352  0.5946  0.0342
23587W        W38718   0.504   2.298  13.845 -0.1551  0.2102 -0.3582
23588W        W38719   3.068  15.228  13.919  0.0530  0.1829  0.1942
23589W        W38720   2.769   9.531   5.624  0.0234 -0.0987 -0.4238
23590W        W38721  15.469   4.611   2.039 -0.0291  0.2897  0.2559
23591W        W38722   8.122   0.124   0.063 -0.0233  0.1040 -0.4883
23592W        W38723   8.669   3.432  15.042 -0.0386  0.0215  0.0960
23593W        W38724   3.936   1.449  15.624 -0.0509 -0.0622 -0.0824
23594W        W38725   6.687   7.420   2.722 -0.1040  0.1269 -0.1581
23595W        W38726   3.231  16.404   1.137 -0.0749  0.2651  0.0223
23596W        W38727  10.039   2.414   1.488  0.1957  0.0418  0.4231
23597W        W38728   5.466   5.320   4.372 -0.1795 -0.0595  0.0455
23598W        W38729   2.550  15.433  13.691 -0.1005  0.0873 -0.1223
23599W        W38730   9.870   5.041   3.896 -0.1893 -0.0931 -0.3390
23600W        W38731  11.160  15.832  14.474 -0.3342  0.2016  0.0081
23601W        W38732   8.251   7.100  12.919  0.1087 -0.0381  0.1817
23602W        W38733  17.870  17.365  15.397 -0.3463 -0.1600 -0.1006
23603W        W38734   4.455   3.536   5.366 -0.1999 -0.0227  0.0524
23604W        W38735   0.698  16.386   1.894  0.1680  0.0746 -0.0411
23605W        W38736  14.219   6.915  10.434 -0.0736  0.0992 -0.0664
23606W        W38737   3.431  12.792   5.663  0.0678 -0.1852  0.1011
23607W        W38738  18.476   3.111   0.243 -0.0808  0.3249 -0.0417
23608W        W38739  13.256  16.067  15.458  0.1090  0.0768 -0.0334
23609W        W38740  12.820   8.152  13.431  0.0638 -0.2412  0.3547
23610W        W38741  16.889  16.274   1.459 -0.4460 -0.3032  0.1424
23611W        W38742  15.048   2.071  14.691  0.2965  0.2028  0.0759
23612W        W38743   2.173   4.771   1.291  0.1681 -0.0102  0.1995
23613W        W38744   5.128  13.658   1.695  0.3829 -0.1735  0.0770
23614W        W38745   5.957  18.106   2.300  0.1995  0.2264 -0.0539
23615W        W38746   6.121   7.919   3.809  0.0988 -0.1928 -0.0508
23616W        W38747   5.500   9.083   0.112 -0.2651 -0.0678  0.1315
23617W        W38748   6.054   8.184  11.228 -0.0589 -0.1948 -0.3402
23618W        W38749   5.505  11.027   0.330  0.0921 -0.1857 -0.1813
23619W        W38750   5.277   8.328  12.942  0.2628 -0.4439  0.2698
23620W        W38751  17.330   8.245   2.934  0.1534  0.0396  0.3685
23621W        W38752   1.438   4.136   3.536 -0.1224  0.2792  0.1314
23622W        W38753   8.146  11.891   0.948  0.0277 -0.1267 -0.0471
23623W        W38754  17.577   6.407  10.553 -0.0363  0.1756  0.2225
23624W        W38755  10.768   6.978   3.388 -0.1626  0.2165 -0.1646
23625W        W38756   8.925  11.508   3.513  0.0017 -0.3494  0.0066
23626W        W38757   6.038  17.395   3.021 -0.1737  0.0216  0.3784
23627W        W38758   0.559  10.554   4.863 -0.0944  0.0400 -0.1462
23628W        W38759  10.469  13.725   2.595 -0.1249  0.2293 -0.0653
23629W        W38760   0.560   5.374  15.760  0.0001  0.3528  0.0169
23630W        W38761   6.017  17.075   4.369 -0.1693  0.0838  0.1348
23631W        W38762  11.787   8.979   5.249  0.1922 -0.2868  0.3672
23632W        W38763   9.418  13.564  10.523  0.1260  0.1045 -0.0747
23633W        W38764   9.989   9.171  15.546 -0.0897 -0.4534  0.2024
23634W        W38765  13.478   3.274  13.028 -0.0074 -0.0850 -0.0838
23635W        W38766  13.778  17.609  14.192 -0.0306 -0.3982  0.1805
23636W        W38767   7.647   4.022   3.104 -0.2258 -0.2070  0.2561
23637W        W38768  15.410  17.039   5.637  0.3957  0.0286  0.0082
23638W        W38769   9.426  11.070  15.681  0.0507 -0.0976  0.4378
23639W        W38770  18.629   8.782  12.192 -0.2312  0.0189  0.0615
23640W        W38771  18.627  17.996   5.006 -0.0730  0.0183 -0.2477
23641W        W38772  15.927   2.572   2.801 -0.3397 -0.0402  0.0080
23642W        W38773  18.559  13.317   2.700 -0.1007  0.1457 -0.2782
23643W        W38774  10.933  14.786   5.125  0.0166 -0.1886 -0.1577
23644W        W38775   9.457   2.510   2.454 -0.1056 -0.0074 -0.0246
23645W        W38776   9.170  12.361  11.190  0.2607 -0.0895  0.2137
23646W        W38777   7.037  17.337   2.636  0.2498  0.3224  0.1833
23647W        W38778  14.631  14.164   3.050  0.2150  0.0990  0.0930
23648W        W38779   1.039  14.243   5.863 -0.3143 -0.0356 -0.0055
23649W        W38780  16.803   1.608   2.200 -0.0746  0.1206  0.0061
23650W        W38781   2.325   2.248   2.085 -0.0692  0.0332 -0.3248
23651W        W38782  13.085   8.933  11.879  0.2101  0.0131  0.3333
23652W        W38783   6.764  14.152  14.695 -0.0673  0.1255 -0.1704
23653W        W38784   1.184  12.310  10.982 -0.0365 -0.2716 -0.0104
23654W        W38785   5.860   6.346   0.158 -0.1328  0.1510 -0.0570
23655W        W38786  10.623   8.506   1.158  0.3533 -0.2776  0.4261
23656W        W38787  15.866   5.971   1.763  0.0321 -0.3379 -0.1683
23657W        W38788   4.662  15.242   3.525 -0.0877 -0.1391  0.2577
23658W        W38789  18.368  11.063   4.488 -0.0702 -0.0537 -0.3219
23659W        W38790   0.674   8.977  15.762  0.0894 -0.2404  0.2626
23660W        W38791   9.919   6.994  12.844  0.0209 -0.3928 -0.0268
23661W        W38792  11.358  17.483   1.477  0.0527  0.0871  0.1299
23662W        W38793   9.888   7.085  14.376  0.0567  0.2535  0.3296
23663W        W38794   2.708  16.761   0.819 -0.0891 -0.4066 -0.2877
23664W        W38795   2.087   3.839  10.010  0.3495 -0.1039 -0.0385
23665W        W38796  11.602  12.372  11.419 -0.1545  0.0999  0.2747
23666W        W38797   8.852   1.581   3.542 -0.2353  0.0031 -0.0710
23667W        W38798   0.832   4.515   4.714 -0.2424 -0.0589  0.1465
23668W        W38799   6.475  11.463   2.419 -0.0607  0.1014 -0.0261
23669W        W38800  17.509   3.594  13.209  0.2780 -0.2253  0.0764
23670W        W38801  14.786   5.231  11.880 -0.3564  0.0554 -0.1011
23671W        W38802   6.534   5.871  13.546 -0.0053 -0.2693 -0.1124
23672W        W38803  11.952   9.978  12.069  0.4425  0.1451 -0.1602
23673W        W38804  11.338   7.431  14.757  0.1435 -0.1465  0.3721
23674W        W38805   4.024   9.603  13.595  0.0242  0.1881 -0.4334
23675W        W38806  18.005   7.793   4.316  0.0794  0.1639 -0.0541
23676W        W38807   5.725   1.461   2.538 -0.0007  0.3125 -0.4938
23677W        W38808  11.260  10.179  11.385 -0.4235  0.0872 -0.3740
23678W        W38809   4.378  14.301   4.470 -0.1264  0.0695  0.1687
23679W        W38810  17.893   5.886  14.886 -0.0496  0.1653  0.1447
23680W        W38811   5.115   0.441   3.609 -0.0254 -0.0214  0.2924
23681W        W38812  10.180  10.570   2.569 -0.2613  0.0066 -0.1977
23682W        W38813   9.361   8.505  13.861 -0.1534 -0.0680 -0.1186
23683W        W38814   6.831  18.720  11.142 -0.0661 -0.4145 -0.1117
23684W        W38815   9.016   2.732  11.970 -0.0850  0.1977 -0.0305
23685W        W38816  15.956   4.501  13.568 -0.2541  0.1475  0.0538
23686W        W38817   4.881  17.375  11.045  0.0592 -0.1026  0.1974
23687W        W38818   5.812   8.740  15.594 -0.2295  0.0085 -0.0442
23688W        W38819  17.562   4.080  13.358 -0.1783  0.1793 -0.0279
23689W        W38820   3.136   2.284   1.675  0.2353  0.1051 -0.2388
23690W        W38821  17.149  16.582   2.992 -0.1143 -0.3701  0.1783
23691W        W38822  12.662  14.851   2.862 -0.1374  0.0811  0.0294
23692W        W38823   4.249  11.961  13.872  0.0399 -0.0488  0.2722
23693W        W38824   3.502   9.436   3.652  0.2366  0.1558  0.0207
23694W        W38825   8.992   8.296  12.040 -0.3372  0.0069  0.1686
23695W        W38826   9.312  17.888  14.918 -0.2595  0.1053  0.3629
23696W        W38827  14.522   9.667  10.133 -0.1411 -0.2480 -0.1483
23697W        W38828   5.859   4.593  15.275  0.0416  0.0700 -0.0319
23698W        W38829  10.118  10.534  15.365  0.2695 -0.0809 -0.4965
23699W        W38830  10.851  13.143   4.456  0.0031 -0.2322 -0.2681
23700W        W38831   5.249  18.344  14.354  0.2328  0.1776 -0.0439
23701W        W38832  14.115   4.464   0.539  0.0008 -0.2404 -0.1674
23702W        W38833  13.314  10.405  12.469 -0.0531  0.1122  0.2300
23703W        W38834   3.594   8.703  14.603 -0.0512 -0.2495  0.2367
23704W        W38835   7.066   0.647   1.472 -0.0303 -0.0253 -0.3725
23705W        W38836   0.461  15.291   0.345 -0.0847  0.1511  0.0575
23706W        W38837   3.922  16.830  12.445  0.1223  0.1774  0.1154
23707W        W38838   9.046   8.613   2.847 -0.2445  0.0845  0.0390
23708W        W38839  13.256   4.090  15.678 -0.1570 -0.0409  0.0766
23709W        W38840  17.579   4.833  15.291 -0.1292  0.3493  0.0637
23710W        W38841   3.286   1.974  12.879  0.1625  0.3077 -0.3965
23711W        W38842   6.855   0.251   5.236  0.3637  0.1876  0.1546
23712W        W38843   5.820  13.816   1.754 -0.2590  0.2525  0.1109
23713W        W38844   2.783   0.099  12.043 -0.2089 -0.1644 -0.2635
23714W        W38845  16.912   4.716  13.461  0.0741 -0.0973  0.2842
23715W        W38846   3.683  15.268   3.056 -0.0234  0.0582 -0.2436
23716W        W38847  16.530  17.221  13.664  0.2298 -0.0299 -0.0606
23717W        W38848  15.358  11.313   5.376  0.0381 -0.1315  0.1185
23718W        W38849  12.202  12.350   5.051  0.0181  0.2458  0.1537
23719W        W38850   9.296   7.297   4.088  0.0097  0.1401  0.0337
23720W        W38851  18.021  14.270  12.531 -0.0909 -0.1015  0.2132
23721W        W38852   1.807  11.133   4.564  0.2662 -0.1716 -0.2067
23722W        W38853   3.688   4.127   2.841  0.2849 -0.1175  0.0171
23723W        W38854   0.894   7.389   1.002 -0.1559 -0.0581  0.1499
23724W        W38855  10.223  16.830   4.736  0.3631  0.0708  0.1864
23725W        W38856   3.511  17.661   2.057 -0.0067 -0.1520 -0.2756
23726W        W38857  17.916   6.517  12.907  0.1414  0.4360 -0.0244
23727W        W38858  12.951  16.396  11.114 -0.4699  0.0486 -0.1753
23728W        W38859  17.116  15.954   1.130 -0.3664  0.0608 -0.2492
23729W        W38860  12.123   1.549  14.361  0.0467  0.2905  0.0261
23730W        W38861   9.571  14.459  10.962 -0.1997  0.1071  0.1950
23731W        W38862   3.731   4.985   0.963 -0.0562  0.2112  0.0766
23732W        W38863  16.579  18.133  14.842 -0.0449 -0.0970 -0.1349
23733W        W38864  10.988   8.434  12.097 -0.0138  0.2189  0.1809
23734W        W38865  17.135  11.360  15.500 -0.4030  0.0246 -0.0867
23735W        W38866  14.913  11.757   3.789  0.0308 -0.2197 -0.0210
23736W        W38867   3.275   0.081   2.030  0.1360 -0.2216 -0.1590
23737W        W38868   3.394  14.581  10.841  0.3947 -0.0953  0.1056
23738W        W38869   9.938   2.400   0.234  0.2000  0.1721 -0.3545
23739W        W38870  13.272   1.202  13.361  0.1432 -0.1026  0.1785
23740W        W38871  17.429   7.249   2.031  0.0354 -0.0593 -0.2486
23741W        W38872   7.908  15.370   2.741 -0.0921 -0.3332 -0.1454
23742W        W38873   8.065   6.747  14.534  0.1555 -0.1518 -0.1160
23743W        W38874  13.827  12.625  12.209  0.1882 -0.1245 -0.0213
23744W        W38875   4.772   8.095  11.570 -0.0049 -0.1259  0.0952
23745W        W38876  10.133   6.745   4.381 -0.2305 -0.0006 -0.0298
23746W        W38877  13.346   2.786   5.264 -0.0448 -0.2220 -0.0056
23747W        W38878   1.574   8.377   4.460 -0.2951 -0.2146  0.2445
23748W        W38879   5.966  17.986  10.836 -0.0830 -0.2322  0.1313
23749W        W38880  16.663   5.287  11.661 -0.1756  0.1548 -0.3067
23750W        W38881   6.347   8.988   1.111  0.3496  0.0108 -0.0390
23751W        W38882  13.216   5.476   4.055  0.2364 -0.0351  0.0903
23752W        W38883  16.634  13.295  10.607  0.0691 -0.0156  0.4278
23753W        W38884  17.175  12.807   1.190  0.1340 -0.1182 -0.0264
23754W        W38885  17.781  12.219   3.784  0.2529  0.0876 -0.4173
23755W        W38886   1.210  11.118   4.508  0.3378 -0.2523 -0.4528
23756W        W38887   0.633   8.197   0.080 -0.2722  0.0596 -0.0430
23757W        W38888   0.770   9.670   1.298 -0.0359 -0.1835  0.0500
23758W        W38889   9.917   4.369   4.608  0.0689  0.1306  0.0189
23759W        W38890  18.478  13.368   3.277  0.0103  0.0644  0.1067
23760W        W38891  15.051  15.366  14.714  0.1640 -0.0880  0.0570
23761W        W38892   5.384  11.288  13.642  0.1120  0.1933  0.0570
23762W        W38893   6.972  15.163   3.245  0.0366 -0.1454 -0.1113
23763W        W38894   9.553  15.137   5.166  0.2679 -0.0793  0.0966
23764W        W38895  13.567  10.881   2.326 -0.1690  0.0774 -0.0197
23765W        W38896  17.196  16.378  13.308  0.3159  0.0661  0.1675
23766W        W38897   6.470   2.063  13.459  0.5043 -0.3099  0.1803
23767W        W38898  11.426  14.074   3.741  0.2128  0.4409 -0.1097
23768W        W38899  11.794   9.632   3.703 -0.0019 -0.0990 -0.0701
23769W        W38900  16.115  14.244   3.955  0.1744 -0.0242 -0.0941
23770W        W38901   3.894  17.441   2.991 -0.0179  0.0507 -0.0161
23771W        W38902   1.199  17.589  12.106  0.2302 -0.0403  0.3233
23772W        W38903   0.117  16.978   0.196  0.0598  0.1547  0.1829
23773W        W38904   4.285  15.086  14.268  0.1264  0.1737 -0.1425
23774W        W38905   2.958  14.682  13.249  0.1882  0.1752  0.0839
23775W        W38906   5.272   9.072  12.900  0.1326 -0.2788 -0.1756
23776W        W38907  17.437   7.053  13.367  0.4242  0.0380  0.1255
23777W        W38908   7.466  13.713  13.621  0.1770 -0.0693  0.2066
23778W        W38909  17.838  11.412   1.439 -0.0092 -0.0275  0.0039
23779W        W38910   0.365   9.611   0.899 -0.1097  0.0424  0.0504
23780W        W38911   5.612   6.195   2.778 -0.3408  0.1465  0.0133
23781W        W38912  11.388  17.252   4.259  0.1917  0.2071  0.0446
23782W        W38913  11.299  16.946   3.109  0.0492  0.0960 -0.2311
23783W        W38914  12.110  11.498   3.337 -0.0931  0.3333 -0.1689
23784W        W38915  14.342  13.714   1.426 -0.0321 -0.0887 -0.1107
23785W        W38916  13.766  18.546   5.178  0.1125  0.1814  0.0073
23786W        W38917   7.759   4.430  15.149 -0.2100  0.0003  0.1454
23787W        W38918  13.150   3.041  13.301  0.2406 -0.0415  0.0083
23788W        W38919   7.086  18.540  11.972 -0.1369 -0.0723  0.0759
23789W        W38920  16.853  17.522   2.064  0.1916 -0.2434 -0.2314
23790W        W38921   1.723  18.667   3.792  0.0164  0.0416 -0.1111
23791W        W38922  14.656  13.334  12.913  0.2018 -0.4121  0.1426
23792W        W38923  15.102   4.737   5.238 -0.0757  0.4273  0.0191
23793W        W38924   2.945   9.731   9.349 -0.0545 -0.3470  0.2146
23794W        W38925   9.974  10.834  10.546  0.2419 -0.0588 -0.3991
23795W        W38926  18.755   7.511  12.478 -0.1715  0.0220 -0.2460
23796W        W38927   4.547   2.897   3.991  0.3176 -0.2305  0.1291
23797W        W38928   2.861  16.613   3.892 -0.0934  0.0656  0.3380
23798W        W38929  18.242   5.198  12.023 -0.0525  0.1043 -0.1112
23799W        W38930   0.956  10.187  15.722  0.3405 -0.0334  0.3082
23800W        W38931  18.195   8.282   0.167  0.2141  0.1944 -0.1214
23801W        W38932  13.529  16.562   2.067  0.0678 -0.0658  0.4028
23802W        W38933   8.854   2.229  10.457  0.2603 -0.1695  0.0464
23803W        W38934   7.709   0.512   0.146  0.2584 -0.1159  0.0878
23804W        W38935  16.410   4.298   2.994  0.0455  0.1397 -0.1498
23805W        W38936   6.524   8.456  15.436 -0.3053  0.1399  0.1466
23806W        W38937   3.902   4.161  12.690  0.0082  0.1595 -0.1565
23807W        W38938   7.480  18.434   2.172  0.2176  0.0579 -0.0959
23808W        W38939  11.929  16.789   5.016 -0.2160 -0.4041 -0.0369
23809W        W38940  13.386  17.143   4.828 -0.2558 -0.1496 -0.1575
23810W        W38941   3.328  11.927   0.679  0.1142  0.2840  0.0834
23811W        W38942   3.328   5.026  10.459  0.1115  0.1417 -0.1881
23812W        W38943   5.523   7.510   3.185 -0.1778  0.1559  0.1068
23813W        W38944  18.380   1.515  11.051  0.1479 -0.1283 -0.0944
23814W        W38945   8.271   7.049   2.651  0.0184  0.1249 -0.0276
23815W        W38946   6.997  16.610   1.443  0.3595 -0.0819  0.1807
23816W        W38947   4.482   4.485  15.172 -0.0863 -0.2197  0.2237
23817W        W38948   4.832  10.633   0.149 -0.2877 -0.4251  0.2239
23818W        W38949  17.592   0.041   3.190  0.2751 -0.2789  0.2331
23819W        W38950   9.697  16.786   1.635 -0.2174 -0.4874 -0.1207
23820W        W38951  11.548   1.953  14.655 -0.0567 -0.1417  0.1124
23821W        W38952  13.604   2.773   1.599 -0.3452 -0.0597  0.5995
23822W        W38953   7.188  13.743   3.771 -0.1306 -0.0921 -0.0564
23823W        W38954   9.347   7.344  13.461 -0.1324 -0.0440 -0.0802
23824W        W38955  15.967   8.418  12.739 -0.4148 -0.0218  0.1108
23825W        W38956  13.774  15.059  15.716  0.0576  0.1033  0.4294
23826W        W38957  12.982   7.013   3.117  0.0719 -0.3124 -0.0755
23827W        W38958  12.057   4.806   0.001  0.4019 -0.2177 -0.0046
23828W        W38959   6.317   5.627  15.672 -0.2385 -0.0948  0.2193
23829W        W38960   7.980   3.534  12.574 -0.1084 -0.3377  0.1747
23830W        W38961  15.980   5.671  15.217  0.2118 -0.3031  0.0882
23831W        W38962  15.292  18.034  15.758 -0.2178  0.3512 -0.1386
23832W        W38963  14.072  14.680   5.020  0.1722 -0.2316  0.0626
23833W        W38964   7.114  17.346  11.721 -0.1124  0.1648 -0.1074
23834W        W38965   7.196   4.824  13.050  0.0350 -0.0352  0.0689
23835W        W38966  10.051  14.454  12.214 -0.2181 -0.1023  0.0597
23836W        W38967   5.354   5.325   2.832 -0.1645  0.1888 -0.0232
23837W        W38968  17.745  15.714   3.692 -0.1035 -0.1585  0.0066
23838W        W38969  14.480  16.535   0.244  0.0654 -0.0506 -0.0825
23839W        W38970   5.328   5.879   1.693  0.1090 -0.2304 -0.1259
23840W        W38971   7.345  16.714   0.356 -0.1609  0.3417  0.0008
23841W        W38972   8.757  15.002  13.269 -0.3182  0.1781 -0.2975
23842W        W38973  13.336   3.406   3.928 -0.1482  0.3727  0.0456
23843W        W38974   7.262  10.265   2.159  0.1697  0.1539  0.2215
23844W        W38975   5.991  11.913  15.073  0.1812 -0.4747 -0.0636
23845W        W38976   9.848  17.400   2.579  0.2664  0.2071  0.0739
23846W        W38977  14.164   3.494  12.444 -0.1387 -0.0183 -0.2893
23847W        W38978  10.599   8.336  12.508 -0.0095  0.2694 -0.3253
23848W        W38979   5.822   4.575   4.092 -0.3212  0.0622  0.0421
23849W        W38980   0.251  15.101  15.134 -0.1638 -0.1279  0.1502
23850W        W38981   6.243  14.699  15.031 -0.0622  0.2608 -0.1767
23851W        W38982   7.799  16.419  13.883 -0.0759 -0.0163 -0.0641
23852W        W38983  15.839  10.887  10.584  0.2216  0.0894 -0.3085
23853W        W38984   9.466  17.558   4.907 -0.3015 -0.0995 -0.0701
23854W        W38985  12.584   0.470  14.107 -0.0815  0.0555 -0.1994
23855W        W38986  12.763   3.274   1.235 -0.5252 -0.0547 -0.0951
23856W        W38987   0.592  15.263  10.882 -0.1788 -0.0105  0.2534
23857W        W38988   9.004   7.724   3.275  0.0785  0.1701  0.2064
23858W        W38989   3.484  16.111  10.357  0.0086  0.0372  0.2052
23859W        W38990   6.049   7.896  12.168  0.1295 -0.0265  0.1720
23860W        W38991  11.874  13.187   4.424 -0.3524 -0.2361 -0.3827
23861W        W38992  15.450  10.618  12.965 -0.0252  0.2368  0.0029
23862W        W38993  12.292   7.070  14.726 -0.4229 -0.0297  0.1714
23863W        W38994   3.792   8.472   1.992  0.0657 -0.1673 -0.1792
23864W        W38995  12.437   8.364  11.954 -0.2670 -0.0837  0.1567
23865W        W38996  15.709  15.091  10.276 -0.1352  0.1625 -0.0782
23866W        W38997   2.807  15.577   2.015  0.0235 -0.3548  0.0636
23867W        W38998  13.252   4.943   3.811  0.2393  0.0463 -0.3080
23868W        W38999   7.374   8.769  15.138 -0.1548  0.2831  0.0481
23869W        W39000   2.563  10.273  10.798  0.1662 -0.1682  0.1205
23870W        W39001   5.307  17.940   2.185  0.0848  0.2808 -0.0362
23871W        W39002   0.991  11.299  13.839  0.0083  0.0075  0.0118
23872W        W39003   4.988  13.608  14.652 -0.1224  0.1257 -0.0139
23873W        W39004   9.292   8.962   1.902  0.2542 -0.3715  0.3124
23874W        W39005   5.730  15.724   1.508  0.2345  0.2266  0.0873
23875W        W39006  14.618   6.465  11.201  0.0096  0.2333  0.0820
23876W        W39007   8.679   8.096   3.479  0.2981 -0.4635 -0.4487
23877W        W39008  16.474  12.669   2.605  0.0500  0.0989 -0.0615
23878W        W39009   5.248   8.055   3.928 -0.0348 -0.0208  0.1965
23879W        W39010   9.103  18.251  12.697 -0.0115 -0.1472  0.0686
23880W        W39011  12.201  16.431  10.231 -0.0925 -0.0200 -0.2340
23881W        W39012   8.132   5.811  15.035  0.0764  0.4083  0.0934
23882W        W39013  13.733   6.554  15.537 -0.3093  0.0103  0.1056
23883W        W39014   8.495   9.115   2.994  0.0149 -0.1857  0.2183
23884W        W39015   2.093   3.033   3.922  0.0060  0.1782 -0.2150
23885W        W39016   1.039  18.027   2.566 -0.0612  0.0723  0.0594
23886W        W39017  17.471  15.994  13.517 -0.3423 -0.2695 -0.1195
23887W        W39018   2.164  15.622   4.461 -0.0128 -0.0558  0.1337
23888W        W39019   0.248   9.446  10.078 -0.1179  0.3078  0.0614
23889W        W39020   5.987  15.683  11.702 -0.0576  0.1287  0.2281
23890W        W39021  10.081   0.136   0.071  0.1400 -0.1022  0.0650
23891W        W39022   1.568  11.512   4.298  0.3984  0.0384 -0.2737
23892W        W39023  15.322   7.657  15.280  0.4152  0.1173 -0.2573
23893W        W39024  15.769  10.894   4.047 -0.1345 -0.0337 -0.1547
23894W        W39025  18.480   8.427   1.734 -0.3899  0.0407  0.0841
23895W        W39026  15.693  11.610   3.315  0.1362 -0.0212 -0.1204
23896W        W39027  17.646   3.646  14.764  0.0392 -0.1964  0.0604
23897W        W39028   8.163  16.376   3.203 -0.1146 -0.0825 -0.0208
23898W        W39029  10.466   8.309   1.894  0.2281 -0.2007 -0.1311
23899W        W39030  18.333  14.719  11.167  0.2856 -0.2808 -0.3170
23900W        W39031  18.624   3.453   1.693  0.2766 -0.0567 -0.1520
23901W        W39032  17.486  10.713  13.150  0.2649  0.0917 -0.2297
23902W        W39033   9.354  17.991   5.039  0.0731 -0.0372 -0.2216
23903W        W39034  11.314   1.339  12.331 -0.0587 -0.0202  0.0692
23904W        W39035   3.124   6.912  11.021 -0.0140 -0.2666 -0.1580
23905W        W39036  12.809   5.639   3.219  0.4252  0.1797  0.2002
23906W        W39037   8.772  13.778  14.043  0.1214  0.1142 -0.2332
23907W        W39038   1.648  17.998   0.865 -0.0207  0.2497 -0.1593
23908W        W39039   7.164  10.741   2.472 -0.0115  0.0372  0.2359
23909W        W39040   6.256   8.991  13.060 -0.2526  0.1376 -0.0554
23910W        W39041  10.077  17.086   1.850  0.1198  0.0015 -0.1255
23911W        W39042   1.312   3.517  12.553 -0.0156 -0.2097 -0.1112
23912W        W39043   9.803   3.612   0.854 -0.3535  0.6158 -0.1130
23913W        W39044   5.615  11.182  15.656  0.2657 -0.0766  0.0367
23914W        W39045   8.363   7.919   5.512  0.0228 -0.1763  0.2004
23915W        W39046   3.307   4.421   3.749  0.0603 -0.0568 -0.0720
23916W        W39047   1.602  16.970   4.061  0.0055  0.1428 -0.4410
23917W        W39048   8.578   4.635   1.357 -0.0762  0.0120 -0.4739
23918W        W39049  10.951   0.142  11.360 -0.1201 -0.2183 -0.0413
23919W        W39050  12.836  17.134   0.570 -0.2759  0.2119  0.0744
23920W        W39051  17.550  12.055   1.382  0.0240  0.1456 -0.0589
23921W        W39052   6.420   3.535   2.437 -0.0567  0.0481  0.2188
23922W        W39053   5.350   7.960   5.253  0.2322  0.0390  0.2445
23923W        W39054   4.916  14.020  13.183  0.2149 -0.0235  0.1291
23924W        W39055  11.730   0.347   5.368  0.0195  0.0800 -0.0532
23925W        W39056  14.548   8.829   3.918 -0.0345  0.3089 -0.1116
23926W        W39057  10.140  15.182  10.323 -0.0523  0.3862 -0.2297
23927W        W39058   1.059  14.061   2.772  0.1429  0.5843 -0.0264
23928W        W39059   8.898  18.694  15.235  0.1341  0.1563  0.1249
23929W        W39060   2.486   8.326  11.688 -0.0553 -0.1125  0.2729
23930W        W39061  11.913   5.399  14.529  0.1377  0.0440  0.2144
23931W        W39062  15.435  13.767  10.764  0.0635 -0.0575 -0.1637
23932W        W39063  10.427  17.614   0.370 -0.1329  0.0229  0.2559
23933W        W39064  10.811   4.548   2.856  0.2098  0.0914 -0.1611
23934W        W39065  14.650   7.144  12.324 -0.1409  0.1280 -0.0188
23935W        W39066   2.228   6.655  14.514  0.0298 -0.0797  0.2755
23936W        W39067   2.865  17.318   1.645 -0.0258 -0.0014  0.0852
23937W        W39068  15.063   6.274  12.439  0.2102  0.1203  0.1453
23938W        W39069   5.297   4.936   1.816 -0.0434 -0.0425 -0.1454
23939W        W39070  17.413  18.254   2.618 -0.0527  0.0976 -0.0847
23940W        W39071  16.588  16.315   3.945  0.0519 -0.1658 -0.0175
23941W        W39072  15.141   7.913   4.296  0.2503 -0.0344  0.2587
23942W        W39073   6.962   9.370  11.828 -0.0444  0.1890 -0.1774
23943W        W39074  12.550   3.103  10.285 -0.1658  0.1683  0.0039
23944W        W39075   3.038   6.929  12.808 -0.0738  0.0001 -0.1228
23945W        W39076   2.929  18.531  15.425 -0.0438 -0.0006  0.1021
23946W        W39077  12.907  18.555   2.053 -0.0218  0.3169 -0.3240
23947W        W39078   6.206  16.343   0.090 -0.2480  0.3038  0.3424
23948W        W39079   0.872   3.524   0.772  0.4098  0.0891 -0.3049
23949W        W39080  12.476   3.533  10.999 -0.0114 -0.1349 -0.1642
23950W        W39081  16.275  15.110   5.333  0.0783 -0.0713 -0.3704
23951W        W39082   2.094  17.886  11.941 -0.2076 -0.3887 -0.2363
23952W        W39083   6.667   0.929  13.948 -0.1523 -0.1345 -0.2180
23953W        W39084   6.655  12.998   0.092 -0.3616  0.1654  0.0808
23954W        W39085  11.855   8.476   3.832  0.0022 -0.0706 -0.5576
23955W        W39086  17.566   0.961   2.538  0.3069 -0.1751 -0.0161
23956W        W39087  12.299   2.942   0.782 -0.2962  0.1228  0.0282
23957W        W39088  11.503  15.268  15.497 -0.1326  0.1132  0.1762
23958W        W39089  18.668  18.659  14.567  0.0083 -0.3262 -0.0717
23959W        W39090  12.598   1.760   3.385  0.0931 -0.1228  0.2707
23960W        W39091  12.177   1.110  11.987 -0.0067 -0.2189  0.0975
23961W        W39092   9.409  14.196   0.273 -0.0567 -0.0700  0.4385
23962W        W39093  17.964   6.980  11.118  0.3181 -0.0408 -0.5334
23963W        W39094   6.493   9.753   5.287  0.0152 -0.0420  0.3644
23964W        W39095  14.979   2.366  13.704 -0.0125 -0.3297 -0.0414
23965W        W39096   8.200   4.994  11.486 -0.0149 -0.2570  0.1106
23966W        W39097  14.689  15.415   0.124  0.4764 -0.1267  0.1332
23967W        W39098   9.011  13.190   1.681 -0.0356 -0.2730  0.4366
23968W        W39099   7.393   8.115  14.356  0.2129 -0.1078  0.4321
23969W        W39100   2.168   8.543   0.592  0.1013 -0.0762  0.0075
23970W        W39101  11.106   0.825   4.438 -0.1390 -0.2582 -0.0043
23971W        W39102   9.983  10.861  11.501 -0.0372  0.1516  0.2617
23972W        W39103  16.326   1.665   5.518  0.4166 -0.2335 -0.1114
23973W        W39104   8.011   4.872   4.047  0.0560  0.2232  0.0942
23974W        W39105  11.692  11.669   0.228 -0.3650  0.0565 -0.1783
23975W        W39106   2.804  14.933   0.076  0.2706 -0.0148  0.1056
23976W        W39107   5.027  10.943   1.583 -0.1237 -0.0118 -0.2034
23977W        W39108  17.880  13.984   0.958 -0.0770  0.0354 -0.0954
23978W        W39109   8.091   8.948  11.543 -0.2542  0.3410 -0.0554
23979W        W39110   3.562   8.629  13.624 -0.1887 -0.2399  0.2010
23980W        W39111  13.770   8.958  14.863  0.2313  0.1461 -0.0422
23981W        W39112  13.316   5.475  10.875  0.2917  0.1212  0.0517
23982W        W39113  17.349  18.164   4.771  0.3091  0.1674  0.2522
23983W        W39114   3.155   9.548   3.263  0.1839 -0.0215 -0.2346
23984W        W39115  14.765  15.316   3.645 -0.1389  0.0769 -0.1597
23985W        W39116  14.427   9.832  15.350 -0.1363 -0.1232 -0.0555
23986W        W39117  17.588   6.682   0.242  0.2435 -0.3423  0.0318
23987W        W39118   5.970  13.547   2.984 -0.0416 -0.5055 -0.0841
23988W        W39119  12.386   4.632   5.505  0.4611  0.3271  0.3032
23989W        W39120   9.081   5.358  15.552  0.0783  0.0424  0.2942
23990W        W39121  10.466   3.911  10.982 -0.2592 -0.1121 -0.0863
23991W        W39122  16.737  12.108   1.255  0.1475  0.3210  0.0499
23992W        W39123   0.622  16.273   5.429  0.2082 -0.1278  0.1196
23993W        W39124   2.127   5.349  10.802  0.0282  0.1444 -0.1602
23994W        W39125   9.749  14.954  12.088 -0.2609 -0.0577 -0.1265
23995W        W39126  18.658   4.218  13.204  0.1249 -0.0955 -0.1240
23996W        W39127   8.789  18.293  14.955 -0.1398  0.0064 -0.0162
23997W        W39128  16.489  11.689   2.374  0.2761  0.0940  0.2715
23998W        W39129   1.046  15.118   4.912  0.0527 -0.1624  0.0086
23999W        W39130   5.408  11.622   2.729 -0.1720 -0.0601  0.0414
24000W        W39131  17.799   1.193  11.064 -0.0933 -0.2096 -0.1111
24001W        W39132   4.726  16.875  11.310  0.2023 -0.0735  0.1649
24002W        W39133   9.087  14.646  13.532  0.0176  0.1207 -0.1109
24003W        W39134  12.941  10.139  15.363 -0.1431 -0.1177 -0.1723
24004W        W39135  16.498  16.687   0.061  0.1742 -0.1113  0.2951
24005W        W39136  18.750  13.207   0.263  0.3669 -0.3685 -0.2744
24006W        W39137   1.737   1.917   5.025  0.2396  0.4758 -0.1265
24007W        W39138  10.105  11.725   5.338  0.2047 -0.0258 -0.0752
24008W        W39139   6.040  18.327   3.920 -0.0361  0.1083  0.0458
24009W        W39140   6.131   0.404   1.119 -0.2448  0.1061 -0.0515
24010W        W39141  15.619  14.420  11.513  0.0990 -0.3196  0.1846
24011W        W39142  17.793  10.365   3.237 -0.1579 -0.0640  0.0466
24012W        W39143  16.407   6.857   2.543 -0.0883  0.2126  0.2828
24013W        W39144  15.505  13.461   1.393 -0.2904  0.2463  0.2232
24014W        W39145   2.436  11.402   4.485  0.0774 -0.4379  0.1537
24015W        W39146   7.009   5.460   3.938 -0.1311  0.0056 -0.2801
24016W        W39147   7.268  12.187   0.261  0.0799 -0.1042 -0.2113
24017W        W39148  15.294   6.839   0.894  0.0564  0.0680 -0.3876
24018W        W39149   7.302   0.148  12.154  0.0801 -0.0007 -0.2646
24019W        W39150  13.066  11.310  11.820  0.3285  0.1746  0.0613
24020W        W39151   1.977   9.155  11.663  0.2371  0.2892  0.2478
24021W        W39152   3.226  13.879   0.423  0.3492  0.0821  0.0642
24022W        W39153   5.129  18.738   0.688 -0.1456 -0.3457 -0.0378
24023W        W39154   6.016   5.379  11.424 -0.0154  0.0043 -0.2136
24024W        W39155  17.013  13.556   4.470  0.0143 -0.3191 -0.3190
24025W        W39156  10.836  14.002   3.220 -0.0111  0.3212 -0.1484
24026W        W39157  13.257  18.384   3.794 -0.0157  0.1167  0.2407
24027W        W39158   7.548   5.580  14.383 -0.0543 -0.0743  0.2270
24028W        W39159  18.228   4.020   1.097 -0.1013  0.0050 -0.0266
24029W        W39160   2.831   3.128   0.899 -0.2547 -0.0766 -0.4978
24030W        W39161  11.647  16.726  11.305  0.0155  0.3149  0.1363
24031W        W39162   8.411  13.154   0.310 -0.0513  0.1057  0.0234
24032W        W39163  16.530   4.925  13.144  0.0037  0.0925 -0.0619
24033W        W39164   8.670   5.023   1.122  0.1549 -0.2782  0.4227
24034W        W39165  17.766   8.832   2.085  0.0784 -0.1284  0.2731
24035W        W39166   5.532   8.728  11.419  0.3285 -0.0607  0.1717
24036W        W39167   6.853  18.749   1.200 -0.2774  0.0263  0.3288
24037W        W39168  15.624   5.987  14.915 -0.1432 -0.0197 -0.3238
24038W        W39169  14.725   1.169  14.261 -0.2007  0.1686  0.0098
24039W        W39170  11.861   6.660  15.378  0.0016  0.1086  0.1742
24040W        W39171  17.441  17.414  15.562  0.0822 -0.4240 -0.1343
24041W        W39172   8.934   7.226  14.236 -0.1521 -0.3765 -0.2187
24042W        W39173   1.613   3.424  14.881  0.3093 -0.3275 -0.0098
24043W        W39174   6.942   4.231   5.593  0.2164 -0.0054 -0.1944
24044W        W39175   7.270   2.862   0.322  0.0321 -0.1766  0.1988
24045W        W39176   3.503  16.283   2.138 -0.1465 -0.1785  0.2819
24046W        W39177   0.871   0.903  11.340  0.4134 -0.3904  0.3307
24047W        W39178   8.937  10.112  13.265 -0.2316 -0.4057 -0.3886
24048W        W39179  13.841  11.971   1.626  0.2715  0.1355 -0.0532
24049W        W39180   0.607  18.388   3.660  0.4381 -0.0469 -0.1068
24050W        W39181   5.535  14.954   4.668 -0.2504  0.0288 -0.0633
24051W        W39182  12.047  10.255   2.053  0.1402  0.2246 -0.0435
24052W        W39183   0.087  13.050   9.743 -0.2589 -0.1748  0.1283
24053W        W39184   6.056  10.209   4.027 -0.1170 -0.0722 -0.2122
24054W        W39185   0.041  14.377  11.848 -0.1074 -0.2040 -0.1141
24055W        W39186  18.340  16.922  13.078 -0.1441  0.1696  0.1109
24056W        W39187   8.393   5.522  12.386  0.1345 -0.0983 -0.0354
24057W        W39188  14.078  15.548  11.952  0.2593  0.2676 -0.1202
24058W        W39189  17.276   6.729   2.078 -0.3931  0.0840  0.0324
24059W        W39190   0.722   4.300   0.726 -0.0913 -0.0973  0.1664
24060W        W39191   4.416   6.616  13.110  0.0719  0.0011  0.0493
24061W        W39192  17.095  12.126   4.300 -0.0888 -0.2032  0.4124
24062W        W39193  14.024  11.131   2.119  0.1471 -0.1291  0.0873
24063W        W39194   6.667   4.027   2.327  0.0738  0.4160 -0.0240
24064W        W39195   2.768   4.846   4.016  0.1239  0.1185  0.0447
24065W        W39196   9.021   5.251   3.048 -0.0093  0.2978 -0.2217
24066W        W39197  18.660   9.023   2.415  0.1326  0.1321  0.1384
24067W        W39198  11.752  14.413   5.908  0.0695 -0.3472  0.2268
24068W        W39199   8.298  11.371  14.453 -0.0282 -0.0200 -0.0413
24069W        W39200   3.688  10.452   4.446 -0.3399  0.1789 -0.3318
24070W        W39201   2.784  15.939  14.971 -0.3884 -0.1800 -0.0095
24071W        W39202  10.004  16.290   1.464  0.0692  0.1662  0.3120
24072W        W39203   3.279   7.748   0.230  0.0781 -0.2340  0.1019
24073W        W39204   7.961   1.423   5.059 -0.2945  0.2265 -0.0878
24074W        W39205   5.897  11.891   2.798 -0.2170 -0.0205 -0.0912
24075W        W39206  15.638  18.337   0.997  0.1529 -0.1485 -0.2144
24076W        W39207  13.859   3.641  10.426 -0.0481 -0.0414 -0.0796
24077W        W39208  15.629   4.132   3.607 -0.1343 -0.0625 -0.0872
24078W        W39209   8.736   2.075  12.118 -0.0747  0.0085 -0.1627
24079W        W39210   2.507   4.276  13.136  0.6209 -0.1441 -0.3577
24080W        W39211  12.115  15.637   4.601  0.1262  0.0716 -0.0300
24081W        W39212   3.519   6.754   2.855 -0.3372 -0.0682  0.2083
24082W        W39213   1.436  17.918   4.208  0.2346  0.2043 -0.0844
24083W        W39214   5.299   6.897  12.613  0.1296  0.0349 -0.2880
24084W        W39215  12.129  10.706  12.928 -0.2401  0.0836  0.0437
24085W        W39216  15.238  17.728  12.920  0.1188 -0.2314  0.0132
24086W        W39217  14.060  13.885   2.670  0.0773 -0.0752  0.0307
24087W        W39218  16.231   2.488   4.440 -0.2609  0.2263 -0.0023
24088W        W39219  17.159  11.191   1.580 -0.1165  0.0194 -0.0462
24089W        W39220  10.891  16.614  13.067 -0.1928  0.1036 -0.0654
24090W        W39221  12.244  11.837   5.286 -0.0062  0.0081 -0.3323
24091W        W39222   9.342  15.433  14.903  0.2321  0.2469 -0.4603
24092W        W39223   2.942  15.577   4.723 -0.1198  0.5268 -0.0284
24093W        W39224  13.738  16.135   1.867  0.1052  0.0685 -0.0126
24094W        W39225  15.171  16.782   0.785  0.0420 -0.2720 -0.2194
24095W        W39226   8.872   9.849  15.271  0.1038 -0.0633 -0.1655
24096W        W39227  14.525  18.109  15.288  0.1341 -0.0925  0.0654
24097W        W39228  13.029  18.098   5.007  0.1266  0.6318 -0.2329
24098W        W39229   3.991   0.602  11.470 -0.1510  0.1013  0.1085
24099W        W39230   0.253   6.200   9.814 -0.0700 -0.0012 -0.0021
24100W        W39231   5.759  16.301  10.926 -0.0167  0.3577  0.1027
24101W        W39232  15.235  17.440   4.144 -0.0104 -0.1032 -0.1042
24102W        W39233   9.440  18.140  12.220  0.2703  0.1564  0.0107
24103W        W39234  17.384  17.578   4.914 -0.1451 -0.0526  0.0149
24104W        W39235  10.285   3.116  11.501  0.3501 -0.0067 -0.2340
24105W        W39236  12.326   0.597   0.221 -0.1766  0.0598 -0.3120
24106W        W39237  16.269  10.344   4.993 -0.1498 -0.3492  0.0864
24107W        W39238  16.584  12.269  11.756  0.2269  0.2617 -0.1942
24108W        W39239  18.030   0.560  13.828 -0.1229  0.1446  0.1619
24109W        W39240  18.084  12.636  14.660  0.1665 -0.1513  0.0239
24110W        W39241   1.288  15.544   0.805  0.0206 -0.1796 -0.0709
24111W        W39242  15.045  13.973   2.843  0.0582  0.2282 -0.1570
24112W        W39243   9.156  14.626   1.147  0.1888 -0.0413  0.0275
24113W        W39244  16.944   7.972   1.218  0.3544  0.1833  0.0265
24114W        W39245   4.158  18.397  14.517  0.3644 -0.2497  0.0237
24115W        W39246  16.671  18.231  11.469 -0.0323  0.0905 -0.1439
24116W        W39247   3.716  12.035   4.604  0.1749  0.0668  0.0101
24117W        W39248  17.594   3.415   1.920 -0.1819  0.1451  0.2825
24118W        W39249   6.253  16.724  14.457  0.1651 -0.0118  0.3911
24119W        W39250  14.334   1.202  14.626 -0.2766 -0.0961  0.2832
24120W        W39251   9.556  16.483   2.917 -0.0854 -0.0700  0.0516
24121W        W39252  11.784  11.805   3.068 -0.0674  0.2379  0.0371
24122W        W39253   0.422  11.823   1.285  0.2978  0.1642  0.1375
24123W        W39254   8.349   7.973  15.659 -0.0564 -0.0444 -0.3099
24124W        W39255   7.782  11.917   2.228  0.1774 -0.3107 -0.1849
24125W        W39256   6.129  11.545   1.936 -0.1168 -0.1337  0.2616
24126W        W39257  13.120   7.450   3.936 -0.4326 -0.1947 -0.1494
24127W        W39258   2.055   4.159  10.865 -0.0231  0.0334 -0.1417
24128W        W39259   1.157   3.518  15.519 -0.1795 -0.1768  0.1471
24129W        W39260  11.499   0.597  13.666 -0.0598  0.0237  0.1023
24130W        W39261   3.449   6.104  11.846  0.2913  0.0685 -0.3433
24131W        W39262  10.687  12.268  15.403  0.0430 -0.0108 -0.1899
24132W        W39263  17.224  15.935  13.022 -0.0054  0.0305 -0.0277
24133W        W39264   3.242  13.822   0.937 -0.1803 -0.3365 -0.3356
24134W        W39265  16.983   8.434  12.717 -0.0952  0.3588  0.1836
24135W        W39266   6.042  15.028  10.607 -0.3645 -0.0885  0.1634
24136W        W39267  10.903   9.230  15.260  0.2228 -0.1745  0.1159
24137W        W39268  13.335   4.536  15.109  0.1305 -0.0536  0.0695
24138W        W39269   2.609  11.832   0.399  0.1999 -0.1947  0.2287
24139W        W39270  17.505  13.404  11.648 -0.4545  0.1782  0.3019
24140W        W39271   6.246  17.134   0.696 -0.0619  0.1368  0.3064
24141W        W39272  14.284  14.669   0.531 -0.2502 -0.0654 -0.1642
24142W        W39273  13.125   7.089  12.196  0.1110 -0.1996  0.0224
24143W        W39274  14.523  16.286   1.937 -0.1395 -0.0013 -0.3255
24144W        W39275  15.232  16.383  14.966  0.2643  0.0010 -0.1326
24145W        W39276  16.059   3.131  15.007 -0.4496 -0.2028 -0.3448
24146W        W39277   9.082   8.321   1.711 -0.1350  0.0423 -0.2213
24147W        W39278   9.710   4.771  14.144  0.0839  0.0967  0.4258
24148W        W39279   2.790  15.080   2.803  0.0384 -0.1090 -0.1678
24149W        W39280  16.528   5.642   0.447  0.2391 -0.3350  0.0106
24150W        W39281  15.587  16.537   0.974 -0.3254 -0.3839 -0.0744
24151W        W39282   0.447  16.062   0.292  0.0011 -0.1443 -0.2042
24152W        W39283  15.587  18.372  13.450  0.4710  0.2320  0.0646
24153W        W39284  13.586   1.400   0.950  0.1733 -0.1018  0.1810
24154W        W39285  14.924   5.222  15.549 -0.0230  0.0738 -0.2257
24155W        W39286   6.673  16.954   2.796 -0.0111 -0.1087  0.1653
24156W        W39287   0.993   8.599  11.323 -0.0536  0.0128 -0.0752
24157W        W39288  17.830   6.404   5.393 -0.1255 -0.0275 -0.0552
24158W        W39289   4.031   0.500  12.765 -0.0190  0.2933 -0.3111
24159W        W39290   0.615   1.500   1.792  0.1342  0.1511  0.1775
24160W        W39291  13.597   9.332   5.551  0.1998  0.1586  0.3075
24161W        W39292  11.548   4.927   3.959 -0.0514  0.2020  0.1323
24162W        W39293   0.736  11.569  13.113  0.0047 -0.1419  0.2543
24163W        W39294  12.896   0.194  13.849  0.0602 -0.0777  0.2405
24164W        W39295   9.222  17.289   5.717  0.1851 -0.2133  0.1878
24165W        W39296   4.493   4.911   3.947  0.2212 -0.2994 -0.1931
24166W        W39297   6.713  18.472   0.182  0.1249  0.2168  0.2860
24167W        W39298   8.041   5.369  13.132 -0.4521  0.1108  0.0786
24168W        W39299   2.347  11.929   4.818  0.1702  0.2357  0.1069
24169W        W39300   1.238   5.274   1.891  0.0456 -0.0310 -0.0777
24170W        W39301   6.668   8.706   1.381  0.2041 -0.4411 -0.2557
24171W        W39302   0.381  15.494  13.198  0.3176 -0.0895 -0.0218
24172W        W39303   4.898  14.405   1.083 -0.0509  0.0517  0.0031
24173W        W39304  18.608  13.482   4.148  0.4115 -0.0220  0.2960
24174W        W39305  10.276   7.056  14.061  0.1030 -0.2675 -0.5426
24175W        W39306   0.139  14.873   3.017  0.4482  0.2636 -0.1318
24176W        W39307   3.107  14.652   1.593  0.2424  0.0620 -0.2156
24177W        W39308   2.383  17.296  10.406  0.0883 -0.1545  0.0163
24178W        W39309  17.269   5.702  11.138  0.3228 -0.1284 -0.0097
24179W        W39310   1.325  15.551   4.109  0.2057  0.0494  0.1984
24180W        W39311   8.474   7.620   1.864  0.1782 -0.1569 -0.2390
24181W        W39312   1.226  14.407  10.969  0.0582  0.0059 -0.3581
24182W        W39313  17.461  13.681   1.071 -0.5888  0.1919 -0.2798
24183W        W39314   5.841   7.799  11.549  0.1150  0.0188  0.2277
24184W        W39315   7.258  15.410   2.014 -0.0630  0.0889 -0.0429
24185W        W39316   2.001  17.326   3.871  0.0978  0.0348 -0.0055
24186W        W39317  15.245   2.118   2.993  0.0522 -0.1566  0.0187
24187W        W39318  16.223   4.338   3.504 -0.1085  0.1953 -0.0891
24188W        W39319  18.470   0.289  14.263  0.1296 -0.0795 -0.2831
24189W        W39320  16.323   2.403  13.399 -0.2841 -0.0239  0.1689
24190W        W39321  12.888   4.062   5.070 -0.2132  0.2238 -0.2490
24191W        W39322  10.105  16.815   0.781  0.0722 -0.1799 -0.1564
24192W        W39323   6.561  10.067   1.065  0.2494  0.0161 -0.3856
24193W        W39324   0.108  11.873   3.007  0.0197 -0.1549  0.2400
24194W        W39325   1.934  17.351  11.715  0.0948  0.0856  0.3868
24195W        W39326  14.348  15.351  11.585 -0.2762  0.0222  0.1738
24196W        W39327  11.737   3.943  12.041  0.3712  0.1388 -0.1877
24197W        W39328   3.374   1.044   2.271  0.0109  0.0539 -0.3070
24198W        W39329  14.133   7.945  14.090  0.0832  0.3128 -0.3653
24199W        W39330  17.948   3.949  10.510  0.1419  0.3546  0.1096
24200W        W39331  10.290   5.514  14.096 -0.2603 -0.0272 -0.2069
24201W        W39332   5.120   7.433   0.568  0.1234  0.0912 -0.0841
24202W        W39333  13.793  15.542  14.145 -0.0580  0.2609  0.0332
24203W        W39334   5.615  11.488   4.614  0.0426  0.0691  0.0429
24204W        W39335   1.661  12.366   5.198 -0.0439  0.1557 -0.0854
24205W        W39336  18.504   4.865   4.529  0.2524 -0.0251  0.0408
24206W        W39337   5.452  14.655   3.880  0.2899  0.0001 -0.0560
24207W        W39338   6.358  17.537  11.528 -0.0521 -0.2188  0.2894
24208W        W39339   0.879  11.704  12.466 -0.1159  0.0583 -0.1913
24209W        W39340  14.774   2.967  10.692  0.4143 -0.1563  0.0302
24210W        W39341   2.702   1.274   0.704 -0.3099 -0.1410  0.1939
24211W        W39342  10.219  13.100  11.304  0.1291  0.0431 -0.3434
24212W        W39343  12.236  11.577   4.253  0.0688 -0.3897  0.1335
24213W        W39344   7.675   9.123  14.051 -0.1706 -0.1472 -0.2896
24214W        W39345   5.285  18.503  15.694  0.2174  0.0433  0.1098
24215W        W39346   6.545   5.742   5.906 -0.0751 -0.1058  0.0191
24216W        W39347   7.519  10.248   4.005 -0.0428 -0.1282  0.3743
24217W        W39348  14.678   2.913  11.787 -0.1924  0.1297  0.1281
24218W        W39349  16.560  17.316  15.002 -0.0396 -0.4576 -0.0818
24219W        W39350  13.910  16.095  15.396  0.4991  0.2220 -0.1667
24220W        W39351   1.610   3.362   1.768 -0.1452  0.2124  0.1280
24221W        W39352   1.748   6.004  14.879  0.0804 -0.2825 -0.1084
24222W        W39353   7.814  17.358   1.115  0.1239  0.1588  0.0614
24223W        W39354  18.047   3.294   0.434  0.0670  0.3069 -0.0446
24224W        W39355  11.562   9.617   3.233  0.1558 -0.0359 -0.1547
24225W        W39356   3.460   8.252  14.921 -0.3529  0.1191 -0.0600
24226W        W39357  17.231   2.508   5.658 -0.0935 -0.3739  0.1583
24227W        W39358  11.796  17.510   3.853  0.2585  0.1431 -0.0963
24228W        W39359   7.890   5.268  14.204  0.2810  0.0387  0.1470
24229W        W39360   3.163  10.154  15.748  0.2000 -0.0888  0.0791
24230W        W39361  16.692  10.864   4.312 -0.1872 -0.0808  0.2255
24231W        W39362  12.145  10.784   2.074  0.1126 -0.0111  0.2971
24232W        W39363  12.473   1.947   1.849 -0.0237  0.0219 -0.1884
24233W        W39364  13.102   6.603   3.298 -0.0409  0.0038 -0.1412
24234W        W39365  14.005   6.615   0.493 -0.1550 -0.5768  0.0233
24235W        W39366  10.512   2.494   1.287  0.0199  0.2729  0.1530
24236W        W39367   8.830   5.045   1.785  0.2434 -0.0111  0.3072
24237W        W39368  14.145   7.442   5.047 -0.0774  0.0889  0.0116
24238W        W39369  16.347   2.924  14.179  0.4295  0.0185  0.2091
24239W        W39370   8.396  16.901   0.124  0.1035  0.0047 -0.0872
24240W        W39371  16.519   8.585   3.341 -0.0661 -0.2760 -0.1951
24241W        W39372  15.772  17.686   0.226 -0.2108 -0.5209 -0.0605
24242W        W39373  18.313   2.915  12.951  0.1493 -0.0815 -0.0051
24243W        W39374  10.492   5.337   3.134 -0.2795  0.2394 -0.0682
24244W        W39375   9.272   0.726   1.214  0.0141 -0.1538  0.1703
24245W        W39376  12.636   8.794  14.836 -0.1315  0.0520 -0.0501
24246W        W39377  17.246   4.864   4.060 -0.2804 -0.1665 -0.0958
24247W        W39378  18.511  17.766   1.270 -0.2610  0.0584 -0.1460
24248W        W39379  18.402  12.333   5.093 -0.2320  0.1530  0.1705
24249W        W39380  13.962   1.909   0.345 -0.0106 -0.0908  0.1469
24250W        W39381  17.092   3.397   4.494  0.4246  0.1025  0.1910
24251W        W39382   2.597   1.369  12.962  0.0787 -0.2365 -0.1314
24252W        W39383   1.039   8.363  12.256  0.1569 -0.1470 -0.1665
24253W        W39384  15.774   2.796   4.855  0.2394  0.0910  0.0683
24254W        W39385  16.543   1.905  14.690 -0.0965  0.0184  0.1476
24255W        W39386   1.289   8.943   1.662  0.2018  0.2634 -0.4053
24256W        W39387   0.959  18.489  13.901  0.0651  0.3098 -0.2565
24257W        W39388   1.819  15.566  15.028  0.2120  0.1001  0.4327
24258W        W39389  18.224   6.239  13.500  0.2624 -0.3125 -0.3040
24259W        W39390   9.720   6.322   2.504  0.0580 -0.0774  0.1549
24260W        W39391  12.047  13.899  13.812 -0.3741  0.1286  0.0104
24261W        W39392  17.431   4.961  13.202 -0.1158  0.0431 -0.1103
24262W        W39393   7.323   4.245   1.427  0.1013 -0.1979 -0.2326
24263W        W39394   8.349   0.667  13.355 -0.0117  0.1463 -0.2628
24264W        W39395  11.233   7.049   5.953 -0.1031 -0.0247  0.0442
24265W        W39396   3.051  14.815  15.385  0.0116 -0.0106  0.2184
24266W        W39397   1.215   7.269   4.093  0.1667 -0.0742 -0.4044
24267W        W39398  15.495  11.087  14.002  0.1972  0.1469  0.0659
24268W        W39399   9.899  17.926  12.479  0.2597 -0.1505  0.1306
24269W        W39400  14.081   9.537  14.333  0.2040 -0.4105  0.0647
24270W        W39401  18.637  18.465   2.187  0.2643  0.1292 -0.2521
24271W        W39402  16.539   5.875   5.607  0.1289 -0.3641  0.0461
24272W        W39403   4.101  13.154   2.077  0.1756  0.0174  0.2919
24273W        W39404   7.218  10.931  15.190  0.2212 -0.1055 -0.1916
24274W        W39405  17.039   6.764   3.319  0.3157 -0.0297 -0.1421
24275W        W39406   7.689  17.917  15.142 -0.1355  0.2146 -0.0543
24276W        W39407   6.458   8.487  10.433 -0.0454 -0.2207  0.1025
24277W        W39408  10.089   6.042   1.340 -0.0282  0.0932  0.0920
24278W        W39409   5.001  13.907   0.308 -0.2504  0.0116  0.2370
24279W        W39410   8.846   3.669   9.447 -0.0973 -0.2385  0.1725
24280W        W39411  10.325  18.593  11.079 -0.0922  0.2112 -0.1840
24281W        W39412   9.841  15.269  14.366 -0.2067 -0.1792 -0.1329
24282W        W39413   8.502  17.503   1.349  0.0559  0.3859 -0.0937
24283W        W39414   1.467   2.216   4.195  0.0619 -0.3711 -0.0603
24284W        W39415   7.753  11.924   4.270  0.0615  0.3252 -0.2074
24285W        W39416  16.823   9.330  13.218 -0.2623  0.5022  0.2105
24286W        W39417   3.414  12.270  13.385  0.1390 -0.1720 -0.3029
24287W        W39418   5.490   7.255  15.408  0.1604 -0.0722 -0.3466
24288W        W39419   2.259  15.369  12.840 -0.1110 -0.0794 -0.0824
24289W        W39420  13.595  12.212  14.907  0.0091 -0.3427 -0.1947
24290W        W39421  16.235  17.877  14.313 -0.1052  0.1203  0.1271
24291W        W39422  15.135   7.061  14.496 -0.1068 -0.3342  0.1406
24292W        W39423   2.569  17.810  10.475 -0.1291 -0.2963  0.2073
24293W        W39424   5.205   7.775  10.910 -0.4045  0.1123 -0.2501
24294W        W39425   7.827   2.105   2.056  0.0698 -0.1590  0.4638
24295W        W39426   1.809   1.785   0.698  0.0373 -0.0400 -0.2683
24296W        W39427  11.213  15.550  12.270 -0.0717  0.2023  0.0324
24297W        W39428   9.692  16.786  13.278 -0.2947  0.0372 -0.0868
24298W        W39429   9.648  15.391  10.317  0.1273  0.2513 -0.2306
24299W        W39430  13.336   3.772  12.173 -0.0584 -0.1397 -0.1056
24300W        W39431  14.799  17.588  12.714  0.2951 -0.0743  0.0601
24301W        W39432  11.302   5.959   5.391  0.2091 -0.0744  0.1602
24302W        W39433   4.863   9.465   1.704 -0.0191  0.0885 -0.0161
24303W        W39434  16.194   2.784   0.851 -0.1117  0.2581 -0.0255
24304W        W39435   1.623   8.249  10.663  0.1113  0.0162  0.1983
24305W        W39436  15.447  10.085   1.009  0.4053  0.2140  0.0582
24306W        W39437  11.157   5.430   5.349 -0.0746  0.0464  0.1267
24307W        W39438   6.896   9.359  15.693  0.2234 -0.0167  0.2560
24308W        W39439  16.924  16.162   3.186 -0.0888 -0.1528 -0.0364
24309W        W39440   2.892  17.730   1.297  0.3637  0.3473 -0.3003
24310W        W39441  16.367  10.477   3.596  0.0137  0.1334 -0.2265
24311W        W39442  18.472  12.177  12.535 -0.2646 -0.3859  0.5562
24312W        W39443   9.910   4.553  15.643 -0.0004  0.0627  0.3534
24313W        W39444  16.320   5.676   1.921 -0.0718 -0.0134 -0.1974
24314W        W39445   6.180   2.049  10.905 -0.2350 -0.1053 -0.2504
24315W        W39446  11.033  11.051  11.630  0.1051  0.0070 -0.0898
24316W        W39447   8.671  17.509   2.040  0.4178 -0.2167 -0.2816
24317W        W39448  14.008   6.987   4.219  0.0024 -0.3247 -0.1906
24318W        W39449  16.439   4.916  15.676  0.0458  0.2689 -0.0918
24319W        W39450  11.959   9.918  14.288 -0.3427 -0.2200 -0.1964
24320W        W39451   0.964  16.914   1.585  0.1671 -0.1235  0.3553
24321W        W39452  13.710  15.171  14.594  0.0043 -0.0260  0.2328
24322W        W39453  15.601   3.501  12.777  0.1655  0.1041 -0.1846
24323W        W39454   7.544   9.452  14.383  0.2464 -0.1099 -0.1909
24324W        W39455  13.444   2.406  13.398 -0.3187  0.0775  0.2131
24325W        W39456   3.354  17.261   1.792  0.0661  0.0288  0.2702
24326W        W39457  11.270   3.720   3.160  0.2448  0.0885 -0.0777
24327W        W39458  16.377   4.596   2.156 -0.4203 -0.1099 -0.0437
24328W        W39459   2.969   9.224  15.159 -0.1255 -0.2919 -0.1053
24329W        W39460  15.121  13.325  10.945 -0.1020  0.2361  0.2313
24330W        W39461   5.309  17.811  13.025 -0.2420  0.1505 -0.0648
24331W        W39462  13.135   3.997  11.677 -0.0563  0.1419  0.0814
24332W        W39463   7.902   4.445  10.652 -0.1098  0.0453 -0.0856
24333W        W39464   7.352   9.760  14.698  0.0146 -0.2265  0.2043
24334W        W39465  12.757  16.059  12.950  0.0697  0.1062  0.1112
24335W        W39466  12.663  10.406   0.779  0.0457  0.0231 -0.0303
24336W        W39467  17.456   6.637   4.366  0.0427  0.0551  0.0827
24337W        W39468  16.135  14.285   5.739 -0.1585 -0.2529 -0.1901
24338W        W39469   8.171  11.050  14.856  0.0386 -0.0703  0.2842
24339W        W39470   8.395   7.869  13.582 -0.2638  0.3408 -0.0866
24340W        W39471  14.305  17.377  11.948  0.0952 -0.0675  0.1258
24341W        W39472   4.971   7.546   9.857  0.0276  0.2825 -0.0629
24342W        W39473  10.879   8.746   6.810  0.0838 -0.0659 -0.1956
24343W        W39474   5.742  17.460   4.679  0.2309 -0.0952  0.2311
24344W        W39475  10.715  10.431  13.016  0.1689  0.3392  0.1126
24345W        W39476  18.491   5.536  14.869 -0.1863 -0.1244 -0.1459
24346W        W39477   6.664  11.003   5.358 -0.0382  0.1020 -0.0286
24347W        W39478   9.535  12.728   4.121  0.2025 -0.2525 -0.1933
24348W        W39479  11.270  11.336  15.099  0.1649 -0.2916  0.0871
24349W        W39480  10.695  18.091   0.168  0.1006  0.1500 -0.0706
24350W        W39481   4.222  18.006  12.629 -0.2005  0.0961 -0.2090
24351W        W39482  14.079  14.660   0.066 -0.2421 -0.2059 -0.2850
24352W        W39483   7.700   3.835  14.931 -0.0266  0.2470  0.0466
24353W        W39484   5.072  10.231   1.241 -0.1125  0.0211  0.1358
24354W        W39485  14.679   8.994  12.331  0.3556  0.1546  0.2243
24355W        W39486  18.321  12.460  11.667  0.3598  0.1394 -0.0031
24356W        W39487   9.664   8.368   1.394 -0.2784  0.1395 -0.0735
24357W        W39488   6.652   6.867  12.843 -0.0001  0.4155  0.1474
24358W        W39489   9.229   5.765   4.557  0.0670 -0.0286 -0.0043
24359W        W39490   9.247   6.186  15.226 -0.0429  0.2106 -0.0495
24360W        W39491  13.688  14.336  10.875 -0.2386 -0.0303 -0.0597
24361W        W39492  16.592   2.130  10.735  0.0434  0.0182 -0.2319
24362W        W39493   3.549  16.079   0.772 -0.3182 -0.3544  0.3428
24363W        W39494  13.576   4.453   2.010  0.0581 -0.2266  0.3222
24364W        W39495  16.172   8.867   1.434  0.1198  0.1569  0.0302
24365W        W39496  17.533  17.613   0.959 -0.3990 -0.0279 -0.1405
24366W        W39497  12.254   9.205   1.397  0.1507  0.0629 -0.1016
24367W        W39498  17.553  13.110   3.834  0.4551 -0.0085  0.1107
24368W        W39499   2.628   3.321   0.132 -0.0620 -0.0244 -0.1037
24369W        W39500   2.325   0.873  14.132  0.2657 -0.1435 -0.2695
24370W        W39501  15.377   0.870   0.883  0.3169  0.1370  0.0049
24371W        W39502  13.071   5.155  13.086  0.2687 -0.0328 -0.1760
24372W        W39503  18.326   9.038   4.364 -0.0207 -0.1109  0.3019
24373W        W39504   5.196  11.792   4.500  0.0190  0.2862  0.1921
24374W        W39505  18.449   4.364  11.778 -0.0730 -0.0011  0.0484
24375W        W39506  16.359  16.350   3.435 -0.1636  0.4595 -0.1612
24376W        W39507  18.278  15.740  14.340 -0.0247  0.1089  0.1926
24377W        W39508   9.683  14.017  15.639  0.0756  0.2444 -0.0281
24378W        W39509   4.779   5.772  11.632  0.1275  0.0612  0.2751
24379W        W39510  13.588  12.434   1.275  0.0703  0.1692  0.0031
24380W        W39511   3.024  12.836  12.114 -0.1845 -0.0859  0.1399
24381W        W39512   6.441  13.605   3.934 -0.4109  0.0833  0.0205
24382W        W39513  18.057  11.103   4.053  0.1164  0.1533  0.2879
24383W        W39514   3.819   7.375  13.817  0.0817 -0.0930 -0.2037
24384W        W39515  18.518   2.813  10.807 -0.0003  0.0883  0.0492
24385W        W39516   8.331   2.638   3.685  0.2023  0.0573  0.0555
24386W        W39517   2.406   3.048   4.357  0.2176  0.1970 -0.0670
24387W        W39518   6.232   0.002  15.634  0.2338  0.1724  0.1446
24388W        W39519  18.554   5.259   1.082 -0.1295  0.2272  0.2028
24389W        W39520   3.808  14.325   0.018  0.2904  0.3316 -0.4212
24390W        W39521   3.275  12.800   2.594  0.3356 -0.3367 -0.0848
24391W        W39522   6.856   6.291  13.469 -0.1809  0.4656  0.1973
24392W        W39523   4.101  16.674   2.677  0.0560 -0.0852 -0.0454
24393W        W39524   2.152   2.899  10.971  0.1361 -0.1249  0.1958
24394W        W39525  10.532  16.415  10.882  0.1418 -0.0905  0.2724
24395W        W39526  11.674  12.673  14.781  0.0063 -0.1888 -0.2623
24396W        W39527   0.026  16.400   2.792 -0.1469 -0.3074  0.1135
24397W        W39528   3.985  18.669  15.284 -0.2866  0.0603 -0.0832
24398W        W39529  14.946   3.061  12.207  0.0744 -0.0010 -0.1455
24399W        W39530  15.219  17.797  14.632 -0.1643  0.0868 -0.0635
24400W        W39531  11.202  17.471  14.043  0.0874 -0.1975 -0.0009
24401W        W39532  15.336   0.557   4.269 -0.2030 -0.1498 -0.1691
24402W        W39533   2.420   4.350  10.301 -0.0104  0.0739 -0.0966
24403W        W39534  14.017   4.593  13.953 -0.1309 -0.0531  0.2588
24404W        W39535   6.253   7.356  13.398 -0.2551  0.0922 -0.1512
24405W        W39536  13.746  14.547  11.946 -0.2396 -0.2508  0.0756
24406W        W39537   7.172   4.856   1.576  0.0284 -0.3738 -0.2838
24407W        W39538  10.889   3.934  11.361 -0.1270 -0.1851  0.0968
24408W        W39539  11.571  16.626  12.146  0.2939  0.3004 -0.1196
24409W        W39540   1.651   4.129  15.427 -0.0076 -0.0913  0.1040
24410W        W39541   9.733  14.261   5.345 -0.1961  0.0112 -0.0994
24411W        W39542   9.981  17.213  15.127  0.3120  0.2041  0.2936
24412W        W39543  11.512  11.181  15.587  0.1216 -0.3125  0.0428
24413W        W39544   1.423  18.436   4.086  0.0008  0.0207  0.3978
24414W        W39545  12.936   2.473  10.821 -0.1704 -0.3439  0.0743
24415W        W39546   2.221   1.672   4.286 -0.4133 -0.0738  0.1869
24416W        W39547  16.926  10.277   3.585 -0.2355  0.0556  0.0491
24417W        W39548   9.588   1.446  12.149 -0.0809  0.0537 -0.0157
24418W        W39549  16.753   2.575  11.741 -0.0207  0.1313  0.4136
24419W        W39550   3.478   9.659   5.011  0.0146 -0.0537  0.0844
24420W        W39551   5.612   5.332  14.227 -0.1562  0.2880 -0.0512
24421W        W39552  16.317   2.417   3.965 -0.0037  0.0269 -0.1616
24422W        W39553   7.966  15.125  13.547 -0.0177 -0.0610 -0.3458
24423W        W39554  16.581   0.430  10.855 -0.1499  0.2054 -0.0131
24424W        W39555   7.316  11.427  12.642 -0.1799 -0.2208  0.0796
24425W        W39556  17.944  15.195   2.389  0.3255  0.0080 -0.1089
24426W        W39557   3.229  17.348   1.274 -0.4106  0.1299  0.1417
24427W        W39558   9.826   1.110   3.540 -0.3771 -0.3823 -0.3253
24428W        W39559  10.501   5.312  14.497 -0.2086 -0.3354 -0.0777
24429W        W39560  12.668   6.026  10.950  0.0115  0.0097 -0.0014
24430W        W39561   0.009  13.952   4.337  0.0204 -0.3911  0.1140
24431W        W39562  18.263  12.389   0.204 -0.1206 -0.2322 -0.4128
24432W        W39563  13.473   7.868   3.894  0.0898  0.1610  0.0245
24433W        W39564   4.397  14.355  10.507  0.0999 -0.2202 -0.0540
24434W        W39565  10.154  13.404   3.784 -0.1369 -0.2854  0.1480
24435W        W39566  15.629   5.971  15.433 -0.3775  0.0666 -0.1130
24436W        W39567   5.442  18.090  12.028  0.1833 -0.3094  0.0584
24437W        W39568  15.716   6.203  11.774  0.5296  0.0863 -0.0047
24438W        W39569   2.991  11.162   0.949 -0.2313  0.0279 -0.2231
24439W        W39570   7.994  10.016  10.994  0.1811  0.2227  0.1193
24440W        W39571   4.346   2.247   4.876  0.0585  0.0555  0.2642
24441W        W39572  10.129  13.765   4.370 -0.0268 -0.0419 -0.1511
24442W        W39573   0.953  17.555   2.287 -0.0388 -0.1193 -0.1819
24443W        W39574   5.450   0.266  10.084  0.1461 -0.1108  0.0921
24444W        W39575  12.490   5.930  13.295 -0.0442  0.0894 -0.2173
24445W        W39576  15.330  17.426   5.105  0.3208  0.0045  0.1850
24446W        W39577   1.720  11.531   0.740  0.0016  0.1017  0.0158
24447W        W39578  17.627  12.259   5.350 -0.0430  0.0251  0.0749
24448W        W39579  15.866  13.673  11.126  0.0973 -0.1093 -0.0661
24449W        W39580  16.898  16.615   6.487 -0.2314  0.0223  0.2003
24450W        W39581  17.531   5.453   5.175 -0.1103 -0.0351 -0.0932
24451W        W39582   1.569   2.572  11.594  0.0689 -0.1084  0.2046
24452W        W39583   4.303   1.920   2.979 -0.0021 -0.0451  0.0671
24453W        W39584   0.441   5.047   2.025  0.0526 -0.2074  0.2192
24454W        W39585  17.361   6.769  10.665 -0.0479  0.0693 -0.1003
24455W        W39586   2.543  11.264   2.731  0.2968  0.1177  0.2781
24456W        W39587   3.348   3.052  10.158 -0.3058  0.2667 -0.2067
24457W        W39588   2.570  13.307   0.871  0.0098 -0.3108  0.0126
24458W        W39589   7.790   7.480   4.926  0.1458  0.3878 -0.0942
24459W        W39590   6.393   2.664  15.206 -0.2253 -0.0526 -0.1072
24460W        W39591  17.791  13.417  14.636 -0.1724  0.0395 -0.0869
24461W        W39592   3.076   8.550   3.371 -0.3673  0.0515  0.2650
24462W        W39593   4.235  15.726  14.328 -0.0052 -0.0557 -0.3014
24463W        W39594   8.263  18.397   2.696  0.2917 -0.1594 -0.1974
24464W        W39595   3.867  16.671  14.384  0.2086  0.0494 -0.0977
24465W        W39596   8.303  16.559  12.160 -0.0694  0.2179  0.1790
24466W        W39597   8.979   1.289  13.352 -0.2105  0.3046  0.5587
24467W        W39598   9.579  13.352  12.399 -0.0662  0.2812 -0.1577
24468W        W39599  10.862   0.362   0.347 -0.2244  0.0778  0.2644
24469W        W39600  18.665   7.011  13.237 -0.2047  0.1191 -0.2542
24470W        W39601   9.274  10.977  13.767 -0.0839 -0.1112 -0.1709
24471W        W39602  17.197   7.928  14.637  0.1091  0.0078  0.1753
24472W        W39603   2.357   3.212  10.663 -0.0903  0.1705  0.3525
24473W        W39604   2.818   4.723   2.019 -0.2808 -0.1290  0.3447
24474W        W39605   3.110   6.170  12.773  0.1894  0.5121  0.2751
24475W        W39606   4.590  18.507  13.083  0.3052  0.0033  0.2398
24476W        W39607  11.878  12.545  14.301  0.0351 -0.1307  0.3637
24477W        W39608  15.495   1.760   3.922  0.1183  0.1262  0.3846
24478W        W39609   6.741   1.619  13.380  0.1828 -0.0763 -0.2061
24479W        W39610  15.506   7.651   4.717  0.0600 -0.1137 -0.2361
24480W        W39611   0.030   1.325   2.975  0.2058 -0.3090  0.1861
24481W        W39612  13.041   8.556   2.582 -0.0848 -0.1254  0.2484
24482W        W39613   6.022   7.681   1.674 -0.0267 -0.1802 -0.3205
24483W        W39614   1.349  15.781  15.097 -0.0941  0.1993  0.0148
24484W        W39615  17.688   1.767   6.127 -0.1496  0.2287  0.0977
24485W        W39616  12.540   7.349   5.037 -0.1193  0.0857  0.2663
24486W        W39617   1.869   4.809  12.239  0.1904 -0.0598 -0.2296
24487W        W39618   5.619   5.017  10.054  0.0221 -0.0449 -0.1483
24488W        W39619   2.631  14.314   4.413  0.2098  0.0213 -0.1321
24489W        W39620  15.081  13.432   0.562  0.2268 -0.0208 -0.1712
24490W        W39621   0.960   1.551   0.157 -0.1104  0.0505 -0.0192
24491W        W39622   3.242   0.397   4.462 -0.1619  0.2592  0.2822
24492W        W39623  14.967   7.804  12.622  0.1252 -0.0882  0.1493
24493W        W39624  11.697   5.988   4.815 -0.2096  0.0423  0.1907
24494W        W39625   4.824  13.491   1.304  0.2096 -0.2296  0.0581
24495W        W39626  10.857   4.773   2.209 -0.1672 -0.2890 -0.6029
24496W        W39627   0.178  16.404  14.055 -0.0553 -0.2799  0.3286
24497W        W39628   1.254  18.428   0.689  0.3084  0.1337 -0.2580
24498W        W39629   1.763  15.193   2.342 -0.0963  0.0405  0.2967
24499W        W39630  11.168  16.005   4.883 -0.2333  0.1876 -0.0797
24500W        W39631   0.275   0.039   3.600  0.2200  0.0043 -0.0621
24501W        W39632  18.714  15.880  13.990 -0.1680 -0.0791  0.2736
24502W        W39633  15.707   2.437   5.268  0.1667 -0.1592 -0.0960
24503W        W39634   6.252   9.622  14.382  0.0187 -0.1034  0.0078
24504W        W39635   7.070  10.609   4.801 -0.1937  0.1211  0.2893
24505W        W39636  14.354  12.185   3.485 -0.2342 -0.1726  0.0176
24506W        W39637   3.802  15.043  13.179 -0.1194 -0.1346 -0.0386
24507W        W39638  15.534  14.054   0.494  0.0193 -0.1771 -0.2651
24508W        W39639  12.864   8.074  14.277  0.1686  0.0011 -0.1654
24509W        W39640  14.644  15.044  14.954  0.1354 -0.1369  0.1469
24510W        W39641  17.345  18.002   3.994  0.0232  0.0806 -0.0885
24511W        W39642   5.870  13.403  15.037 -0.0643  0.1862 -0.3878
24512W        W39643  12.853   8.350   5.247 -0.2996  0.2907 -0.0459
24513W        W39644   0.423   0.703   0.149 -0.1989  0.3372  0.1770
24514W        W39645  18.176  17.562   2.106 -0.3322  0.1458  0.1533
24515W        W39646   5.394  16.639   4.763  0.0431  0.1090 -0.6711
24516W        W39647  11.330   7.194  13.457  0.0945 -0.1866 -0.1028
24517W        W39648  12.725   9.304   2.760  0.1925  0.1583 -0.0525
24518W        W39649   6.369   7.740  11.870  0.1045 -0.1557  0.0966
24519W        W39650   7.058   0.304  15.035 -0.1842  0.0198 -0.0926
24520W        W39651   7.377  17.187  11.308 -0.0518  0.0902  0.0022
24521W        W39652   5.796  12.488   4.566  0.0910  0.2515 -0.1504
24522W        W39653   4.303   9.823  10.681  0.2990 -0.0662 -0.1279
24523W        W39654   5.224  11.583  10.264  0.0041  0.0015 -0.0656
24524W        W39655   8.140  17.071  12.393 -0.0817  0.1944 -0.6414
24525W        W39656  10.743   4.418  11.586 -0.2016 -0.0579 -0.2929
24526W        W39657   1.747   0.128   3.039 -0.0972 -0.2376  0.0312
24527W        W39658  12.497   1.419   4.053  0.0847  0.0230 -0.2615
24528W        W39659   7.607   8.923   1.928 -0.2064 -0.0959 -0.0390
24529W        W39660   6.136  16.393   2.232  0.1574 -0.2751 -0.2014
24530W        W39661   5.774   1.325   5.389  0.1247 -0.0030  0.1536
24531W        W39662   9.650  15.282   3.044  0.0778  0.1322 -0.3333
24532W        W39663   1.993   8.719   5.082  0.1972  0.1293  0.0256
24533W        W39664   7.180   8.411   3.134 -0.1679 -0.0022 -0.6316
24534W        W39665   1.497  10.114   3.062 -0.1189 -0.0241 -0.1393
24535W        W39666  14.160   6.606   3.192 -0.1913  0.3050 -0.0684
24536W        W39667  16.860   7.337  12.661  0.0221 -0.0341 -0.0467
24537W        W39668   1.832   8.023   4.170 -0.1125  0.0744  0.2408
24538W        W39669   8.555  14.628  14.422  0.0938  0.0399 -0.2737
24539W        W39670  15.809   3.937  13.612 -0.1541  0.0234  0.0038
24540W        W39671   0.625  15.997  11.604 -0.2530 -0.2860  0.2663
24541W        W39672   5.107  12.356  11.269 -0.0342 -0.1605 -0.1094
24542W        W39673  12.585   6.368  11.227  0.2217  0.0377  0.1786
24543W        W39674  13.155   1.620  13.554  0.0056  0.1809 -0.1220
24544W        W39675  12.170   0.617   5.511  0.1443  0.0084  0.2927
24545W        W39676   8.953  11.621   2.778 -0.2507  0.0429  0.0063
24546W        W39677   3.837  17.157   2.002 -0.1674 -0.2210 -0.1273
24547W        W39678   9.342  16.125   3.759  0.2751  0.0501 -0.0357
24548W        W39679   2.386   6.402  14.146 -0.1282  0.1766 -0.4164
24549W        W39680   0.567  13.729   3.330  0.0538  0.0970 -0.4083
24550W        W39681   4.836   0.056  14.898  0.0292 -0.3647  0.1119
24551W        W39682  15.332   8.419   4.371 -0.3564 -0.2370  0.1214
24552W        W39683  10.592   5.114  11.302  0.2949  0.1359  0.1155
24553W        W39684  10.525   0.570  10.693  0.3919  0.1558  0.1722
24554W        W39685  11.376  13.139  14.830 -0.2059 -0.2961  0.1064
24555W        W39686   9.401   0.708  11.872 -0.1479  0.2704 -0.3227
24556W        W39687  14.678  12.190   3.911  0.0683  0.3771 -0.1026
24557W        W39688  13.611   2.352   2.657  0.0667  0.2332  0.0467
24558W        W39689   7.156   6.443   4.913 -0.1118  0.3720  0.0435
24559W        W39690   6.343  14.565  11.931  0.0856  0.0975 -0.0525
24560W        W39691  17.014  15.763  12.182  0.0407 -0.0247 -0.3023
24561W        W39692  12.126  15.110   4.557 -0.0161  0.0049 -0.0501
24562W        W39693   7.077  16.758  14.156  0.1338  0.0241  0.0606
24563W        W39694   0.924   3.738   3.808  0.2606  0.0930  0.1899
24564W        W39695  11.516   8.099  14.132 -0.2466  0.0700  0.0290
24565W        W39696   5.617   8.229  11.613 -0.1874  0.2083  0.1981
24566W        W39697   8.183   3.953   5.334 -0.2144 -0.1118 -0.4598
24567W        W39698   2.457   2.092  13.839  0.1353  0.0817 -0.0705
24568W        W39699   1.109   3.626   1.212  0.1339 -0.0446 -0.1287
24569W        W39700   8.958  17.199   1.268  0.1386 -0.1751 -0.0049
24570W        W39701   3.059   2.037  13.833 -0.0203  0.2399 -0.0008
24571W        W39702  12.208  13.767  12.920 -0.1005 -0.0505  0.2682
24572W        W39703  10.539  13.617   6.132 -0.2997  0.3788 -0.0198
24573W        W39704  11.467  16.581   2.804 -0.0535 -0.2147 -0.0687
24574W        W39705  14.645  14.087  11.113 -0.1302  0.1627  0.1202
24575W        W39706   0.518  13.769  12.356 -0.2519  0.1115 -0.0708
24576W        W39707  16.687  15.083  10.899 -0.3404 -0.1082 -0.2011
24577W        W39708  15.471  14.779  13.605 -0.1631  0.2623 -0.0140
24578W        W39709   9.782  18.533  10.929  0.2229  0.2063 -0.0212
24579W        W39710  11.840   5.834  13.871  0.0147 -0.1727 -0.1184
24580W        W39711  16.831   0.053   2.630 -0.1624 -0.0485  0.0612
24581W        W39712  11.196   9.841  13.253  0.1167 -0.1026 -0.0252
24582W        W39713   9.913  11.666   1.326  0.0034  0.4758 -0.0939
24583W        W39714   8.323   1.201   4.124 -0.1342 -0.1866  0.2173
24584W        W39715  16.666   5.709  14.324  0.2042  0.1110  0.0483
24585W        W39716   0.122  13.659   2.240  0.1306 -0.0589  0.0680
24586W        W39717   6.947   1.635   1.398  0.1309  0.2264  0.3508
24587W        W39718   0.960   2.844  12.354 -0.1085 -0.0174 -0.0116
24588W        W39719   9.284  10.053  15.581  0.0200 -0.2232  0.1838
24589W        W39720   6.279  17.421   3.965  0.3382 -0.2767  0.2524
24590W        W39721   1.929  10.282  13.250 -0.0750 -0.1494 -0.1418
24591W        W39722  10.702   2.980  14.524  0.0268 -0.3396  0.1622
24592W        W39723   4.741   4.249   0.512 -0.0578 -0.0545  0.1863
24593W        W39724   8.116  15.264  12.095  0.2556 -0.1325  0.1316
24594W        W39725  13.207  17.074  11.333  0.1264  0.2527 -0.0231
24595W        W39726  12.060  12.512  13.764 -0.1327 -0.2347 -0.0233
24596W        W39727   7.538  16.313  10.832 -0.2187 -0.0036  0.3514
24597W        W39728   6.707  17.533  11.945  0.1429  0.2750  0.1807
24598W        W39729   7.102  16.443  11.593 -0.1989  0.0035  0.1838
24599W        W39730   1.609  12.128  12.194 -0.0569  0.1845  0.1435
24600W        W39731   7.350  13.366   5.699 -0.1983 -0.1805  0.1187
24601W        W39732  14.662  10.582  12.759  0.1908  0.1794 -0.2857
24602W        W39733  14.251  13.670   2.312  0.0557  0.1047 -0.0746
24603W        W39734  11.734   7.280   0.389 -0.1677  0.3692  0.1228
24604W        W39735   2.075  14.583  14.864  0.2065  0.1726  0.0167
24605W        W39736  17.439   0.727  15.718  0.0183 -0.2515  0.0965
24606W        W39737   3.411   6.743  11.973  0.1453 -0.3404  0.0358
24607W        W39738   7.549  11.703   0.266 -0.2710 -0.1030  0.2545
24608W        W39739   5.885   0.225   1.987 -0.0267 -0.0171 -0.1500
24609W        W39740   9.946  11.947  11.553  0.2544  0.0473  0.1660
24610W        W39741   5.940  18.113  12.155 -0.0190  0.2170  0.3268
24611W        W39742  13.831   0.424   1.575 -0.3542 -0.0973  0.2649
24612W        W39743  13.977  14.391  12.911  0.1077  0.2113  0.1148
24613W        W39744   8.119   8.593   5.141  0.3704 -0.2190  0.2753
24614W        W39745   2.444  12.410   4.842  0.0296  0.2180 -0.0919
24615W        W39746   8.527   1.901  10.575 -0.0515  0.0234 -0.0076
24616W        W39747  10.283  10.100  14.459 -0.3072  0.0119  0.2048
24617W        W39748  17.000   9.414   4.349 -0.0878  0.2563 -0.0077
24618W        W39749   7.105  10.295  12.866  0.0596  0.1364  0.1657
24619W        W39750   4.191   1.914  14.529  0.2663 -0.2561  0.0833
24620W        W39751  13.072  14.266   5.432  0.0992 -0.0601 -0.0268
24621W        W39752  14.947  17.979   6.349 -0.1976 -0.0553 -0.4150
24622W        W39753  12.225  10.596   0.151  0.3064  0.1028  0.0192
24623W        W39754  16.021   5.207  15.641 -0.1487  0.0446 -0.1847
24624W        W39755   9.914   4.716  11.016 -0.0548  0.2812  0.1106
24625W        W39756  10.508  14.235  15.429  0.0717 -0.0174 -0.0095
24626W        W39757   9.866  16.928   3.261 -0.1165  0.2069  0.0351
24627W        W39758  10.464   6.091   2.754 -0.0962  0.4197 -0.2286
24628W        W39759  11.500   2.929   1.627  0.0841 -0.1574  0.3370
24629W        W39760  16.766   5.628  13.698  0.1986 -0.2573 -0.0600
24630W        W39761   8.580  11.220   1.304  0.1994  0.1174 -0.0643
24631W        W39762   2.951  10.889  12.281 -0.2216  0.1178  0.1630
24632W        W39763   4.047  14.846  15.125  0.3939  0.3286  0.1151
24633W        W39764   0.523  17.736  12.892 -0.3695  0.2159  0.2575
24634W        W39765   0.730   3.706   4.385  0.0645  0.1991 -0.2158
24635W        W39766   8.329  18.654  12.245  0.1027  0.0218 -0.0581
24636W        W39767   6.131   7.087  11.666  0.1182 -0.2449  0.1183
24637W        W39768   8.069   4.109   3.644 -0.0241 -0.0752  0.2722
24638W        W39769  18.603  10.671  13.309  0.0575  0.0741  0.1632
24639W        W39770   6.200   8.431   4.912 -0.0935 -0.0646 -0.0151
24640W        W39771  12.357   2.997   2.024 -0.2146 -0.0714  0.1808
24641W        W39772   8.883  15.519   1.099 -0.2554  0.1241 -0.0334
24642W        W39773  10.574   3.196   2.052 -0.0376  0.5304  0.0679
24643W        W39774   6.918  16.491  15.213 -0.1450 -0.0157 -0.0356
24644W        W39775   6.376   7.256   3.152  0.0660 -0.0231  0.1591
24645W        W39776   3.314  11.936  11.325 -0.1768  0.0882 -0.0266
24646W        W39777   1.455  14.256   0.503 -0.3980  0.0567  0.0647
24647W        W39778  10.683  10.456   2.295 -0.2449 -0.0697  0.1320
24648W        W39779   8.838  15.359   2.530 -0.0688  0.1048  0.0216
24649W        W39780  10.737   3.545  11.841  0.1887  0.1394  0.0653
24650W        W39781  13.151   7.966  11.642 -0.3489 -0.0734 -0.2172
24651W        W39782   2.241  10.078   1.622 -0.0858 -0.2772 -0.0816
24652W        W39783   9.649  15.537  13.883  0.2445  0.0431 -0.2919
24653W        W39784   4.318   5.279   0.283 -0.1880  0.0357  0.1078
24654W        W39785  14.268  13.283  15.337 -0.2926  0.0042  0.2540
24655W        W39786   9.858   5.956   4.964  0.3113  0.1364  0.0090
24656W        W39787   6.178   4.022   0.261 -0.1363 -0.0987 -0.0393
24657W        W39788   3.087   6.717   4.956  0.3337 -0.0735  0.0486
24658W        W39789   6.750   0.949  14.881  0.2679  0.0454  0.0049
24659W        W39790  17.457  17.944   0.392  0.1399  0.0104 -0.0365
24660W        W39791   8.276   0.556  14.605  0.4155  0.0518 -0.1022
24661W        W39792   9.120  14.265   3.437 -0.3601 -0.2987  0.0414
24662W        W39793   2.436   5.371  12.947 -0.1308  0.2452  0.1229
24663W        W39794   9.187  13.044  14.876 -0.0100  0.2708  0.1854
24664W        W39795   4.815  16.920  13.078 -0.1218 -0.4345 -0.1455
24665W        W39796  12.367   5.090   3.809  0.0509  0.0778 -0.1974
24666W        W39797  12.532  14.892   3.800 -0.0573  0.2403  0.1350
24667W        W39798  17.424   0.579  11.584 -0.0397  0.2978 -0.3666
24668W        W39799  10.914   8.506  11.336 -0.4046  0.4406 -0.0510
24669W        W39800   8.909  17.854  12.826 -0.0224  0.2619 -0.5875
24670W        W39801  13.162   0.420  15.422  0.0498  0.0713  0.0208
24671W        W39802   6.026   9.030  12.097 -0.1861 -0.0681 -0.3034
24672W        W39803  10.785  17.378  11.178 -0.0150  0.1631 -0.0211
24673W        W39804  10.444  15.811  13.369  0.0646  0.0005  0.0697
24674W        W39805   9.390  17.302   4.453  0.0808  0.1324  0.0007
24675W        W39806   6.745  15.348   1.620  0.1430 -0.2227  0.1796
24676W        W39807  13.149   6.892  15.045 -0.0851  0.2630 -0.0061
24677W        W39808   8.870   9.932   3.519 -0.0048  0.1359  0.0717
24678W        W39809   5.515   0.034  14.338  0.0263  0.0553 -0.0260
24679W        W39810   0.829  13.218  11.546 -0.0079 -0.0195 -0.1484
24680W        W39811   5.201   4.309   4.255 -0.0104  0.0875 -0.1008
24681W        W39812   5.418  14.929   0.430 -0.0267  0.1231  0.1734
24682W        W39813   1.249  18.600  11.645  0.2353 -0.1543  0.0631
24683W        W39814   7.159   7.349  14.608  0.0422 -0.3789  0.0224
24684W        W39815   7.635  10.894  15.513 -0.0259 -0.1382  0.0031
24685W        W39816   3.378   9.007   4.389  0.2929  0.1105  0.0441
24686W        W39817   8.078  10.912   4.452 -0.3505 -0.1805 -0.2772
24687W        W39818   5.160   2.192   2.479  0.0109  0.3351  0.0925
24688W        W39819   4.590  10.505   2.986 -0.0547 -0.1149 -0.0281
24689W        W39820   3.151  15.255   0.466 -0.1272  0.0058  0.1660
24690W        W39821   2.312  15.987   3.509  0.0797  0.4103  0.2344
24691W        W39822   5.051  16.466  13.216  0.2703  0.1085 -0.1284
24692W        W39823  18.560  17.602  10.804 -0.0727  0.1279  0.0675
24693W        W39824  16.210   9.858   4.839 -0.0481  0.0368  0.1107
24694W        W39825   4.295  13.475   9.376  0.4646 -0.1551  0.0772
24695W        W39826  10.490  11.042  11.644 -0.0875  0.0627 -0.5442
24696W        W39827  11.211   4.756   2.607 -0.1776  0.0298 -0.3639
24697W        W39828   9.978  13.680   1.571  0.1758  0.0547 -0.0398
24698W        W39829   5.161  14.777  11.497 -0.0049  0.3350 -0.0079
24699W        W39830   6.990  15.385  14.586 -0.0786 -0.2616 -0.2458
24700W        W39831   0.512   9.599  13.821 -0.2087  0.1805 -0.2341
24701W        W39832   6.779   9.420  10.892  0.2391  0.2117 -0.1009
24702W        W39833  17.975   2.859   1.551  0.1717  0.2631  0.0839
24703W        W39834   4.440  12.651   3.760  0.0056 -0.1284  0.2198
24704W        W39835  14.017   4.683   2.093 -0.0626  0.2515 -0.1654
24705W        W39836  16.013  17.884   1.677  0.3369  0.1724  0.0770
24706W        W39837   8.474   5.369  13.550 -0.0623  0.3064 -0.0530
24707W        W39838   1.865   3.007   1.058 -0.1541 -0.0962 -0.0683
24708W        W39839  15.156  13.608  13.653  0.1421  0.1197 -0.1731
24709W        W39840   9.565  10.662  14.180  0.0487 -0.0894  0.0038
24710W        W39841   4.303   8.716   0.215  0.0672 -0.0615  0.0482
24711W        W39842   9.468  10.989  10.630  0.1545  0.1651  0.1948
24712W        W39843   1.025  14.011  14.065  0.1263 -0.1269  0.0930
24713W        W39844   0.992  12.491   1.917 -0.1310  0.2819  0.0288
24714W        W39845   9.663   4.992  15.706 -0.1707 -0.1531 -0.0538
24715W        W39846   8.260   2.039  11.702  0.1111  0.2111 -0.1084
24716W        W39847  15.199   0.766   2.898 -0.0812 -0.3624 -0.0809
24717W        W39848   9.544   3.822   5.195 -0.2626  0.1161 -0.3255
24718W        W39849  12.969  16.758  11.724  0.0618  0.0667 -0.0206
24719W        W39850  17.769  16.046  11.057 -0.3115 -0.1611 -0.0589
24720W        W39851  11.437  17.488  15.608 -0.0847 -0.1667  0.2873
24721W        W39852  16.197   9.738   0.377  0.0439 -0.0783 -0.1577
24722W        W39853   8.529   0.263   4.578  0.1820 -0.1196 -0.3089
24723W        W39854   9.632   8.484   5.653  0.1303 -0.1043 -0.2830
24724W        W39855   9.586  18.203  15.349 -0.2989  0.1640  0.0933
24725W        W39856  14.650  11.854   0.927  0.2513  0.2562 -0.3254
24726W        W39857   1.276   8.517  10.172  0.0318  0.0575 -0.2645
24727W        W39858   4.922  12.102   0.191 -0.1832 -0.2084  0.0160
24728W        W39859   3.187   0.145  13.766 -0.1099  0.0426  0.1534
24729W        W39860  14.168   0.397  14.113  0.0722 -0.1645  0.4171
24730W        W39861  18.610  11.550   5.428  0.3648 -0.0835  0.2444
24731W        W39862   4.863   1.134   9.082 -0.0402  0.2480 -0.1852
24732W        W39863   5.400  14.305  11.145  0.0163  0.1208 -0.3056
24733W        W39864   1.656  15.181  11.032  0.1718 -0.0883  0.0709
24734W        W39865   5.897  10.649   3.690 -0.2932 -0.3422 -0.0739
24735W        W39866  13.658  15.291   1.514  0.5077 -0.0820 -0.0818
24736W        W39867  18.387   7.432  11.516  0.1203  0.4957  0.0342
24737W        W39868  15.139  17.070  15.561 -0.2587 -0.3064 -0.0984
24738W        W39869  18.024   2.104   4.580  0.1008 -0.1987 -0.0045
24739W        W39870   3.036  17.512   0.303 -0.1471 -0.1600 -0.0081
24740W        W39871   3.195   7.833  12.592 -0.2973 -0.0682  0.1855
24741W        W39872   4.799  10.675   3.859  0.0370  0.1397 -0.2522
24742W        W39873  16.869   7.941   2.092  0.0032 -0.0006  0.0688
24743W        W39874   0.932  16.390   4.510 -0.3094  0.1844  0.2239
24744W        W39875   6.086  10.229  12.261  0.2253 -0.3077  0.1053
24745W        W39876  11.126   1.961   4.740  0.1623 -0.2202  0.0596
24746W        W39877  18.482   9.767   3.154 -0.1300  0.0832  0.2785
24747W        W39878   8.389  14.216  15.237  0.0194 -0.1848  0.1205
24748W        W39879   1.015   5.824  10.544  0.0816 -0.3059 -0.1340
24749W        W39880   0.273   8.097   0.469 -0.1679  0.0704  0.1278
24750W        W39881  16.580   8.883   0.127 -0.1246 -0.1307  0.3099
24751W        W39882  10.409   4.092   4.466  0.0100 -0.1453 -0.1911
24752W        W39883  16.813   0.224  11.946  0.2498  0.2588  0.2904
24753W        W39884  13.879   2.372  13.106 -0.3635 -0.1598 -0.0229
24754W        W39885   0.660  13.460   3.838 -0.2693 -0.2200 -0.2850
24755W        W39886  16.076  17.312   0.894  0.1169 -0.2615  0.0866
24756W        W39887  16.873  10.876   2.861 -0.3069 -0.3642 -0.0294
24757W        W39888   9.275   7.290  12.035  0.0525 -0.0452 -0.1360
24758W        W39889   7.821   2.670  11.277  0.0723 -0.1398 -0.1048
24759W        W39890   3.102   7.114  11.887 -0.0044  0.4625  0.0517
24760W        W39891  17.912  10.861  15.460  0.1493 -0.0169 -0.0377
24761W        W39892  11.130   3.362  13.937  0.3022  0.3193  0.0093
24762W        W39893  12.874   4.541   5.275 -0.0585  0.2519  0.1293
24763W        W39894  13.482   0.013   2.171 -0.1032 -0.0652  0.0238
24764W        W39895  18.575   3.738  11.106  0.0412  0.0648  0.0288
24765W        W39896   8.496   5.769  11.894 -0.0944  0.2504  0.0173
24766W        W39897  16.041  16.196   1.088 -0.1096 -0.1445 -0.1219
24767W        W39898   7.298   2.347   0.168 -0.0581 -0.0800  0.0446
24768W        W39899  13.785  10.998   3.898 -0.0626 -0.1813  0.0998
24769W        W39900   4.490   4.959  15.674 -0.1573 -0.3883 -0.3974
24770W        W39901   3.449   4.334  14.144  0.2351  0.0842  0.1199
24771W        W39902  13.979  15.046  13.739  0.0296 -0.1038 -0.0934
24772W        W39903  12.131   0.261  10.612  0.0418  0.0629 -0.0674
24773W        W39904  15.680   6.160  13.294  0.3683  0.0046 -0.0466
24774W        W39905   8.360  16.126   3.682 -0.0537 -0.0576 -0.1977
24775W        W39906  13.743  15.960  12.354  0.0007 -0.0187  0.0915
24776W        W39907  15.735  16.907   1.818  0.2118  0.2160 -0.0928
24777W        W39908   9.683  13.115   2.319 -0.1922  0.0791  0.0162
24778W        W39909   8.420  17.233  14.115 -0.2712 -0.1927  0.1169
24779W        W39910   6.527  10.537   5.545  0.1207  0.1703  0.1260
24780W        W39911  14.928   0.060   0.538 -0.0365  0.4532  0.0661
24781W        W39912  16.154   1.653  11.753 -0.2864  0.1548  0.0461
24782W        W39913  18.399   0.381   2.944 -0.0281  0.1466 -0.2675
24783W        W39914   0.251  16.407  10.393 -0.2023  0.0697 -0.0555
24784W        W39915   4.389   2.396  10.960 -0.0132 -0.0457  0.2417
24785W        W39916   5.654   2.961   9.507  0.0939  0.2309 -0.0362
24786W        W39917  10.864  18.286   2.278 -0.1198  0.2682  0.1449
24787W        W39918   6.374   2.047  13.972 -0.1949  0.0966  0.0510
24788W        W39919   8.088   4.409  12.043 -0.2858 -0.0726  0.2097
24789W        W39920  12.812   2.403  14.668 -0.0907  0.3791  0.0461
24790W        W39921   4.476   7.867   1.881 -0.1072  0.0506  0.0034
24791W        W39922  13.424   6.799  12.621  0.0364  0.0105  0.2366
24792W        W39923   2.463  11.644   0.858 -0.1561  0.0799 -0.1056
24793W        W39924   5.929  11.899  10.928 -0.1043  0.0544 -0.1520
24794W        W39925   8.887   0.805   2.409  0.1216  0.2006  0.4684
24795W        W39926  15.955  12.373   5.069  0.1546 -0.0092 -0.0544
24796W        W39927  10.796   8.920  13.463 -0.0037 -0.5247  0.1185
24797W        W39928  12.864  13.193  13.006 -0.1551 -0.0552 -0.3344
24798W        W39929   7.672  18.262  11.226  0.1180  0.0743 -0.4249
24799W        W39930  16.109  10.758  11.016 -0.1103  0.1477  0.2311
24800W        W39931  12.616   8.398   3.901 -0.0656  0.3635 -0.1562
24801W        W39932  17.615   1.181   5.543 -0.0727  0.2100 -0.2185
24802W        W39933   5.344  15.363   1.658  0.1107  0.1783  0.1654
24803W        W39934   2.819  13.224  12.345 -0.0711 -0.1771  0.1766
24804W        W39935   5.326  14.984   2.044  0.0640 -0.4151 -0.0713
24805W        W39936   6.964  18.558   2.155  0.0176  0.0424  0.0352
24806W        W39937  10.509   1.495   2.319 -0.3914 -0.0693 -0.0873
24807W        W39938  17.191  12.544  12.609 -0.0389  0.2503  0.2631
24808W        W39939   8.501  11.339   3.286 -0.2156  0.1911 -0.1574
24809W        W39940   4.161   6.672   3.980  0.1981  0.1501 -0.1568
24810W        W39941   1.630  17.278  10.834 -0.1940  0.0140 -0.0351
24811W        W39942  16.982  17.278  15.328 -0.2103  0.1721 -0.1268
24812W        W39943   7.868  12.383   2.418 -0.1540 -0.3200  0.1440
24813W        W39944  15.176   0.507  13.736  0.1786  0.1318  0.0482
24814W        W39945   7.912  14.617  11.759  0.2540 -0.1557 -0.4085
24815W        W39946   7.092  14.956   1.602  0.3618 -0.3035  0.1189
24816W        W39947   4.878   3.522  12.736 -0.3185  0.2765  0.0337
24817W        W39948   8.198   9.531   1.236 -0.1461  0.0153 -0.0155
24818W        W39949   6.324  16.152   2.640 -0.1940  0.0443 -0.0533
24819W        W39950   5.087   9.039   4.314  0.2377 -0.0186 -0.0174
24820W        W39951   3.735   7.270   1.573 -0.1726  0.1531  0.0087
24821W        W39952   7.063  14.597   5.298 -0.1450 -0.0832 -0.0067
24822W        W39953   3.316   8.393   2.371  0.2526 -0.0066  0.2373
24823W        W39954  10.251   1.882   4.586 -0.1651 -0.2216 -0.5230
24824W        W39955  17.343  10.388   0.592 -0.0530 -0.0834 -0.1745
24825W        W39956   3.371  13.260  12.270 -0.0894  0.0964 -0.2206
24826W        W39957  10.199   1.322  11.300 -0.3077 -0.0298  0.0488
24827W        W39958   2.825  17.873  12.279  0.2901  0.1001 -0.2030
24828W        W39959  14.917  15.904  10.978 -0.5344 -0.2079 -0.0375
24829W        W39960   4.706  15.418  15.338  0.0322 -0.0841  0.0063
24830W        W39961   4.799   0.783  13.930 -0.3141  0.1073 -0.1692
24831W        W39962   7.429  14.052  13.957  0.1800  0.0829  0.4125
24832W        W39963  13.219   9.205  15.517  0.0368 -0.0151 -0.1990
24833W        W39964   2.829  13.793  10.547 -0.3058  0.1629  0.1656
24834W        W39965  15.854   7.536  13.095 -0.1099 -0.0713  0.2220
24835W        W39966   7.923  14.877   2.840 -0.1587 -0.0680 -0.1778
24836W        W39967   2.385   4.656  13.420 -0.1217  0.0840 -0.1900
24837W        W39968   9.522  14.984  11.074 -0.0787  0.0197 -0.2116
24838W        W39969   2.898  11.524   0.673 -0.0315  0.0532  0.2532
24839W        W39970   3.581  13.341   2.038  0.3043 -0.0297  0.1132
24840W        W39971  16.353   2.123   0.020  0.0023 -0.1418 -0.2077
24841W        W39972  14.877   9.727   4.389 -0.2417  0.0135  0.2274
24842W        W39973   3.984   2.709   0.485  0.3634 -0.1385 -0.2128
24843W        W39974  17.413   0.293   5.627 -0.1174 -0.3813  0.1000
24844W        W39975  15.079  16.278   4.151 -0.1019  0.0907 -0.2592
24845W        W39976   8.672  11.530  11.749 -0.1049 -0.0942 -0.1575
24846W        W39977   1.559   9.456  13.634 -0.0384 -0.1880 -0.0134
24847W        W39978  16.258   0.425  14.379  0.1068  0.5204 -0.0197
24848W        W39979  14.929  10.351  13.623 -0.2083  0.3154  0.1733
24849W        W39980  18.131  11.309   2.461 -0.3564  0.1349 -0.1603
24850W        W39981  12.814   6.479   4.504 -0.0404 -0.0083  0.0151
24851W        W39982   6.457   7.647   9.591 -0.1476  0.0414 -0.1068
24852W        W39983  17.919  15.519   0.918 -0.1437 -0.1380 -0.0907
24853W        W39984  17.700   7.977   0.059 -0.0618 -0.0388  0.2572
24854W        W39985   2.978   1.733   1.239 -0.1381 -0.3432  0.0259
24855W        W39986  10.999  12.116   6.118  0.0929 -0.0521  0.1459
24856W        W39987  10.740  17.160  11.869 -0.0041 -0.0227  0.1984
24857W        W39988  13.838  10.873  12.479 -0.1372 -0.1335 -0.0351
24858W        W39989  11.681  15.539  12.295  0.1876 -0.1798  0.1621
24859W        W39990  18.024  16.020  13.985  0.1314 -0.4146 -0.1090
24860W        W39991  15.860  16.826  14.176 -0.4437 -0.1524 -0.0178
24861W        W39992   1.496   5.059  13.009 -0.1855  0.1999  0.0077
24862W        W39993   6.408   5.056   0.023 -0.2720  0.2130 -0.1268
24863W        W39994   9.309  16.757   6.316 -0.0594  0.1781  0.0443
24864W        W39995   3.222   3.281   1.728  0.0747  0.1006 -0.4383
24865W        W39996  17.041  14.100   0.032  0.3721 -0.0427  0.0980
24866W        W39997  10.098   9.996  12.527  0.1271  0.1821 -0.0759
24867W        W39998  12.775  13.012   1.446  0.1144  0.1083 -0.0269
24868W        W39999   1.180  11.368  10.898 -0.1401  0.0280  0.3108
24869W        W40000   6.012  12.099  14.483  0.0551 -0.4735 -0.0081
24870W        W40001  16.262   3.599   9.911  0.2850 -0.2098 -0.0455
24871W        W40002   8.073  18.004   0.030 -0.0098  0.0404  0.0694
24872W        W40003  10.811   1.402  14.516 -0.0010 -0.2444 -0.0079
24873W        W40004   0.127   4.177  14.338  0.0933  0.0926  0.1854
24874W        W40005  13.904   4.323   4.020 -0.0643  0.4301 -0.2241
24875W        W40006  11.871  12.500  15.231 -0.0425  0.1079  0.1358
24876W        W40007   9.281   0.559   0.678 -0.0784  0.2195  0.0942
24877W        W40008   8.786   6.029   2.601  0.3019  0.1004  0.2951
24878W        W40009  18.513  16.668  15.716 -0.2798 -0.0569  0.2060
24879W        W40010   9.259   8.077   1.320 -0.0351 -0.2363  0.2528
24880W        W40011  15.161  17.246  12.796 -0.0270 -0.2132 -0.0521
24881W        W40012  15.187  18.701  12.652  0.0126 -0.0117  0.2419
24882W        W40013  17.801   4.201  11.858  0.1670 -0.0382  0.0309
24883W        W40014   9.640  16.071   0.775 -0.2164  0.2034  0.0419
24884W        W40015   0.566   8.335  12.848 -0.1101  0.0108 -0.4205
24885W        W40016   7.607   1.111   4.983 -0.0978 -0.0468 -0.1472
24886W        W40017  12.957  18.083  10.923 -0.1451  0.4233  0.1427
24887W        W40018  11.727   8.389   2.335 -0.4147  0.0161  0.1105
24888W        W40019  10.143  15.172  13.197 -0.0230 -0.1665 -0.2230
24889W        W40020   1.525   5.860   3.246 -0.1339  0.1922  0.3075
24890W        W40021   1.865   5.841  13.521 -0.0864  0.0977 -0.1245
24891W        W40022  15.753   2.609   1.125  0.1269 -0.1862 -0.0215
24892W        W40023   0.955   6.857  10.542  0.0804  0.1697  0.0053
24893W        W40024  14.329  14.249   5.793 -0.1423 -0.3932 -0.0594
24894W        W40025  11.673  17.289   0.271  0.1934  0.0836 -0.1488
24895W        W40026  11.211   5.377   4.201 -0.1853  0.1258 -0.2991
24896W        W40027   1.771   6.482  14.163 -0.1060 -0.0106  0.0897
24897W        W40028   8.333  16.518   2.386  0.3196  0.0647 -0.2780
24898W        W40029  15.288   6.041   4.159 -0.2263 -0.0881 -0.3704
24899W        W40030   5.131   7.151   1.826 -0.0797 -0.1321 -0.1329
24900W        W40031  13.871  13.791   3.537  0.0178  0.0403 -0.2281
24901W        W40032  14.595  15.045  12.385 -0.0106 -0.0876  0.1791
24902W        W40033  17.171  11.068   1.046 -0.1123  0.0592 -0.3226
24903W        W40034  15.352  18.734   3.465 -0.1058  0.0419 -0.3125
24904W        W40035   6.862   5.296  15.036 -0.0887 -0.0648 -0.5067
24905W        W40036  16.479  14.830   1.292 -0.1664 -0.0124  0.1820
24906W        W40037  12.673   1.478  14.459  0.0779 -0.0303 -0.2475
24907W        W40038   0.419   6.141  11.960  0.3277  0.0389  0.0191
24908W        W40039   5.716   4.555  14.786 -0.0982  0.0774 -0.1035
24909W        W40040  16.400  14.672   5.002 -0.2886 -0.2969 -0.3044
24910W        W40041  15.315   5.399  11.001 -0.2359  0.2554 -0.0093
24911W        W40042  11.538  14.879  13.028  0.1766  0.1656 -0.2638
24912W        W40043   9.761  15.405  15.391 -0.4521 -0.0036 -0.0817
24913W        W40044  10.440  15.815   0.457  0.1910  0.1943 -0.0785
24914W        W40045   5.101  18.617  13.511 -0.1536  0.1726  0.2132
24915W        W40046   4.055  12.887  14.680  0.4421 -0.2987 -0.2782
24916W        W40047   0.352   8.330   2.580  0.0497 -0.2390 -0.0510
24917W        W40048  12.598  11.323  14.689 -0.0285 -0.1410 -0.1473
24918W        W40049   0.360  11.863   0.182 -0.1925 -0.0004  0.3553
24919W        W40050   9.380  17.294   1.016 -0.0160  0.0557  0.1592
24920W        W40051   0.886   7.941   0.743 -0.2570  0.1353  0.1952
24921W        W40052   0.754   4.073  10.907  0.1455 -0.0777  0.3785
24922W        W40053   0.370   2.796  13.771  0.0072 -0.0341  0.1819
24923W        W40054  14.101  13.378  12.161  0.0097 -0.0823 -0.1829
24924W        W40055   5.576   7.900   4.750 -0.2161  0.0951 -0.0893
24925W        W40056  10.928   3.476  15.244  0.3505  0.0467 -0.0765
24926W        W40057   3.377   3.963   4.725  0.1134  0.3526  0.0868
24927W        W40058   4.986   7.599   3.947  0.2493  0.3123  0.0850
24928W        W40059   2.309   4.931  10.349 -0.1579 -0.0273  0.1968
24929W        W40060   9.471  15.688   0.444  0.2691  0.2386 -0.1926
24930W        W40061   6.618   4.721  12.085 -0.0457 -0.0430 -0.0087
24931W        W40062   4.805   2.935  10.372  0.2936 -0.0048 -0.2395
24932W        W40063   1.408  15.889   1.471 -0.2203 -0.0633 -0.0255
24933W        W40064   1.867   0.639  14.171 -0.2080 -0.2021  0.0853
24934W        W40065  12.619  17.632  10.357  0.2389 -0.0122  0.0214
24935W        W40066   0.076   2.619   2.080  0.0007  0.0428 -0.1414
24936W        W40067  12.261   6.728  15.074  0.1339 -0.2168 -0.1785
24937W        W40068  13.859   0.461  11.441  0.0760 -0.3250  0.2010
24938W        W40069   1.921  10.713   2.300 -0.5551 -0.1511 -0.0478
24939W        W40070   2.137  13.043   0.473  0.0914 -0.2815 -0.2721
24940W        W40071  10.839  17.976  11.844  0.2078  0.3099  0.0071
24941W        W40072   9.325   7.404   3.040  0.2324 -0.0081 -0.2243
24942W        W40073  12.585   8.063   0.893  0.2763 -0.1662 -0.0200
24943W        W40074  12.870  10.313  13.954  0.0355 -0.0614  0.2751
24944W        W40075  10.764   4.193   4.099 -0.4410 -0.2274  0.3560
24945W        W40076   3.359   6.348  12.305  0.2093  0.3078 -0.1177
24946W        W40077  13.493   6.416   0.577  0.0423  0.0180 -0.0230
24947W        W40078   3.405   0.199   3.555  0.3247 -0.0093  0.0754
24948W        W40079   2.704   7.400  14.219 -0.2824  0.1490 -0.0085
24949W        W40080   3.128  12.354  12.136 -0.3561  0.0074 -0.1703
24950W        W40081   0.173  13.972   3.851  0.0417 -0.0437 -0.0346
24951W        W40082  11.577   6.831   3.131 -0.0062  0.2686 -0.1106
24952W        W40083  13.415   5.976  13.631 -0.0486 -0.1346 -0.0785
24953W        W40084   6.987  12.464   1.081 -0.2941 -0.1883 -0.3151
24954W        W40085   4.027  13.085  15.499  0.2200  0.1467 -0.2409
24955W        W40086   3.297   2.928   2.077  0.0150  0.2872  0.0425
24956W        W40087   8.862  17.258   2.486 -0.1645  0.0534  0.0329
24957W        W40088   4.905  18.380   5.058 -0.0119 -0.2734  0.3725
24958W        W40089  10.376   1.098   2.028  0.1556  0.4182 -0.0106
24959W        W40090  10.816  13.384   0.699  0.0865 -0.4171  0.1425
24960W        W40091  15.608  15.022  11.130 -0.2324  0.1926  0.3109
24961W        W40092  16.307  12.628  10.289  0.0134  0.1511  0.1150
24962W        W40093   4.057   5.083  13.165  0.3730 -0.0672 -0.1978
24963W        W40094  12.680  17.994   1.767 -0.1036 -0.0305 -0.0527
24964W        W40095  16.349   7.073  10.897 -0.2075  0.0425 -0.1091
24965W        W40096  18.712   9.474  14.560 -0.1968  0.0094  0.1012
24966W        W40097  18.338   1.782   6.002 -0.2964 -0.2216  0.0453
24967W        W40098   7.137  12.227  15.532  0.2372  0.5273  0.0492
24968W        W40099   0.047   6.135   2.816 -0.0532 -0.1287 -0.0101
24969W        W40100   9.690   0.969   4.067  0.0228  0.0652  0.1860
24970W        W40101  12.055   2.595  13.359 -0.1353  0.3619  0.1299
24971W        W40102   1.890  16.984  12.923  0.1348 -0.1023  0.0427
24972W        W40103  12.615  16.540  13.870  0.0843  0.1380  0.2920
24973W        W40104  13.473   0.559   2.134 -0.0950 -0.0506 -0.2194
24974W        W40105   3.127   3.158   3.763 -0.2496 -0.0796  0.3640
24975W        W40106   5.365   3.903  13.576  0.1119 -0.2137 -0.0011
24976W        W40107   0.058   5.674   0.122 -0.0590 -0.1321 -0.3136
24977W        W40108   6.312  16.622  11.865  0.1258 -0.2810 -0.3318
24978W        W40109   1.759   6.799  11.157  0.0092 -0.3351 -0.2232
24979W        W40110   1.832   4.897  10.263 -0.1447  0.1264  0.2675
24980W        W40111   9.685   6.184  14.116  0.1321 -0.0734  0.0457
24981W        W40112   6.810   3.066   5.196 -0.0287 -0.2670 -0.3571
24982W        W40113  13.152  12.477   3.152  0.0931 -0.5020 -0.4909
24983W        W40114   0.764  14.415   1.780  0.1495  0.3232 -0.1870
24984W        W40115  10.839  16.981   5.085 -0.2067  0.2618  0.3746
24985W        W40116  18.001   8.428  14.511 -0.0032  0.1206 -0.2838
24986W        W40117  10.671   7.340  10.204  0.0897  0.2100 -0.2648
24987W        W40118   4.891  18.716   3.760  0.5787  0.0041 -0.1974
24988W        W40119   0.752  10.270   4.166  0.3111 -0.0916 -0.2913
24989W        W40120   7.191  15.809  10.711  0.0816  0.2569 -0.0458
24990W        W40121  16.953   3.695  13.405 -0.1362  0.2416 -0.1984
24991W        W40122  17.845   8.697  11.738  0.1519 -0.0782  0.0530
24992W        W40123  16.296  10.580   1.503 -0.0584 -0.2040 -0.2213
24993W        W40124  14.750   3.614   2.014 -0.0821  0.0603  0.1910
24994W        W40125   5.029   4.080   0.103 -0.2725 -0.0172  0.3611
24995W        W40126   5.154   7.776  12.552 -0.2048  0.1619  0.2833
24996W        W40127  15.532  16.264  13.298 -0.0706  0.1670 -0.2946
24997W        W40128   9.926   5.693  12.763 -0.0554 -0.2489 -0.1244
24998W        W40129   5.700  10.253   1.953 -0.0588 -0.0142  0.0355
24999W        W40130  15.179  13.685  12.979 -0.2426 -0.3906 -0.0671
25000W        W40131   3.852  10.168   1.543 -0.0443 -0.0470 -0.0493
25001W        W40132   3.353   7.464  13.955 -0.3983 -0.2990 -0.1935
25002W        W40133  13.718   2.179  10.911 -0.1327  0.3560  0.1959
25003W        W40134  13.182  15.731  13.532  0.0834 -0.0652 -0.0245
25004W        W40135   3.530  16.203  12.970 -0.1227  0.0426 -0.2318
25005W        W40136  10.734   3.574  14.353  0.2715  0.0134 -0.0503
25006W        W40137  14.318   6.425  14.132  0.3024  0.0533  0.4757
25007W        W40138   0.978  17.039   4.350  0.1403 -0.2019 -0.1455
25008W        W40139   4.312   9.797   1.736 -0.2997  0.0842  0.0386
25009W        W40140  15.463  13.248   3.757 -0.2192  0.0732  0.3331
25010W        W40141  10.107   0.776   4.355  0.0203 -0.0479 -0.1225
25011W        W40142  18.383   2.031   0.901 -0.0818  0.2623  0.1300
25012W        W40143   4.442  13.679  12.062  0.1953 -0.2518  0.1662
25013W        W40144  14.314  11.321  15.515  0.1719  0.0133 -0.1409
25014W        W40145   2.186   4.978   0.747  0.1731 -0.1285 -0.0466
25015W        W40146  18.477  13.287  12.187 -0.1263  0.3255 -0.1288
25016W        W40147  12.303   3.152  13.961  0.3422  0.0119 -0.1976
25017W        W40148  16.522   8.099  12.617  0.0284 -0.0865  0.0056
25018W        W40149   3.215  13.463   3.398 -0.2217 -0.0546 -0.0832
25019W        W40150   2.520   1.565   1.126  0.1940  0.0326  0.0633
25020W        W40151   7.060  13.188  12.714  0.0099 -0.2392  0.2591
25021W        W40152   2.668   2.444   1.530 -0.0161  0.0070 -0.1831
25022W        W40153   0.181   7.755  10.653  0.3635  0.3648  0.1049
25023W        W40154   9.764  17.067   0.196 -0.2309  0.1643  0.0265
25024W        W40155  15.208   8.914   2.670 -0.2081 -0.4270  0.1975
25025W        W40156   3.205  10.519  14.957  0.1290 -0.1540 -0.0639
25026W        W40157  11.948   5.314   5.476  0.0651 -0.1389 -0.2181
25027W        W40158  10.871   7.353   5.208 -0.2494  0.1832 -0.0206
25028W        W40159   6.086   9.741   3.149  0.1986 -0.1467  0.0842
25029W        W40160   5.761   7.305  10.456  0.1975 -0.0931 -0.2915
25030W        W40161   2.669   7.116  13.131 -0.2856 -0.1962 -0.2109
25031W        W40162   6.309  14.777   2.442 -0.1079 -0.1523 -0.0935
25032W        W40163   2.311  10.735  14.491  0.1100 -0.0731  0.0310
25033W        W40164  10.272  17.140   0.389  0.3415 -0.1534  0.1360
25034W        W40165   8.527   2.752   9.673 -0.0777 -0.1047 -0.3041
25035W        W40166   2.570   8.901   9.851  0.0244 -0.0805 -0.0834
25036W        W40167   0.073  14.368   5.481  0.0387  0.4258 -0.0696
25037W        W40168   3.483  10.554   2.765 -0.0161 -0.0212 -0.1129
25038W        W40169   1.296  16.618  13.543 -0.1538 -0.1688 -0.3734
25039W        W40170   6.769  16.376   3.416 -0.4733 -0.2039 -0.0390
25040W        W40171   8.286   6.691  12.610  0.0138 -0.4178  0.1287
25041W        W40172   3.615  15.611  15.376 -0.1599  0.0225 -0.2626
25042W        W40173   9.020   3.107  15.759  0.3400 -0.2410 -0.1756
25043W        W40174   3.746  12.461  12.798 -0.0253  0.1425  0.1768
25044W        W40175  14.778   3.063   1.943  0.1354 -0.0907  0.0505
25045W        W40176  15.922   1.460   5.753 -0.0842 -0.0682 -0.4136
25046W        W40177  18.745   9.706   5.545 -0.2428  0.0196 -0.0052
25047W        W40178   8.536   6.429   5.986  0.1148  0.3234 -0.2217
25048W        W40179   5.218   7.847  14.717  0.0377 -0.0255 -0.0835
25049W        W40180   6.821  12.970   2.367 -0.0694 -0.0971  0.0217
25050W        W40181  14.146  10.032  13.293  0.2507 -0.1004 -0.3422
25051W        W40182  11.584   5.739   0.892  0.1040 -0.0591  0.2784
25052W        W40183   1.859   8.035   0.860  0.1934  0.2408  0.1986
25053W        W40184   0.087   3.936   4.515  0.0614  0.0798  0.0736
25054W        W40185  17.972  14.849  15.117 -0.0169 -0.3494 -0.2492
25055W        W40186   5.350   2.116   9.314  0.0232  0.3073  0.0273
25056W        W40187   4.017   2.317   3.238 -0.1048 -0.0874  0.2875
25057W        W40188  10.605  17.999  10.257 -0.5292  0.2436  0.1469
25058W        W40189   3.361   0.204   1.075  0.0802  0.0288 -0.1200
25059W        W40190   6.259  12.717  15.739 -0.2159  0.1487 -0.0864
25060W        W40191   7.728   7.216   3.017 -0.0354 -0.0577 -0.0075
25061W        W40192  11.711  10.623  12.555 -0.2596 -0.1767  0.0528
25062W        W40193  10.808  14.940   0.283 -0.2654 -0.1498 -0.2539
25063W        W40194   6.284  10.496   1.248 -0.0555  0.2142  0.1416
25064W        W40195   2.088  10.549   3.190  0.0269  0.1989  0.4805
25065W        W40196   0.734  17.760  11.962 -0.3494 -0.0298 -0.0763
25066W        W40197  11.173   7.637   5.544  0.0750 -0.3572 -0.0882
25067W        W40198   0.774  10.673   5.309  0.0434  0.0093 -0.0439
25068W        W40199   2.712   3.406   4.174 -0.0307 -0.0354 -0.3069
25069W        W40200   7.701  10.733   3.088 -0.1865 -0.0669  0.1736
25070W        W40201  16.978  17.847   0.685  0.1085  0.1512 -0.1818
25071W        W40202  13.736  10.273   3.115 -0.1082 -0.5469  0.1457
25072W        W40203  10.312   9.423  13.603  0.0454 -0.0869 -0.0658
25073W        W40204   3.064   4.460  14.654 -0.2122 -0.0614 -0.1208
25074W        W40205  16.450   1.992   2.035  0.2435  0.2340  0.0300
25075W        W40206  11.861  14.421   5.100  0.2252  0.2470  0.0454
25076W        W40207   0.799  14.568   4.062 -0.1607 -0.0385 -0.0248
25077W        W40208   0.661  12.884   3.665  0.1080 -0.0983 -0.3232
25078W        W40209   4.540   6.011   4.676 -0.1382 -0.1950 -0.2330
25079W        W40210   1.189   2.223  15.046  0.3195 -0.1526 -0.2488
25080W        W40211  15.282   9.992  15.756  0.1718 -0.0702 -0.1860
25081W        W40212   0.662   8.489  11.838 -0.0943 -0.1045 -0.2640
25082W        W40213  14.703   0.223   1.423  0.0051  0.2936 -0.2364
25083W        W40214   7.884   3.482  10.400 -0.4218 -0.3235  0.3694
25084W        W40215  15.683  16.691   4.813  0.0884 -0.0537 -0.0554
25085W        W40216   6.561  14.708  10.941 -0.0349  0.0576 -0.1280
25086W        W40217   2.842  18.011   0.216 -0.0664  0.0246  0.0955
25087W        W40218  16.925   2.545  14.227 -0.0551 -0.0635 -0.0155
25088W        W40219   5.748   3.556  12.107 -0.0886 -0.1206 -0.0442
25089W        W40220  17.751  13.629   0.618  0.1105 -0.1328 -0.0942
25090W        W40221  10.159   3.711   0.409 -0.4004  0.1057  0.1134
25091W        W40222  12.022   2.425  11.593  0.2188 -0.0143  0.1430
25092W        W40223  13.744   0.782  13.406 -0.3809  0.0926  0.0068
25093W        W40224  11.945  11.696  14.297  0.0774 -0.0783 -0.0557
25094W        W40225   9.525   0.031  14.517  0.1369  0.3393  0.0002
25095W        W40226  14.328  11.030  12.455  0.2879  0.0564 -0.3101
25096W        W40227  13.876   7.479  13.297 -0.0367  0.0193 -0.1259
25097W        W40228   8.898  17.363   4.467 -0.2666 -0.0572 -0.0873
25098W        W40229   3.525  14.965  15.430  0.1863 -0.2075 -0.3701
25099W        W40230  10.789  18.682   2.788  0.4310 -0.1803 -0.1651
25100W        W40231   1.863  13.067  11.224  0.1934 -0.1821  0.0614
25101W        W40232  13.827   0.864  13.901  0.4723  0.4406 -0.0209
25102W        W40233  14.823   8.510   0.285 -0.0834  0.1079  0.0084
25103W        W40234   0.911  17.106  13.982 -0.1214 -0.0351 -0.0512
25104W        W40235   1.858  11.042  14.686  0.1697 -0.2563  0.0223
25105W        W40236   4.576  11.793   3.748 -0.0972  0.3346  0.0929
25106W        W40237   0.416  17.475   4.547 -0.1080  0.1085  0.1351
25107W        W40238  15.891   7.089   0.753 -0.0620  0.0343  0.2727
25108W        W40239  14.955  16.417   1.061  0.0799 -0.0899  0.3127
25109W        W40240  13.403   9.894   2.275 -0.1236  0.0816 -0.0373
25110W        W40241  15.330   2.710   3.550 -0.0930 -0.1966 -0.0674
25111W        W40242  18.274   6.100   0.865 -0.0612  0.1351 -0.4306
25112W        W40243   6.192  17.027   1.660 -0.0424  0.1081  0.0245
25113W        W40244   6.579   4.724  14.352  0.0632  0.1695 -0.2792
25114W        W40245  18.465   7.572   4.410  0.1749  0.3115  0.3000
25115W        W40246  15.820  15.607   4.213 -0.0746 -0.2193  0.1108
25116W        W40247   1.765   1.919   1.641  0.1705 -0.2140  0.2633
25117W        W40248   2.193  16.880  15.295  0.1273  0.0153 -0.3340
25118W        W40249   7.159  17.572   3.950 -0.1882 -0.2206 -0.0572
25119W        W40250   2.768  12.073   0.817  0.2630  0.1133 -0.1905
25120W        W40251  15.209  10.169  14.424 -0.0623 -0.2796 -0.3573
25121W        W40252   7.322  12.400  14.383 -0.4439  0.0628  0.0146
25122W        W40253   8.199   3.129  12.753  0.0981  0.1858 -0.2619
25123W        W40254  13.012  16.521  12.789 -0.0902  0.1744  0.1391
25124W        W40255  10.544   8.288   0.270 -0.1463 -0.2427 -0.0107
25125W        W40256  10.266   5.415   2.135  0.0711 -0.0100 -0.3146
25126W        W40257  10.224   8.475   2.677  0.1710  0.1347  0.2920
25127W        W40258  16.966   5.503  10.445  0.1694 -0.0525  0.0978
25128W        W40259   3.348  13.827  11.374  0.0028  0.2289  0.1553
25129W        W40260  18.075  13.005  12.990 -0.3304  0.1293  0.0281
25130W        W40261  15.166   6.095   0.983  0.0380  0.1007 -0.0947
25131W        W40262  10.066   1.807   2.249 -0.1398 -0.0590  0.3573
25132W        W40263   4.404   1.570  15.441  0.0979 -0.0481 -0.0248
25133W        W40264  18.358   7.516   1.276  0.1828  0.1233 -0.0677
25134W        W40265  14.762  17.621  14.749  0.0813  0.0624  0.0335
25135W        W40266   8.918   3.741  10.947 -0.3464  0.0536 -0.2286
25136W        W40267  12.818   5.018  14.306 -0.1539  0.1426 -0.2169
25137W        W40268   9.103   4.129  11.281 -0.0262  0.1154  0.1827
25138W        W40269  16.227   3.636  14.801 -0.2541  0.1813  0.0665
25139W        W40270  14.110   0.834  11.755  0.0412  0.1420 -0.5542
25140W        W40271   2.769   1.206  13.956  0.1955 -0.2975 -0.0739
25141W        W40272  16.340  12.987   2.185  0.0321 -0.3649  0.0387
25142W        W40273   8.433  11.694  14.088  0.1157 -0.2299 -0.3168
25143W        W40274  16.410   0.567   0.640 -0.2267  0.1459  0.1781
25144W        W40275  12.193   9.834  12.501 -0.1708  0.1533 -0.0262
25145W        W40276  14.026   5.595   0.925 -0.0361 -0.0784  0.3665
25146W        W40277  10.493   5.572   3.628 -0.1417 -0.1070  0.3514
25147W        W40278   2.324   4.489  12.660  0.3375  0.3247 -0.1750
25148W        W40279  16.912   6.125  11.174  0.0391  0.2207 -0.0220
25149W        W40280  16.050  17.516  13.242  0.2624  0.1739 -0.3569
25150W        W40281   6.629   0.521  12.156  0.2524 -0.1431 -0.0711
25151W        W40282   8.811   0.709  12.940  0.0636 -0.0864  0.0928
25152W        W40283   9.697   1.058   0.545 -0.1916 -0.0572 -0.0914
25153W        W40284  12.942   9.629   1.437  0.0925 -0.0990 -0.0444
25154W        W40285   4.253  11.983  11.085 -0.0350 -0.2341 -0.0728
25155W        W40286   0.314  18.004  15.102 -0.2074  0.0037  0.1049
25156W        W40287   5.984  11.959   0.404  0.4051 -0.0585  0.3141
25157W        W40288  11.818   0.056  11.905  0.0676 -0.2476 -0.2942
25158W        W40289  13.455  14.337   1.771 -0.2484 -0.1972  0.2015
25159W        W40290   2.627  16.583   9.766 -0.0532 -0.2163  0.3977
25160W        W40291  17.074  14.508   0.554  0.2834  0.4716  0.0946
25161W        W40292   8.314   1.734   5.300  0.2491 -0.0772 -0.3041
25162W        W40293   6.535   3.684  12.856  0.2945  0.1354  0.2508
25163W        W40294  11.653   1.329   3.667  0.1768 -0.0814 -0.1264
25164W        W40295  13.901   8.605   4.379 -0.0996  0.2454  0.3749
25165W        W40296  16.069   3.393  12.465 -0.3668 -0.3641 -0.0914
25166W        W40297  10.774  13.284  13.277  0.3830  0.4323  0.2831
25167W        W40298   4.557  16.839  12.634  0.1118  0.1920  0.1586
25168W        W40299  14.166  14.198   0.128 -0.2105  0.4213  0.1760
25169W        W40300  10.102   8.672  11.728 -0.2191 -0.1621 -0.3463
25170W        W40301  11.618   6.799  11.902  0.1538  0.4171 -0.0427
25171W        W40302  15.555   6.261   1.320 -0.2455 -0.0369  0.1467
25172W        W40303  14.088  15.266   4.240 -0.0052 -0.0897 -0.1752
25173W        W40304  13.770   3.553   1.773  0.0247 -0.1203  0.1272
25174W        W40305  15.176   4.421  11.780 -0.0503 -0.0225 -0.0344
25175W        W40306  14.708  18.582  13.717  0.1118  0.0170  0.1095
25176W        W40307  14.536   7.413   3.792  0.1710 -0.0592 -0.0629
25177W        W40308   7.957   5.470   2.627  0.2876 -0.1841  0.0524
25178W        W40309  12.539   6.795   1.314 -0.0736 -0.0612  0.0486
25179W        W40310   5.779  14.005  14.349  0.0563 -0.0728 -0.2713
25180W        W40311   3.210  17.630  13.878 -0.0548  0.2407 -0.0831
25181W        W40312   4.133   3.467   2.327  0.0756  0.2102 -0.0061
25182W        W40313   7.006   3.528  12.910  0.1628 -0.4929  0.3494
25183W        W40314  18.196   1.145   3.261 -0.2070 -0.1358 -0.4344
25184W        W40315   5.173   3.886   4.528  0.0310 -0.0586 -0.0296
25185W        W40316  11.637   2.349   3.548 -0.0174  0.0934 -0.1556
25186W        W40317  11.980  12.907  13.364  0.1516  0.0943 -0.2622
25187W        W40318   3.292   5.173  13.928 -0.1609 -0.0246 -0.1551
25188W        W40319   1.387   2.855  13.109  0.1544 -0.0252  0.3120
25189W        W40320  13.761  10.409  14.041 -0.0772 -0.0295 -0.0583
25190W        W40321   7.245   4.616   4.452  0.0283  0.0845 -0.0184
25191W        W40322   8.644  12.914  14.586 -0.0038  0.0613  0.2584
25192W        W40323   0.608  15.906  10.746 -0.0286 -0.2217 -0.3629
25193W        W40324   1.123  14.096  14.829  0.3492  0.1257  0.0892
25194W        W40325   4.435  16.878   3.009 -0.1489 -0.2155 -0.2368
25195W        W40326   0.829  16.465  15.515  0.0281 -0.0846 -0.2357
25196W        W40327   4.879  16.155   2.258  0.0376 -0.2676 -0.0753
25197W        W40328  17.918  11.703  14.256  0.3252 -0.2408 -0.0089
25198W        W40329   1.367  13.545  13.964  0.0287 -0.4574  0.1591
25199W        W40330   1.483  11.046   2.249  0.0966 -0.4811 -0.1285
25200W        W40331   7.760  16.638   1.794  0.1677  0.2065  0.0363
25201W        W40332   3.867  12.638   4.273  0.1847  0.4339  0.0741
25202W        W40333  12.543  11.599   3.015 -0.0524  0.1225 -0.0966
25203W        W40334   4.867  12.015  10.909  0.0386  0.0363 -0.2047
25204W        W40335   0.180  15.630  14.827 -0.2332  0.2482  0.2769
25205W        W40336  15.720  17.697  14.769 -0.0845 -0.2530 -0.2831
25206W        W40337   6.745  12.037   0.272  0.2049 -0.1391  0.1423
25207W        W40338   1.081   9.680  14.403 -0.0295 -0.1296  0.1710
25208W        W40339  14.247  13.670  14.642  0.0494  0.2014 -0.0447
25209W        W40340   7.786  14.572   0.584 -0.1505 -0.1851  0.1160
25210W        W40341  17.733   8.271  12.017  0.1412  0.1391  0.0261
25211W        W40342  16.332  11.519  14.144  0.2033 -0.1329 -0.1052
25212W        W40343  12.918   0.949   3.247 -0.0587 -0.0568 -0.0470
25213W        W40344  13.986   0.962   1.912 -0.0514 -0.1092 -0.3888
25214W        W40345   8.468   7.403   5.467  0.0765 -0.2476 -0.1679
25215W        W40346  16.112   5.461  14.280 -0.0742  0.2063 -0.0078
25216W        W40347   8.962  17.869  11.683  0.0587  0.0731 -0.0556
25217W        W40348   5.022  10.183   3.121 -0.0449 -0.0652  0.1738
25218W        W40349  16.676  16.863  11.515  0.0324  0.2789  0.1132
25219W        W40350   1.307   9.137  10.581 -0.1620 -0.1754 -0.1515
25220W        W40351  10.300   7.979  10.743 -0.0891  0.0149  0.2773
25221W        W40352  10.779   1.194  11.576  0.0798 -0.0169 -0.3884
25222W        W40353  13.950  14.455   1.507  0.1705 -0.2830 -0.0522
25223W        W40354  17.787  16.385   3.711  0.0621 -0.1317  0.2638
25224W        W40355   7.142   1.359  14.306 -0.0859 -0.1057 -0.1969
25225W        W40356  11.368  13.517  10.874  0.1378  0.1996  0.1581
25226W        W40357   0.061   8.416  14.691  0.3301 -0.1818 -0.1150
25227W        W40358  13.654   6.242   1.914 -0.3533  0.0145  0.0940
25228W        W40359   2.935   9.425  14.084 -0.0186  0.0046 -0.0147
25229W        W40360   1.504  14.914   1.447  0.0504  0.2876  0.1884
25230W        W40361  18.311  15.349   5.943 -0.1630  0.3198 -0.3641
25231W        W40362   9.920   9.818  11.073 -0.0578 -0.0108  0.2794
25232W        W40363   7.236   0.580   3.978  0.1311  0.0487 -0.0049
25233W        W40364   2.342  16.483   2.001  0.0489  0.0497 -0.2623
25234W        W40365  13.328  14.234  13.775  0.1115 -0.1496  0.1649
25235W        W40366  16.011  13.480  14.564 -0.0832 -0.0688 -0.1201
25236W        W40367   4.369   2.523   2.251  0.0381 -0.2301 -0.0955
25237W        W40368  13.596   4.634   2.986 -0.0291  0.0970 -0.1700
25238W        W40369  18.615   3.724   5.938 -0.2173 -0.0067  0.2769
25239W        W40370  11.271  16.245  15.742 -0.0429 -0.0824 -0.1186
25240W        W40371  18.216  13.504   0.866  0.3617  0.1643  0.0332
25241W        W40372   8.447   3.546   5.228 -0.2585 -0.1220 -0.0969
25242W        W40373   6.691   0.065   3.279  0.1618 -0.1283  0.2230
25243W        W40374  11.231   5.227   4.713  0.3277  0.0581 -0.0680
25244W        W40375  10.397  10.146   4.425 -0.1373  0.0601 -0.0498
25245W        W40376  15.336   7.492   1.680 -0.1517  0.3235 -0.2534
25246W        W40377   3.311   8.810  15.399  0.2788  0.2748 -0.0637
25247W        W40378   5.670  10.776  12.763 -0.2486  0.2466  0.0156
25248W        W40379   9.151   2.796   0.384 -0.0511  0.0999  0.1127
25249W        W40380   6.999  10.362   5.831 -0.2274 -0.0527 -0.0181
25250W        W40381  18.098  15.597  15.722 -0.0069 -0.1935 -0.1735
25251W        W40382   8.868   6.326  14.002  0.0273 -0.0842 -0.2363
25252W        W40383  15.763  12.098   3.138 -0.1097 -0.1653 -0.2071
25253W        W40384  15.710   3.883  15.357  0.1033 -0.1031 -0.1285
25254W        W40385  10.975  13.935  12.783  0.0347  0.1406  0.0428
25255W        W40386   4.229  15.571  15.281 -0.4232 -0.3269 -0.0631
25256W        W40387  10.737  12.546   4.573  0.0150 -0.0250 -0.1459
25257W        W40388  10.549  12.106   2.398 -0.0406 -0.0480 -0.0675
25258W        W40389   9.947   0.734   4.831 -0.0768 -0.0898 -0.2595
25259W        W40390   0.299  17.529   0.187  0.2430  0.1161  0.2954
25260W        W40391  10.224  16.866  10.453 -0.0442  0.2263  0.0771
25261W        W40392  18.490   6.977  14.523  0.1203 -0.2294 -0.1671
25262W        W40393   7.867   7.879  12.638  0.0525 -0.2168  0.0767
25263W        W40394  18.295   6.606  10.930  0.1802  0.1784 -0.1160
25264W        W40395  14.632   9.279   0.303  0.1452  0.1789  0.0225
25265W        W40396   1.137   5.196  12.182  0.0578  0.0852  0.1277
25266W        W40397   1.247   8.026  10.064 -0.0894 -0.0496 -0.3015
25267W        W40398  14.203  10.709  14.047 -0.2374  0.0006 -0.2038
25268W        W40399  10.441   0.052  13.302  0.0027  0.1915  0.0632
25269W        W40400  16.353   6.643   0.452  0.0057  0.4804  0.0837
25270W        W40401  13.939  12.068   0.055 -0.0016  0.1011 -0.0421
25271W        W40402  16.996   6.913  11.534  0.3273  0.0383  0.1597
25272W        W40403   2.822  13.552  15.717  0.2572  0.0650 -0.1856
25273W        W40404   4.091  10.060   4.036  0.0461 -0.2791  0.0402
25274W        W40405  16.012   5.725   2.336 -0.0207  0.0763 -0.1768
25275W        W40406   1.202  10.503   2.895 -0.1461  0.3718  0.3508
25276W        W40407   6.193  16.764   0.294 -0.4650 -0.1760  0.1395
25277W        W40408   7.724  11.591   0.936  0.0903 -0.1146  0.4569
25278W        W40409   1.000  15.974  12.809  0.0838 -0.3802 -0.2131
25279W        W40410   1.180   0.068  15.666  0.2643  0.2013  0.0299
25280W        W40411   8.656   9.274   5.549  0.2392 -0.3051 -0.2492
25281W        W40412   0.226   2.127   3.564  0.0215 -0.0405  0.2216
25282W        W40413   5.440  11.388   3.515 -0.1109  0.0218 -0.5067
25283W        W40414  14.440   4.498  12.369 -0.1373 -0.0094 -0.0301
25284W        W40415   2.569  16.693  11.654  0.2046  0.0369 -0.2771
25285W        W40416  17.085   8.873   2.508 -0.1549  0.1459  0.2191
25286W        W40417   7.484  15.174  13.269  0.1730 -0.1995 -0.0343
25287W        W40418  17.237   0.387  13.878 -0.1906 -0.3346  0.1075
25288W        W40419   3.799  17.196   4.124 -0.0669  0.2456  0.0654
25289W        W40420   2.087  11.560   1.866  0.1038  0.0452  0.0323
25290W        W40421  17.078  18.210  14.714 -0.1823  0.2157  0.0968
25291W        W40422   5.559  18.385   3.816  0.2154  0.2250  0.3749
25292W        W40423   9.016   0.063   5.451 -0.1937 -0.0668  0.1312
25293W        W40424   2.406   6.226  11.835 -0.0807  0.1203  0.0240
25294W        W40425   3.265  17.773   2.957 -0.2196 -0.1561 -0.1984
25295W        W40426  14.688   8.763   2.589 -0.3043 -0.0975  0.2044
25296W        W40427  16.737   9.735   0.477  0.3258 -0.1852  0.0857
25297W        W40428  10.288  11.298  11.974  0.2605  0.0699 -0.3288
25298W        W40429   9.436   4.267  13.610  0.0708  0.2156  0.3577
25299W        W40430   0.247  16.276  10.868 -0.2655 -0.0399 -0.1921
25300W        W40431  10.337  11.968  13.483 -0.0703  0.1161 -0.2808
25301W        W40432  17.587   0.574   3.564  0.1387  0.0430  0.0693
25302W        W40433  11.562  12.245   3.881  0.1109 -0.2582  0.0484
25303W        W40434  17.948  14.836   9.849 -0.2411 -0.2258  0.1027
25304W        W40435   7.417  15.803  14.572 -0.2096 -0.0300 -0.0724
25305W        W40436   0.811   3.711  12.379 -0.0342 -0.1891  0.1083
25306W        W40437  14.982   9.974   1.687  0.3798  0.2834  0.0868
25307W        W40438  13.520   0.015  15.327  0.0507 -0.2327 -0.0535
25308W        W40439   0.767  14.938  11.981  0.0705  0.0955 -0.0543
25309W        W40440  12.519  13.179   2.608  0.0568  0.0856 -0.2174
25310W        W40441   7.491  12.005  14.152  0.1485 -0.1617  0.1731
25311W        W40442  10.781  14.451   0.455  0.3286  0.0773  0.1145
25312W        W40443   6.819   2.720   9.663 -0.0025  0.1059 -0.1333
25313W        W40444  18.555  11.118  10.617  0.2767 -0.0923 -0.0594
25314W        W40445   1.391   6.697  10.806 -0.2412  0.0110  0.2018
25315W        W40446  15.215   1.864   2.465  0.3251  0.3341 -0.2434
25316W        W40447  13.768   1.691   4.726 -0.1265 -0.1475 -0.1765
25317W        W40448  16.616  15.527  14.034  0.2224 -0.3141 -0.2430
25318W        W40449   3.022  10.238   1.791 -0.0195 -0.2837  0.2300
25319W        W40450  11.158   6.602   2.121 -0.1611  0.1514  0.2450
25320W        W40451   7.466   4.516  10.892 -0.3598  0.3396 -0.1524
25321W        W40452   8.793  12.458  11.561 -0.0469 -0.2015  0.0643
25322W        W40453  10.023   9.500  12.264  0.0244 -0.2586  0.3312
25323W        W40454  10.265   5.706  12.166 -0.3710 -0.1379 -0.0596
25324W        W40455  11.233   2.509   3.846  0.0289 -0.1069  0.0664
25325W        W40456   5.257   0.192  11.396 -0.0067 -0.1139  0.0206
25326W        W40457  12.435   1.704  11.029 -0.1195  0.1997  0.0942
25327W        W40458   6.149  15.331   3.819 -0.1458  0.0547 -0.0790
25328W        W40459   0.678  15.451  15.374 -0.0308 -0.0647 -0.0448
25329W        W40460  10.968  11.685   5.669 -0.1807  0.1025  0.3530
25330W        W40461  17.830   9.855   3.416 -0.2001 -0.0024 -0.0309
25331W        W40462   3.687  10.442  10.870  0.1958 -0.0849  0.2292
25332W        W40463   2.939   8.418  13.023  0.1797 -0.0999 -0.2223
25333W        W40464   4.406  12.500   4.261  0.0152 -0.0819 -0.1019
25334W        W40465   2.850   9.380  10.757  0.0265 -0.3235 -0.0702
25335W        W40466   7.629  16.030  14.117 -0.0389 -0.0971  0.2627
25336W        W40467  15.366   4.186   2.376 -0.2159 -0.1376 -0.0317
25337W        W40468   6.608  16.811   0.732  0.3661  0.0744 -0.0307
25338W        W40469  11.776  13.348  14.591  0.0617 -0.0509  0.2963
25339W        W40470  16.540   1.923  15.305 -0.2143 -0.0479  0.2350
25340W        W40471  13.923   6.436   3.641  0.0555 -0.4365  0.2195
25341W        W40472  10.691   5.225  12.762  0.0770  0.0095 -0.0855
25342W        W40473   8.747  13.499   0.398 -0.0162 -0.4282 -0.0282
25343W        W40474  18.270  18.596  14.918 -0.2104 -0.0249  0.0640
25344W        W40475   4.553   3.159   1.339  0.0793  0.1901 -0.2786
25345W        W40476   5.665   2.703   0.626  0.3542 -0.0176  0.3555
25346W        W40477  11.459   0.786  10.954  0.2678  0.3187  0.2576
25347W        W40478  16.285   7.215  15.078  0.1016  0.0911  0.0293
25348W        W40479   7.153  17.332   5.011  0.0531  0.0342 -0.0340
25349W        W40480  14.773  17.318   0.044  0.1462  0.1106 -0.2283
25350W        W40481  16.026  17.261   3.777 -0.1181  0.1911  0.0435
25351W        W40482   0.937   1.929   1.528 -0.1008  0.1357 -0.1173
25352W        W40483  12.421  17.358  11.545  0.0879 -0.2086  0.0998
25353W        W40484   1.560   1.389  13.338 -0.1279  0.1623 -0.1994
25354W        W40485   5.863   5.005  13.374 -0.1466 -0.0575 -0.0095
25355W        W40486  16.111  13.144  11.462  0.1819  0.0755  0.4590
25356W        W40487   6.897  10.424  13.743 -0.0863  0.4662 -0.0216
25357W        W40488  12.798  14.904  14.733 -0.3669  0.0381 -0.0762
25358W        W40489   7.065  11.165  13.252  0.0744  0.1241 -0.0761
25359W        W40490   4.613   7.771  15.739 -0.1207 -0.2748 -0.0805
25360W        W40491   1.845  13.262  14.721 -0.5208 -0.1262 -0.0464
25361W        W40492   2.642   4.499  15.579 -0.0683 -0.0859  0.0736
25362W        W40493   9.327   8.344  12.841  0.2555  0.0514  0.2044
25363W        W40494  11.501  17.351   2.986  0.2339 -0.1026  0.1275
25364W        W40495   1.879   2.404  10.800  0.0933  0.2884  0.0109
25365W        W40496   3.168  16.767  13.594  0.1558 -0.1067  0.2149
25366W        W40497  12.330  12.046  13.470  0.0197  0.1419 -0.0103
25367W        W40498   1.767  11.733  13.441 -0.2333 -0.0754 -0.2351
25368W        W40499  14.657   7.844  13.512  0.2991 -0.1535 -0.2536
25369W        W40500   5.653   4.678  13.079  0.2718  0.0605 -0.2668
25370W        W40501   2.989   0.445   4.039 -0.2635 -0.1208 -0.3041
25371W        W40502   7.316   8.848   3.431 -0.0601  0.0495 -0.0327
25372W        W40503  17.942   7.247   4.079  0.0532  0.1264  0.1661
25373W        W40504   7.141  18.137   3.919 -0.2034 -0.0014  0.0689
25374W        W40505  14.832   4.359  13.908  0.1160 -0.2641  0.1058
25375W        W40506  16.678  12.928  15.086 -0.1633  0.3456 -0.0717
25376W        W40507   6.858  10.132  11.439 -0.1554 -0.5434 -0.0807
25377W        W40508  13.875  10.118  10.954 -0.1879  0.3592 -0.1179
25378W        W40509   1.405  16.637   4.346  0.2858 -0.1419 -0.3173
25379W        W40510   8.560   1.874  13.988  0.0025 -0.2432 -0.4296
25380W        W40511  15.945  17.013   5.812 -0.1345  0.3049  0.0463
25381W        W40512  17.687  16.561  14.302  0.1774  0.2425  0.2632
25382W        W40513  11.936  11.148   6.622 -0.1560 -0.0422 -0.3041
25383W        W40514   8.355   5.783   2.788  0.1330  0.1930 -0.0898
25384W        W40515  13.230  13.900  12.844  0.0312 -0.0835  0.0565
25385W        W40516  13.555   6.265  12.615  0.0681  0.2363  0.1585
25386W        W40517   9.957   9.770  13.828 -0.0135  0.0700 -0.2348
25387W        W40518   3.800  15.719   3.228 -0.0628 -0.2026  0.2806
25388W        W40519  15.656   1.439  14.880  0.0218  0.0346  0.0457
25389W        W40520  13.931   7.474   1.565  0.0809  0.1092 -0.5563
25390W        W40521  12.729  14.721   2.302 -0.0118 -0.0766  0.1634
25391W        W40522   2.947  11.430  12.388 -0.1404  0.2100  0.0827
25392W        W40523  16.304   5.797  12.432 -0.1238  0.0960  0.1234
25393W        W40524  12.746  11.445  10.638 -0.1534 -0.1058 -0.1260
25394W        W40525   7.078   2.153   0.598 -0.6082 -0.0114  0.0279
25395W        W40526  15.584   9.511  13.760  0.2231 -0.1261 -0.1193
25396W        W40527  11.851  13.316   2.609 -0.0058 -0.0641  0.2068
25397W        W40528  15.753  11.165   2.749 -0.2562  0.1785  0.0287
25398W        W40529  10.456  14.788  15.728  0.1162  0.0408  0.0331
25399W        W40530  16.593  15.174   0.059  0.2299  0.0556  0.2334
25400W        W40531   5.395  18.717   3.480  0.0354 -0.3807 -0.0095
25401W        W40532   8.124   9.416  15.291 -0.0578  0.0205 -0.0935
25402W        W40533  11.299  13.398   2.270  0.3431 -0.0407  0.0779
25403W        W40534   9.919  13.430  10.987  0.1872 -0.1767  0.0705
25404W        W40535   7.682   9.123  11.332  0.0341 -0.0349  0.0873
25405W        W40536  12.719   4.607  10.451  0.1591 -0.1347 -0.0942
25406W        W40537   3.924  17.607   4.350  0.1582  0.1348 -0.1318
25407W        W40538  16.398  17.487  14.088  0.0460  0.0138  0.3798
25408W        W40539   7.536   2.792   1.152  0.1312  0.2273  0.0205
25409W        W40540   5.052   6.966   0.355 -0.2554  0.0925 -0.1452
25410W        W40541  13.061   6.124  10.696  0.4250 -0.2450 -0.0542
25411W        W40542   8.917  17.620   1.582  0.1226 -0.0472  0.4042
25412W        W40543   4.552   9.362  11.766 -0.1207  0.3670 -0.0266
25413W        W40544  13.339  17.777  10.270  0.2799 -0.0896 -0.0171
25414W        W40545   9.074   4.659  15.382  0.1260  0.3368  0.2508
25415W        W40546   0.158   5.212   3.313 -0.0724 -0.2467 -0.1697
25416W        W40547  18.492   7.803  12.751 -0.0081 -0.0790  0.3568
25417W        W40548  12.891  14.660   5.170  0.0123 -0.0735 -0.1357
25418W        W40549  14.663  11.451  11.472  0.1986  0.1423  0.1263
25419W        W40550  11.844   6.295  11.902  0.1565  0.2216 -0.0001
25420W        W40551  12.847   0.445   0.213  0.0014  0.1450  0.0921
25421W        W40552  17.736  18.460   4.012  0.3867  0.0582 -0.1703
25422W        W40553   6.393   2.807  10.665 -0.1131 -0.1405 -0.0381
25423W        W40554  17.670   6.697  14.136  0.2884 -0.1925 -0.0306
25424W        W40555  10.605  12.454  14.763 -0.2236 -0.1599 -0.0091
25425W        W40556   5.207  10.267   4.527  0.3315 -0.1353 -0.2045
25426W        W40557  12.198   2.765  10.281  0.3961 -0.2648  0.1241
25427W        W40558   1.483  13.339  15.155 -0.2324 -0.1526 -0.0196
25428W        W40559   7.702   4.193   3.950 -0.0875  0.0551  0.3156
25429W        W40560   7.973  16.221   2.640 -0.4069 -0.0341  0.0204
25430W        W40561  15.627  10.888   5.161 -0.3830  0.0429 -0.0691
25431W        W40562   7.591   3.988  10.701 -0.0965  0.1654  0.1104
25432W        W40563  13.878  12.698  13.124  0.1915  0.0872  0.2173
25433W        W40564   5.450   3.740   6.037 -0.3456 -0.0024  0.1307
25434W        W40565   2.529   0.155  11.651 -0.0622 -0.0839  0.2606
25435W        W40566   3.456   8.943   3.542  0.2586 -0.2589  0.0522
25436W        W40567  13.427  16.085   4.995  0.1683 -0.0891 -0.1901
25437W        W40568   9.619  13.215  10.180 -0.1822 -0.1303  0.3385
25438W        W40569   1.779  16.671  15.474 -0.0826  0.3678  0.2767
25439W        W40570   9.083   0.441  12.105 -0.3755 -0.1739  0.1611
25440W        W40571  10.377   7.437   1.285  0.3831  0.0936  0.2818
25441W        W40572   8.766  17.549  11.298  0.0075  0.0896 -0.2566
25442W        W40573   3.112  16.946   3.012 -0.0302 -0.1149 -0.0252
25443W        W40574   2.967   4.649  10.894 -0.2012  0.2827 -0.2843
25444W        W40575   0.481   4.052  15.100  0.0536 -0.1121  0.1079
25445W        W40576   3.690  10.337   2.210 -0.3799  0.0371 -0.1709
25446W        W40577   2.276   5.534   2.017 -0.1774 -0.0595 -0.0266
25447W        W40578   0.007   7.350   2.673  0.0203  0.1029 -0.0980
25448W        W40579  13.176   0.561  11.909  0.0428 -0.3539 -0.0048
25449W        W40580   8.114   3.292   2.761 -0.2456 -0.1525  0.0370
25450W        W40581  17.427   6.814  15.377  0.2272 -0.1922 -0.3073
25451W        W40582  17.337   2.288  14.497  0.2728  0.1262  0.0459
25452W        W40583  11.144   4.403   1.366  0.3634 -0.1491  0.1701
25453W        W40584   0.745  10.422   0.429  0.1806 -0.2447  0.2585
25454W        W40585   6.873  15.217  15.066 -0.0969  0.0994 -0.1310
25455W        W40586   8.324   0.739   9.814 -0.0966 -0.1192  0.0184
25456W        W40587  10.976   7.623  15.082  0.1470  0.1109  0.1119
25457W        W40588   6.192   6.515  10.860  0.0753 -0.2122  0.0565
25458W        W40589   1.391  16.146   0.296  0.1726  0.4469  0.2022
25459W        W40590   3.951   4.675  13.438  0.2012 -0.2174 -0.0972
25460W        W40591  17.358  10.914  15.724  0.1057  0.1532  0.1387
25461W        W40592   2.534   9.261   4.453 -0.1384 -0.4433 -0.1055
25462W        W40593  14.227   8.980   4.381 -0.1164  0.0661 -0.1446
25463W        W40594   3.926   3.418   1.860 -0.0869 -0.1471 -0.2591
25464W        W40595   2.814   5.150   0.876  0.3248 -0.3370 -0.3277
25465W        W40596   0.940  12.042   4.347 -0.0816 -0.0518 -0.0537
25466W        W40597  17.569   9.393   0.100  0.0001 -0.0455  0.1890
25467W        W40598   9.867  10.985   1.975  0.0879  0.3436 -0.2620
25468W        W40599  13.122  13.643  12.173  0.0050  0.0049 -0.0852
25469W        W40600   0.132   4.692   4.782 -0.1199 -0.3377 -0.0617
25470W        W40601  11.031  11.011   0.149  0.1700  0.1590  0.4152
25471W        W40602   0.978  14.244  13.608 -0.0101  0.0063 -0.1395
25472W        W40603  14.573   2.983   4.574 -0.0838 -0.0545 -0.0239
25473W        W40604  10.861  12.678  15.145 -0.1280  0.4300 -0.0932
25474W        W40605  13.401   1.862   1.066  0.2166  0.5903 -0.2299
25475W        W40606   7.632   9.580   3.393  0.0939  0.1872  0.0237
25476W        W40607  17.113  14.802   2.533  0.0685 -0.1069 -0.2114
25477W        W40608   5.451   4.721   0.285  0.0361  0.4160 -0.3346
25478W        W40609   2.946  13.889   4.658 -0.1044 -0.0189  0.0576
25479W        W40610  12.422   0.945   1.614 -0.0271 -0.0291 -0.3963
25480W        W40611  14.374   0.854  14.044 -0.0163 -0.1907  0.0171
25481W        W40612   5.816   2.295   1.271  0.0257 -0.0104  0.0904
25482W        W40613   4.261   4.289  11.870  0.1321  0.2321 -0.2884
25483W        W40614  17.751   4.173  14.710 -0.4257  0.0968 -0.0024
25484W        W40615  15.683  10.039   1.485  0.2254  0.2911  0.1790
25485W        W40616  10.669  11.275   6.579  0.0736 -0.0364 -0.1120
25486W        W40617   0.883  10.163  14.613  0.2830  0.0281  0.3204
25487W        W40618   7.863   7.947  13.383  0.4151 -0.2365  0.3161
25488W        W40619  18.422  10.886  14.185 -0.2823  0.1675 -0.2890
25489W        W40620  11.395  12.442  12.751 -0.0612  0.1514 -0.0973
25490W        W40621   3.603  15.598   0.882  0.1239  0.2196 -0.3286
25491W        W40622   7.716  10.419  15.534  0.1932  0.1085  0.3063
25492W        W40623   2.259  12.093   0.748  0.1252  0.1906 -0.0055
25493W        W40624   8.534   5.275  14.644  0.1098 -0.1154  0.1115
25494W        W40625   3.896  16.822  11.222 -0.1149 -0.0505  0.1903
25495W        W40626   1.912  10.701   4.448 -0.0262  0.1456  0.2888
25496W        W40627   8.346   6.984  15.674  0.1634  0.2114  0.0483
25497W        W40628   9.170  10.177  14.965  0.3553 -0.0839 -0.1080
25498W        W40629   6.439  18.623   3.710 -0.0084  0.1717 -0.2132
25499W        W40630   4.876  13.109   9.950  0.4321 -0.3143 -0.1902
25500W        W40631  12.405  17.935  11.737 -0.1746  0.1531  0.0982
25501W        W40632  16.170   4.911   0.848 -0.2550 -0.1360  0.0823
25502W        W40633   7.779   3.346   4.271  0.0414 -0.0774  0.0247
25503W        W40634  18.671  16.002  13.170 -0.1357  0.0182  0.0739
25504W        W40635  15.302  18.458   0.701 -0.0234 -0.3770 -0.1245
25505W        W40636  13.582   7.996  15.300 -0.0024 -0.0177 -0.0013
25506W        W40637   0.097   1.996  15.232 -0.4160  0.0996  0.1371
25507W        W40638  16.318  16.747  13.667 -0.0508  0.0536  0.1569
25508W        W40639   6.847  12.533   5.318 -0.1260 -0.0260  0.2140
25509W        W40640   2.028  14.706  15.336  0.0497  0.1394 -0.2895
25510W        W40641   9.047   4.326  12.219  0.0491 -0.0747 -0.0801
25511W        W40642  12.096   9.722   4.194  0.2896  0.1152  0.0404
25512W        W40643   3.507  10.913   1.899 -0.0220  0.0441 -0.1584
25513W        W40644   5.129   9.127  14.545 -0.0168 -0.2104 -0.1954
25514W        W40645   3.493   9.280  11.503  0.2176  0.1398  0.4490
25515W        W40646   9.815   5.792   1.740  0.1212 -0.1812  0.7891
25516W        W40647  12.140   3.222  10.585  0.1638  0.3080  0.4080
25517W        W40648   7.903   6.988   4.056  0.1302  0.0064  0.0300
25518W        W40649  14.433  10.923   1.659 -0.0506 -0.1189  0.2965
25519W        W40650   3.077  18.721   3.940 -0.0589  0.0266 -0.0357
25520W        W40651  15.259  14.223   4.050  0.1897  0.4189  0.0434
25521W        W40652   1.719   2.260   3.734  0.1312 -0.2794 -0.2627
25522W        W40653  16.094   4.497  11.268 -0.0079 -0.0691 -0.2557
25523W        W40654   1.435   3.611   0.797  0.0999  0.3146 -0.0044
25524W        W40655   1.311   2.065   3.342 -0.0103  0.0533  0.0542
25525W        W40656   9.276  10.686   5.355  0.1049 -0.0433 -0.1870
25526W        W40657   8.658   3.961  15.130 -0.0104  0.1958 -0.0113
25527W        W40658  10.412  13.608   2.111  0.1480 -0.1910  0.1990
25528W        W40659   5.068   7.464  15.345  0.0297  0.1844  0.0324
25529W        W40660   0.524   0.332   2.236  0.0576 -0.3128  0.1883
25530W        W40661  11.773  12.126   0.493 -0.1958  0.0515  0.2872
25531W        W40662   9.535   5.426  12.974 -0.1426 -0.1954 -0.1628
25532W        W40663   3.807   0.214  11.151 -0.2440 -0.0061  0.2019
25533W        W40664  11.197   2.327  13.250 -0.0156  0.3948 -0.1437
25534W        W40665   4.252   8.521  11.948  0.1898 -0.0392  0.0906
25535W        W40666   1.474   8.698  12.787 -0.0413 -0.2239 -0.0810
25536W        W40667  18.497  16.280  12.219  0.1918 -0.4472  0.1920
25537W        W40668  18.243   7.696   0.757 -0.0844  0.1086 -0.2279
25538W        W40669   8.242   2.060   1.285 -0.0130 -0.1239  0.0638
25539W        W40670   3.269  17.821  11.618 -0.0274  0.0177  0.0425
25540W        W40671  12.190   8.274  15.370  0.2188  0.4733  0.1009
25541W        W40672  11.202  15.440   1.578  0.2712 -0.0956  0.2463
25542W        W40673   4.022   9.086   4.937  0.0260  0.2060  0.0503
25543W        W40674   8.306   8.301   1.931 -0.0721  0.0535  0.1081
25544W        W40675  10.417   9.561   5.772 -0.1702 -0.1943  0.0115
25545W        W40676   7.299   8.621  13.541  0.3164  0.2006 -0.0219
25546W        W40677  14.371   2.188  11.296  0.1850  0.0502 -0.2918
25547W        W40678   1.887   7.988   3.659  0.2933  0.0642  0.0556
25548W        W40679  11.538  12.932  14.334  0.2929 -0.0204  0.3292
25549W        W40680   3.201  13.328  14.580 -0.0775  0.0296  0.2851
25550W        W40681   1.007   5.393   0.268 -0.2515  0.0580  0.0805
25551W        W40682   7.324  11.793   5.301 -0.2054 -0.0703  0.0103
25552W        W40683  11.433  10.591   5.115  0.0474 -0.3265  0.3901
25553W        W40684   5.518   9.959   3.135 -0.0979 -0.0858  0.3275
25554W        W40685   9.322   8.600   2.282  0.0530  0.1570  0.0564
25555W        W40686   1.083   0.882  13.523 -0.0764  0.1608 -0.2506
25556W        W40687   7.349  10.010  12.529 -0.6166  0.0249 -0.0314
25557W        W40688   9.050   2.513  15.744  0.1800 -0.1156 -0.1571
25558W        W40689   4.981   0.370   0.409  0.2003 -0.2628  0.0227
25559W        W40690   9.518   1.394   4.229 -0.2924 -0.2993 -0.1227
25560W        W40691   2.096  11.572   4.200 -0.2683  0.1075  0.0305
25561W        W40692   5.006   3.745  14.418 -0.0481  0.3454  0.1030
25562W        W40693  13.045  14.129  13.289  0.0764  0.3157  0.2923
25563W        W40694  12.408  12.571   2.073  0.0674 -0.0229  0.0288
25564W        W40695  11.774   7.675  12.055 -0.0497 -0.1035 -0.2579
25565W        W40696   6.869  18.413   0.665  0.4380  0.2781 -0.0677
25566W        W40697   0.379  18.180  12.726  0.0771 -0.1956  0.2751
25567W        W40698   3.674   5.797  15.537 -0.0120 -0.2984  0.1622
25568W        W40699   1.399  10.490  10.403 -0.2763  0.4416  0.0501
25569W        W40700  17.097  12.587   4.443  0.0299  0.0574  0.1346
25570W        W40701   3.914   5.849   2.449  0.2518 -0.0618 -0.0711
25571W        W40702   5.028  15.790  15.186 -0.1848 -0.0222 -0.1813
25572W        W40703  13.906  12.460  14.090 -0.2025  0.2525 -0.2068
25573W        W40704   1.578  15.251   4.511 -0.0361 -0.2088  0.1282
25574W        W40705  15.487   8.279  11.531 -0.3538  0.3938  0.0608
25575W        W40706  17.096  13.065  13.930 -0.5518  0.2072 -0.1805
25576W        W40707  13.969  16.041  11.400  0.1445  0.1727  0.2878
25577W        W40708   8.768  16.562  12.377  0.2375  0.2923  0.0609
25578W        W40709   6.838   5.006   0.976 -0.0249  0.1325 -0.0088
25579W        W40710  17.602  15.147  13.972  0.2259 -0.1943  0.1848
25580W        W40711  17.066   4.188   1.606  0.0805 -0.1058 -0.0575
25581W        W40712   6.144   1.818  12.170  0.0550  0.2027 -0.0447
25582W        W40713  13.543   3.467   4.572  0.1244 -0.1534 -0.1947
25583W        W40714  15.469  11.993   1.550  0.2615 -0.1324  0.2758
25584W        W40715   8.348   6.461   3.429 -0.1431 -0.0061  0.0720
25585W        W40716   2.199  18.629   4.044  0.0322  0.3539 -0.2932
25586W        W40717   2.970  17.407   3.097 -0.1430  0.0099 -0.1066
25587W        W40718   9.640  10.446   3.733 -0.1033  0.5884 -0.0836
25588W        W40719  12.380   2.931  13.150 -0.2691 -0.1062  0.2264
25589W        W40720   4.869  10.360   2.242  0.1174  0.0369  0.1203
25590W        W40721   7.084  10.824  14.210 -0.0079 -0.0435  0.1612
25591W        W40722   9.811  14.452  12.780 -0.1940 -0.1452 -0.2112
25592W        W40723  13.034  16.247   0.670  0.0000 -0.0622 -0.0797
25593W        W40724  18.159  18.559  11.282 -0.0378 -0.2776 -0.1660
25594W        W40725  17.187   5.089   1.944 -0.1007  0.0132  0.0952
25595W        W40726   5.003  10.128  12.497  0.0300 -0.1999 -0.0282
25596W        W40727   6.597   6.556  15.475  0.0093  0.2806  0.1565
25597W        W40728   2.220   6.858  15.334  0.0075  0.1870  0.2230
25598W        W40729   3.735  11.098   1.015 -0.2917 -0.0003  0.0154
25599W        W40730   2.039  11.297   5.126  0.0307  0.1758  0.0061
25600W        W40731  12.654   7.413   5.560  0.0150 -0.2267 -0.1061
25601W        W40732   6.647  14.382   0.567  0.1630 -0.2602  0.2148
25602W        W40733  18.530   2.155   2.853  0.2099 -0.0128 -0.2184
25603W        W40734  13.363  12.730   0.935 -0.0697  0.2965 -0.2847
25604W        W40735   9.047  11.923   3.192  0.2654  0.0053  0.2518
25605W        W40736  16.933  13.953   0.461 -0.1369 -0.0010  0.2631
25606W        W40737   5.069   7.974   4.735 -0.0884  0.1665  0.0450
25607W        W40738   9.941   9.485   0.633  0.1033  0.1355 -0.0803
25608W        W40739   7.592   1.640   2.147  0.3639 -0.1351  0.2266
25609W        W40740   2.278   4.021  14.860 -0.1111  0.2843 -0.1231
25610W        W40741  17.496   6.272   4.009 -0.2162 -0.2582  0.1302
25611W        W40742  10.413   1.033   2.566 -0.2294 -0.0370  0.0960
25612W        W40743   9.810  17.590   1.128  0.0648  0.0552 -0.1335
25613W        W40744   5.582  11.780   5.032 -0.0647 -0.0776 -0.0410
25614W        W40745   6.224  11.568  11.161  0.1901 -0.0741 -0.1049
25615W        W40746   1.485  10.211  11.870  0.1082  0.1828 -0.1296
25616W        W40747   5.152   8.496   4.066 -0.1814 -0.2810 -0.0228
25617W        W40748   4.867   8.686   0.262  0.0161 -0.1595 -0.0649
25618W        W40749  17.432   6.661  13.041  0.0565  0.1332  0.2235
25619W        W40750  10.836  18.624   0.711  0.0329 -0.0806 -0.0015
25620W        W40751   7.926  16.208  11.311 -0.1902  0.1421  0.0730
25621W        W40752   0.362   5.428   2.873  0.0954  0.0782 -0.2341
25622W        W40753   5.949  10.758   4.184  0.2852 -0.1532  0.3547
25623W        W40754   7.532   7.580   5.720 -0.1744  0.1042 -0.0058
25624W        W40755   3.306  16.655  10.526  0.2287  0.4827 -0.0123
25625W        W40756   7.273   8.228  13.890 -0.1791 -0.0854 -0.0023
25626W        W40757   0.897  18.397  15.522  0.0706 -0.0219 -0.0437
25627W        W40758  10.934   7.640  13.632 -0.2662 -0.1159 -0.1097
25628W        W40759  15.370  12.777  13.347 -0.0370  0.0508  0.0898
25629W        W40760   7.829   0.005  12.618 -0.0060  0.2389 -0.3675
25630W        W40761  18.495   5.826   9.036  0.3233 -0.3923 -0.0708
25631W        W40762  14.342   0.023   0.310 -0.3565 -0.3177  0.0815
25632W        W40763  14.051   2.766  11.564  0.0061 -0.3407 -0.1121
25633W        W40764  17.476  11.737  15.250  0.2565 -0.0138 -0.0496
25634W        W40765  11.854  12.355  11.928  0.1431  0.1356  0.0002
25635W        W40766   6.079   1.946   3.318 -0.2042 -0.4061 -0.2176
25636W        W40767  11.648  12.966  15.699  0.0159  0.2671  0.2670
25637W        W40768  13.496  13.845  12.447  0.0610  0.0067  0.1823
25638W        W40769   3.283   9.000  11.893  0.0107  0.0845 -0.1377
25639W        W40770   2.471  10.426   4.963 -0.1791 -0.4539 -0.3458
25640W        W40771  16.518   1.826   2.512  0.1084  0.0382  0.3459
25641W        W40772   5.175  18.033  15.547  0.2042  0.2947  0.0438
25642W        W40773  18.617   0.197   0.518 -0.1012  0.1597 -0.1368
25643W        W40774   7.497  16.949   4.228 -0.4036 -0.2716 -0.1273
25644W        W40775   8.621   2.461  10.856 -0.2639  0.1681  0.0898
25645W        W40776   4.419  18.653   2.791  0.3840  0.3336 -0.0736
25646W        W40777  16.232   6.676   3.848  0.0917  0.1040  0.2095
25647W        W40778  10.162   0.633   2.729  0.2817 -0.0316  0.2683
25648W        W40779  13.008  16.265  11.553 -0.1706 -0.1290 -0.2079
25649W        W40780   7.790   5.685   3.530 -0.0004  0.0795 -0.1876
25650W        W40781   2.206   8.641   3.190  0.8153 -0.0607 -0.3341
25651W        W40782   5.389  10.608   1.333 -0.2284 -0.0547  0.2415
25652W        W40783  11.137   0.798   3.947  0.1595 -0.2349  0.2551
25653W        W40784  12.728  18.506   5.188  0.0956  0.3085 -0.2749
25654W        W40785  15.458   3.926  14.311  0.3193  0.0885 -0.0680
25655W        W40786  13.281  18.002  14.905  0.1361  0.2627  0.1655
25656W        W40787   7.336   6.981   0.102  0.0100  0.0543  0.0593
25657W        W40788   3.713   1.553  15.187  0.0056  0.1349 -0.0480
25658W        W40789  14.531   8.854  15.755 -0.1283 -0.0687  0.0630
25659W        W40790   1.801   2.142  12.659  0.1735 -0.0372  0.2495
25660W        W40791   4.673   0.622   2.170  0.0161  0.0011 -0.0988
25661W        W40792   8.241   9.265  14.113  0.2628 -0.3092 -0.0542
25662W        W40793   5.577   3.173   9.998 -0.1119 -0.4748  0.3103
25663W        W40794  10.876   9.566  12.996  0.0863  0.0078 -0.0148
25664W        W40795   8.170   3.575   0.104  0.0517  0.1657  0.0790
25665W        W40796  16.618   8.521  11.321  0.0318 -0.1148  0.0156
25666W        W40797   1.003  13.135   4.559 -0.0619 -0.0046  0.0450
25667W        W40798  10.777   1.418   2.707 -0.0410 -0.0472  0.4874
25668W        W40799   3.794   2.747   1.273 -0.1052 -0.0146 -0.2792
25669W        W40800   1.020   1.762  13.710  0.0559 -0.2201 -0.1473
25670W        W40801  13.526   0.793   4.406  0.3042  0.4010  0.2064
25671W        W40802   8.544   3.180  15.597 -0.1572  0.2828 -0.0719
25672W        W40803   5.763  14.938  12.680 -0.4971  0.0294 -0.1440
25673W        W40804   2.666   2.943   3.933  0.0105 -0.0406  0.4085
25674W        W40805  16.122   3.971  15.675 -0.1388  0.0823  0.1294
25675W        W40806  15.318   2.264   5.513  0.2407 -0.2231  0.0062
25676W        W40807   4.771   6.483  11.507  0.3478 -0.1628  0.1393
25677W        W40808   4.832   5.933  12.686  0.1497  0.0439  0.1219
25678W        W40809  13.478   1.616  12.152 -0.0351  0.2847  0.2708
25679W        W40810   9.870  12.767   4.614  0.0358  0.2627  0.3337
25680W        W40811   2.722   0.880   5.092 -0.3567 -0.1099 -0.0112
25681W        W40812   0.798  13.040   1.274  0.0856  0.3718  0.0446
25682W        W40813   6.607   7.451  10.422  0.1321  0.1324 -0.0554
25683W        W40814   8.104  10.851   1.999 -0.1307  0.2064  0.0623
25684W        W40815   9.851  16.606  14.580  0.1110 -0.0880  0.0691
25685W        W40816   8.315   6.516   5.309  0.0833 -0.0616 -0.2458
25686W        W40817   2.185  18.576   3.067  0.2584 -0.1567  0.0768
25687W        W40818  15.043   6.802   3.150 -0.1353 -0.2476  0.1810
25688W        W40819  10.598   2.119  13.245  0.1058 -0.0673 -0.1932
25689W        W40820  14.717   0.111   2.826 -0.2556  0.0442  0.1410
25690W        W40821   5.656   7.922   3.612 -0.0687 -0.2362 -0.3387
25691W        W40822  11.551   6.058   0.159  0.4276  0.0765  0.1005
25692W        W40823   4.039   2.668  15.328 -0.0189 -0.0397 -0.1027
25693W        W40824   8.906  16.122   1.713 -0.1657 -0.0105 -0.2765
25694W        W40825   9.295   8.063   2.249  0.0688  0.0956  0.0275
25695W        W40826  13.397   8.180   2.415 -0.4179 -0.1013  0.2991
25696W        W40827   8.002   4.161   4.665  0.0068 -0.1781 -0.1383
25697W        W40828   4.053  10.298   1.067  0.1240  0.4382  0.3564
25698W        W40829  15.970   9.181   5.389 -0.0871  0.0773 -0.0979
25699W        W40830  15.054   8.486  11.386  0.3604 -0.0950  0.2455
25700W        W40831  13.355   8.662   0.876 -0.1651  0.0359 -0.1967
25701W        W40832   6.731  15.570  15.477 -0.2203  0.1927  0.0148
25702W        W40833  14.162   6.916  14.264 -0.1621  0.1090  0.0709
25703W        W40834   5.113   6.827   4.129  0.0640  0.1070  0.2470
25704W        W40835  18.539  17.909  15.274  0.1298 -0.3585  0.0579
25705W        W40836   4.007   1.458   9.070 -0.1163 -0.0664 -0.2237
25706W        W40837   2.842   4.503  12.750 -0.1000 -0.0352 -0.0716
25707W        W40838  10.258   3.332   5.401  0.2267 -0.0550  0.1408
25708W        W40839  15.540   6.708  13.601 -0.1785 -0.3611  0.2139
25709W        W40840   9.178  12.405   5.867 -0.1620  0.0118  0.2171
25710W        W40841   8.750   3.210  12.717 -0.0307  0.2246 -0.1481
25711W        W40842   9.245   6.227  10.939  0.3298 -0.2767 -0.2473
25712W        W40843   4.531   9.013   0.541  0.1693 -0.1092 -0.0985
25713W        W40844  10.637   8.160   4.995  0.1036  0.2309  0.2878
25714W        W40845  11.066   0.487  14.443 -0.1170 -0.1054  0.2091
25715W        W40846   1.714  18.544  11.153 -0.0128  0.2972 -0.2042
25716W        W40847  16.499   8.232  13.589 -0.3253 -0.2088 -0.0390
25717W        W40848  17.308  11.862  15.753 -0.2724  0.2359  0.2712
25718W        W40849  12.005  11.937  15.199  0.1123  0.4591 -0.2659
25719W        W40850  13.809  15.672  12.741 -0.1055  0.2631  0.1887
25720W        W40851  16.498   0.784  13.385  0.3370 -0.1684  0.1996
25721W        W40852  17.327  10.349   1.108 -0.5026  0.1970 -0.1217
25722W        W40853   4.700   3.607   1.359 -0.0781 -0.0106 -0.1451
25723W        W40854   5.897  13.707  13.076 -0.1712  0.0435  0.0071
25724W        W40855  11.512   7.141  14.327  0.3777 -0.1591  0.1653
25725W        W40856   6.145   8.340  14.706 -0.0647 -0.2090 -0.0994
25726W        W40857  12.121   4.178  11.494 -0.3082  0.1623  0.2154
25727W        W40858  15.136  15.558   5.481 -0.1719 -0.2094  0.0965
25728W        W40859   8.839  10.154  12.457 -0.0797  0.3158 -0.0958
25729W        W40860   4.363  10.461   0.026 -0.0346 -0.2571 -0.0557
25730W        W40861  16.691   7.739  11.306  0.0184  0.1453  0.1530
25731W        W40862  17.438  11.273   3.763  0.0718 -0.1026  0.0709
25732W        W40863   6.455  15.584  13.854 -0.1722 -0.0430 -0.3078
25733W        W40864   1.112  16.117   1.886  0.2513 -0.1495  0.3624
25734W        W40865  11.087   4.928   1.215  0.0035  0.2457 -0.0690
25735W        W40866   1.066   5.418   3.311 -0.3210  0.1637 -0.3352
25736W        W40867  10.871  18.701   3.779 -0.2199  0.0369 -0.0727
25737W        W40868  14.960   2.420   5.237  0.0798  0.1317 -0.2128
25738W        W40869   8.399   6.289   2.532 -0.3065 -0.2138  0.0457
25739W        W40870   0.200  11.211   1.417  0.0208  0.0470  0.0618
25740W        W40871  11.206  15.313   0.202 -0.2378  0.0694 -0.1187
25741W        W40872  10.034  15.518   9.978  0.1703  0.3851 -0.0652
25742W        W40873   9.663   9.294   0.122  0.0716 -0.0373  0.1492
25743W        W40874   2.183  13.847  12.214  0.1427 -0.4001 -0.0001
25744W        W40875  12.065   6.889   2.145  0.3324 -0.0574  0.2170
25745W        W40876   9.169  13.715   1.757  0.4179 -0.1193 -0.0273
25746W        W40877   2.104   9.410   2.765 -0.1068 -0.0851  0.0470
25747W        W40878   5.557  10.014  15.399 -0.0266  0.2356  0.2653
25748W        W40879   8.913   3.742   1.106 -0.0748  0.3863 -0.0191
25749W        W40880   8.217   0.526   3.512  0.0438 -0.0946  0.0979
25750W        W40881  14.000   9.289   5.896  0.0869  0.0978 -0.0427
25751W        W40882   3.702  13.301   0.085  0.1505 -0.3313 -0.0195
25752W        W40883   5.978  13.938  15.353 -0.0785 -0.3047 -0.2511
25753W        W40884   4.836   4.269   1.936 -0.1494 -0.5397 -0.0494
25754W        W40885  17.912   6.116  15.398  0.1656  0.2190 -0.1686
25755W        W40886  13.778  14.080  14.582  0.1814  0.0586 -0.2454
25756W        W40887   6.924  15.072  10.789 -0.2269  0.0389 -0.0339
25757W        W40888   8.944   6.895  12.752  0.2501 -0.0370 -0.1277
25758W        W40889   8.503   1.625  14.763  0.0003 -0.0660  0.2755
25759W        W40890   0.594   5.365   3.357  0.2210 -0.0677  0.0853
25760W        W40891   1.167   2.077   3.855 -0.1046 -0.2897  0.0620
25761W        W40892   6.034   9.795   5.003 -0.2377 -0.0374  0.2186
25762W        W40893   7.356  13.435  13.992 -0.0885 -0.0889  0.0480
25763W        W40894  12.404  17.992  12.237 -0.1014 -0.0630 -0.0136
25764W        W40895   9.536   4.308   0.525  0.1452 -0.1879  0.0998
25765W        W40896   6.496  11.769  13.055  0.3841  0.2910  0.0119
25766W        W40897  10.256  10.422   4.953  0.0001  0.1646 -0.2079
25767W        W40898  11.073   5.911  12.051  0.0384  0.5139  0.0249
25768W        W40899   1.317  10.292  13.931  0.0322  0.2465 -0.1210
25769W        W40900  12.046   5.617   1.402  0.2274 -0.3895  0.0624
25770W        W40901   3.347  11.080  13.168 -0.1619 -0.0834  0.2195
25771W        W40902   7.334   3.689  13.205 -0.0959 -0.0091 -0.0491
25772W        W40903   4.202  10.515   4.280 -0.4833  0.1026  0.1522
25773W        W40904   4.570   0.023  13.627 -0.0162 -0.4739  0.2282
25774W        W40905  14.345  10.191  14.839 -0.1133  0.3551  0.0959
25775W        W40906   1.285   0.677  10.916  0.0351  0.0908  0.2255
25776W        W40907   4.921   4.203   5.386  0.0995 -0.1303  0.2429
25777W        W40908  11.081   4.182   1.892 -0.2215  0.0003 -0.0069
25778W        W40909  10.982   3.669   2.722 -0.0944  0.2131  0.1268
25779W        W40910   9.932   0.852  12.461  0.1183 -0.3272 -0.3093
25780W        W40911   0.203   5.144   2.464 -0.2111 -0.0602 -0.0613
25781W        W40912  10.356   8.018  14.633 -0.0967  0.3756 -0.1057
25782W        W40913  18.683  15.425  12.971  0.0113  0.1556  0.1132
25783W        W40914   8.327   7.265   3.153 -0.2487 -0.0362  0.0788
25784W        W40915   9.262   2.901   1.004  0.2920  0.0426  0.1649
25785W        W40916  11.901  16.255   0.031  0.0192 -0.0632  0.1061
25786W        W40917   2.157   0.156  15.313  0.3421 -0.3097 -0.3710
25787W        W40918   4.434  12.220  15.451 -0.1143 -0.0643  0.0910
25788W        W40919  17.387  18.275  13.365  0.0172  0.1868 -0.1244
25789W        W40920  15.651  13.942   9.836 -0.0419 -0.4097 -0.2026
25790W        W40921   5.762  17.707   2.006 -0.0060 -0.2486 -0.3811
25791W        W40922   9.871   5.495   5.395 -0.0838  0.0159 -0.1225
25792W        W40923  17.687   1.243   1.524  0.3728 -0.2627  0.1827
25793W        W40924  18.506   0.748  14.023 -0.2539  0.0778 -0.1561
25794W        W40925   6.626   0.614   3.173 -0.1107 -0.3467 -0.1649
25795W        W40926   0.081  10.257  15.195 -0.0242 -0.0402 -0.1726
25796W        W40927   1.850  12.277   1.008  0.2933 -0.0751  0.0825
25797W        W40928  13.274  17.932   1.395  0.2711 -0.1186  0.0652
25798W        W40929   0.647   9.780  12.005  0.0572  0.3638 -0.0690
25799W        W40930  13.730  10.859  13.785 -0.0063 -0.1255  0.2882
25800W        W40931   9.605  10.704   1.542  0.1844 -0.3928  0.1165
25801W        W40932  11.878   0.389  14.069  0.0348  0.0251  0.0565
25802W        W40933  10.823  18.508   1.792 -0.0345  0.1943  0.0933
25803W        W40934  10.629  16.813   3.838  0.0557 -0.0917  0.2471
25804W        W40935  17.513   7.953   4.679  0.1153  0.1050 -0.0445
25805W        W40936  18.721  13.566   3.651  0.2736  0.1807 -0.1280
25806W        W40937  12.890   0.060  13.072 -0.3061  0.1861  0.1717
25807W        W40938   2.342  14.756  11.620 -0.0037 -0.0503 -0.0653
25808W        W40939   9.155   2.438   0.897  0.3219 -0.2476  0.1403
25809W        W40940   9.095  15.589   2.893  0.1403  0.2599  0.5477
25810W        W40941  18.086  12.582  10.552 -0.1782 -0.0372 -0.0025
25811W        W40942  16.735  17.195   0.093 -0.2602  0.1300 -0.1217
25812W        W40943  15.687   0.925   2.937  0.0433  0.0090  0.2356
25813W        W40944   7.556   3.229   3.818 -0.4406 -0.2397 -0.1174
25814W        W40945  13.160   8.546   2.094 -0.1526 -0.3378 -0.1055
25815W        W40946   4.218  12.149  14.351  0.3164 -0.2795  0.1637
25816W        W40947  16.736  10.660  11.329 -0.0910 -0.0835  0.1217
25817W        W40948   4.171  14.051  15.597 -0.0484  0.0079 -0.2012
25818W        W40949   6.211  16.966  10.171 -0.1304  0.0869  0.1583
25819W        W40950  11.232   3.980   4.052 -0.1235  0.2502  0.1367
25820W        W40951   5.438   2.728   4.005  0.1063  0.0671  0.0917
25821W        W40952   7.926  11.466   2.111  0.1042  0.2175  0.3061
25822W        W40953  10.530   9.648  14.465  0.0466 -0.1765  0.1441
25823W        W40954  15.780   6.151   3.290 -0.3940 -0.1581  0.1857
25824W        W40955  17.831   6.452  13.743  0.1750  0.0593  0.2930
25825W        W40956  14.796  15.942   0.853 -0.1687  0.3508  0.1935
25826W        W40957   6.967  11.416  11.919 -0.1095  0.1505  0.3241
25827W        W40958  12.463   5.247   4.859 -0.2005 -0.1018  0.3147
25828W        W40959  11.986  10.958   3.531  0.0683  0.0338 -0.1438
25829W        W40960  18.036   0.999   2.305 -0.2076 -0.1540  0.0668
25830W        W40961  10.553  18.622  14.332  0.0791 -0.0510  0.0387
25831W        W40962   2.500  15.686  15.642  0.1685 -0.0839  0.0928
25832W        W40963   7.473   8.943   0.903 -0.0185  0.3383 -0.0752
25833W        W40964   4.398  13.354  10.171 -0.0502 -0.1315 -0.0153
25834W        W40965   8.364  15.432   3.544 -0.1429 -0.0597 -0.2415
25835W        W40966   4.263  11.911  14.843  0.2705  0.2192 -0.1459
25836W        W40967  10.514  16.156  11.730 -0.3161  0.0190 -0.3782
25837W        W40968  18.507  11.583  10.369 -0.1168  0.3032  0.0110
25838W        W40969   8.064   1.615   1.927 -0.0215 -0.0268  0.0890
25839W        W40970   7.493  17.150   4.679  0.1735  0.0060  0.2472
25840W        W40971   7.978   9.373  12.693 -0.0665 -0.1380 -0.0775
25841W        W40972   0.921  15.465  14.936  0.1160 -0.3788  0.0373
25842W        W40973   3.975   5.824   0.381 -0.1468  0.2288 -0.1789
25843W        W40974  13.806   4.342  14.345  0.3112  0.0499 -0.2925
25844W        W40975  10.963   7.939   1.159  0.1663 -0.0023  0.2881
25845W        W40976  11.906  10.830   3.065 -0.0645  0.1062 -0.0947
25846W        W40977   6.774   8.721   0.873 -0.3320  0.0260  0.1381
25847W        W40978  13.078   1.310   0.134  0.2432 -0.3458 -0.4099
25848W        W40979  10.651  16.595  10.279 -0.2733  0.0475  0.1378
25849W        W40980   4.409   0.489   1.207  0.0408 -0.2975 -0.2056
25850W        W40981  12.092  14.316   1.147  0.1279 -0.0584 -0.1661
25851W        W40982   6.131   1.816   4.836 -0.1910 -0.2930 -0.2256
25852W        W40983   1.540  11.080   1.008  0.1073  0.1317 -0.3598
25853W        W40984   6.998   5.630  13.652 -0.0856 -0.0504 -0.2344
25854W        W40985  10.331  10.225  13.225  0.3434 -0.1379 -0.1957
25855W        W40986   1.690   8.631  14.974 -0.1390  0.2844 -0.2267
25856W        W40987   5.337  15.414  10.476  0.0338  0.0250  0.2352
25857W        W40988   6.063  16.153  12.583 -0.1907 -0.0214  0.2923
25858W        W40989  10.465   9.748  12.262  0.1658  0.0570  0.1425
25859W        W40990   0.249   1.602   1.448  0.2272 -0.0167  0.1937
25860W        W40991   7.963   0.942  12.248  0.2470  0.3224  0.2652
25861W        W40992  14.407   5.518   1.819 -0.0979 -0.0690 -0.1217
25862W        W40993  12.528  12.058   1.402  0.0376  0.0343  0.1640
25863W        W40994  11.516   1.861   4.447  0.2159  0.0912  0.3225
25864W        W40995  18.015   9.635   0.215  0.1493  0.0567 -0.1044
25865W        W40996   4.202  12.933   1.496 -0.0105 -0.3447  0.3148
25866W        W40997   0.492  17.147   2.465 -0.0480 -0.1584  0.2773
25867W        W40998   8.277   9.118   2.430  0.1067 -0.0048 -0.1504
25868W        W40999   1.247   1.292  14.063  0.0746  0.1872  0.1207
25869W        W41000  16.313  15.346  11.719 -0.3803  0.2754 -0.1069
25870W        W41001   2.260   6.000   1.743 -0.1139 -0.0337 -0.1779
25871W        W41002  17.646  10.105   2.703  0.3702  0.1893  0.3248
25872W        W41003   1.810   4.815   2.161 -0.3962  0.0165  0.3395
25873W        W41004   7.511  17.634   4.926 -0.0702 -0.0112 -0.1806
25874W        W41005   0.533  16.229   0.799 -0.1130 -0.0172 -0.1212
25875W        W41006  17.786   3.744  11.395  0.0365  0.1490  0.0158
25876W        W41007   8.221  12.926  13.631  0.0013 -0.3368 -0.2427
25877W        W41008   6.817   1.408  14.688 -0.0063 -0.2389  0.0217
25878W        W41009  18.555  14.665  12.250 -0.2544 -0.2881  0.0252
25879W        W41010   8.101  14.497  13.041 -0.0571 -0.3334 -0.0728
25880W        W41011  17.239  16.698  11.298 -0.2415 -0.1152  0.2905
25881W        W41012   4.218   8.840  10.987  0.1176 -0.4994  0.1082
25882W        W41013  10.273  16.044   1.846 -0.0709 -0.0111 -0.0337
25883W        W41014   0.797  14.698   0.901  0.0795 -0.0161  0.2161
25884W        W41015   9.909   4.772   1.808  0.0595  0.1536 -0.0251
25885W        W41016   5.125   3.736   3.833  0.0623  0.0197 -0.1572
25886W        W41017  16.149   5.996  14.451  0.0357  0.0873 -0.0947
25887W        W41018  15.366  15.947   4.400 -0.0462 -0.0783  0.1837
25888W        W41019   2.141  11.654   0.428 -0.3944 -0.0046 -0.2042
25889W        W41020  11.354  15.269  10.918  0.1274  0.5757  0.1867
25890W        W41021   3.376   5.606  14.756  0.0697  0.3860 -0.1635
25891W        W41022  10.068   1.174   0.902 -0.0547 -0.0282 -0.0498
25892W        W41023  12.282   3.015  15.720  0.0969 -0.1697  0.0911
25893W        W41024  15.309  13.249  15.693 -0.1380  0.0742 -0.0533
25894W        W41025   7.992  12.125  11.321 -0.0412 -0.0646 -0.0423
25895W        W41026   0.092  16.171  12.746 -0.1830 -0.0981 -0.2300
25896W        W41027   8.697   4.607   1.978  0.0344  0.0288 -0.0022
25897W        W41028  12.177   9.835   5.924 -0.4694  0.0011  0.0744
25898W        W41029  14.379   9.180  14.088 -0.0531 -0.1447  0.3700
25899W        W41030  13.786   8.327  14.840  0.0178  0.0885  0.0900
25900W        W41031  11.329  11.224  10.770  0.2062 -0.1976  0.3540
25901W        W41032   6.337   8.617   5.407  0.1299 -0.1634 -0.1804
25902W        W41033  14.276   8.258   0.114 -0.0092 -0.0154 -0.0452
25903W        W41034   2.543   0.487  14.798  0.2311  0.1190 -0.0575
25904W        W41035  10.537  14.923  10.588 -0.0376  0.0203  0.0397
25905W        W41036  11.147   5.147  15.555 -0.1656 -0.3785  0.1145
25906W        W41037   0.590   2.912  14.960 -0.0873  0.2416  0.0098
25907W        W41038   0.701   9.504   2.374 -0.1723 -0.1118  0.2362
25908W        W41039   7.202   9.901  11.733  0.3001  0.0749 -0.0524
25909W        W41040  11.743  12.865  13.886 -0.3042 -0.1245  0.0426
25910W        W41041   7.030   8.761  14.780  0.2042  0.1029 -0.0464
25911W        W41042   8.511  16.097   2.102 -0.0091  0.4388  0.4305
25912W        W41043  16.851  14.943   2.952 -0.3176 -0.5762 -0.0423
25913W        W41044  13.857  12.304   3.496 -0.0819  0.1421  0.0453
25914W        W41045  11.653  17.682   3.332 -0.1283  0.1746  0.0522
25915W        W41046  14.714   6.675  12.266 -0.1685  0.0748 -0.3534
25916W        W41047  16.665  12.454   3.017 -0.0554 -0.0845  0.1782
25917W        W41048   3.763   3.114   0.918  0.0642 -0.3113  0.3033
25918W        W41049   9.099  12.495  12.224  0.5163  0.2451 -0.2016
25919W        W41050  10.257   3.500   1.869  0.0458 -0.3207 -0.4340
25920W        W41051   7.385   3.081   5.283  0.0498 -0.1228  0.1908
25921W        W41052  10.026   9.859   6.115 -0.0056  0.1467  0.2266
25922W        W41053   3.543  17.059   0.795  0.2015 -0.2225 -0.1599
25923W        W41054   7.117  17.799  12.169  0.0575  0.0397 -0.2283
25924W        W41055   1.694  16.942  15.043  0.0321 -0.2954  0.0825
25925W        W41056   9.432   4.184   4.321 -0.4289 -0.3240 -0.0669
25926W        W41057   3.150   5.125  11.077 -0.3324  0.0393  0.2226
25927W        W41058   2.436   6.239  10.969  0.2150  0.2217  0.2253
25928W        W41059   9.237  12.219  13.947 -0.1634  0.0191 -0.0048
25929W        W41060  13.180  14.873   4.518 -0.1057 -0.0029 -0.0698
25930W        W41061   0.937   1.337  11.038 -0.0403 -0.2069 -0.1755
25931W        W41062  11.849   4.616   3.317 -0.0742 -0.2385  0.0104
25932W        W41063   8.663  12.556   3.938 -0.2295  0.0156  0.2380
25933W        W41064   8.900  18.652   1.430  0.0569  0.0594  0.0322
25934W        W41065   0.677  10.289  10.976 -0.0452  0.0090  0.3337
25935W        W41066  15.550  13.696  12.603 -0.3206  0.0842 -0.3113
25936W        W41067   3.616   8.602   3.999 -0.1949  0.0780 -0.1843
25937W        W41068  17.629   4.300   1.778 -0.2691  0.0752 -0.0387
25938W        W41069   6.765  15.009  14.305  0.2203  0.0494 -0.1891
25939W        W41070   1.928  17.119   0.596 -0.2669 -0.1557 -0.1099
25940W        W41071  14.408   2.766   1.759 -0.3345 -0.0546  0.1430
25941W        W41072  15.609  18.294  10.847  0.0752 -0.0724 -0.3470
25942W        W41073   0.821   3.805  10.503  0.1362 -0.3286 -0.1482
25943W        W41074   7.191  18.583  15.128 -0.0792  0.0044 -0.3359
25944W        W41075   7.221  14.934  11.729  0.2354 -0.1345  0.0290
25945W        W41076  11.236   9.517   4.957  0.1308  0.0132  0.1356
25946W        W41077   4.019   3.814   5.815 -0.1158 -0.1518  0.6082
25947W        W41078  14.010   9.360   4.841 -0.3257  0.0823  0.1006
25948W        W41079   8.317   9.019  11.968 -0.1073  0.1359 -0.1512
25949W        W41080   9.077  16.212  12.114  0.2583 -0.0493 -0.1450
25950W        W41081  11.413  17.143  10.519 -0.0173 -0.1183 -0.0616
25951W        W41082   6.748  13.197   5.542 -0.2422 -0.1709 -0.0862
25952W        W41083  13.043  11.278   5.178  0.0027 -0.2741 -0.1747
25953W        W41084  12.550   4.711  11.913 -0.1769  0.1113 -0.2345
25954W        W41085   4.697  10.231  13.338 -0.0337  0.3629  0.0982
25955W        W41086  15.704  16.197  12.826 -0.1196  0.1833  0.1606
25956W        W41087  10.839   4.757  12.673 -0.2306  0.1369 -0.0843
25957W        W41088   2.680   6.425   4.898  0.1972  0.1381 -0.0884
25958W        W41089   9.836  17.226   4.362  0.3199  0.1219 -0.1178
25959W        W41090   0.584   1.644  13.405 -0.4041  0.1531 -0.2564
25960W        W41091  12.646  18.312  14.980  0.2391 -0.0814  0.0362
25961W        W41092  14.295   1.527  15.509 -0.3011  0.0111 -0.2744
25962W        W41093  10.876   1.559   0.596  0.2129 -0.3247 -0.2446
25963W        W41094  17.124   0.137   0.523  0.2740  0.0791 -0.0755
25964W        W41095  13.743   3.641   3.244 -0.0575  0.1772  0.1087
25965W        W41096   4.250   1.185   4.337 -0.0138  0.0639 -0.0303
25966W        W41097  11.407   4.941   1.574 -0.0634 -0.0470  0.1590
25967W        W41098   2.688   4.908  13.056 -0.0814  0.0272  0.0511
25968W        W41099  11.595   5.550   5.140 -0.0737  0.0544 -0.0546
25969W        W41100  15.912  14.203  11.175 -0.1721 -0.0480 -0.0410
25970W        W41101  10.365   4.812   5.457  0.1827  0.3582  0.1988
25971W        W41102  15.704  15.185  13.022  0.1675  0.0348 -0.1229
25972W        W41103  15.987   2.192  14.707  0.0187 -0.1690 -0.0547
25973W        W41104   0.888   4.769   5.456 -0.1080 -0.4228  0.2578
25974W        W41105   9.163  11.425  11.492  0.2098 -0.0744 -0.2129
25975W        W41106   9.679  11.483   4.368 -0.1126 -0.0535 -0.0185
25976W        W41107   0.530   9.488  15.706 -0.1943 -0.2337 -0.0877
25977W        W41108   1.815   2.618   0.200  0.1382  0.2315  0.0904
25978W        W41109   1.642   4.962   1.063  0.2361  0.0577 -0.2828
25979W        W41110   0.782   9.899  11.457  0.3213  0.2247  0.2214
25980W        W41111  13.835   5.110  11.953 -0.0900 -0.0977 -0.4782
25981W        W41112   7.951   9.075   1.120 -0.1047 -0.3908 -0.4183
25982W        W41113   4.154  16.314  10.906  0.0646 -0.4084  0.1346
25983W        W41114   4.193  13.588  14.086 -0.1808 -0.1152  0.2444
25984W        W41115  13.403   0.986  14.186 -0.2847 -0.0240  0.1739
25985W        W41116   7.664   6.616  14.294  0.1109  0.0168 -0.3528
25986W        W41117   6.980  12.405   3.321 -0.1051  0.1091 -0.0392
25987W        W41118   3.697  18.614   1.752  0.0002  0.3470 -0.1467
25988W        W41119  12.753  17.526   4.952  0.0010  0.2263  0.1014
25989W        W41120   4.560  15.419  11.496  0.0813  0.0152  0.0969
25990W        W41121  16.950   1.371  12.873 -0.2428 -0.1226  0.1267
25991W        W41122  12.004   8.736  11.177 -0.2344 -0.0957  0.6212
25992W        W41123  13.757  13.751   0.292  0.1070  0.1411  0.2205
25993W        W41124   1.633   7.171  15.572  0.4776 -0.0121 -0.1856
25994W        W41125  14.144   5.320   0.406 -0.1863  0.2117 -0.2310
25995W        W41126   4.787  15.742  14.008 -0.2880  0.2255  0.2843
25996W        W41127   8.608  17.957  12.051 -0.0423  0.2461  0.2302
25997W        W41128  18.511  13.431  13.785  0.0997 -0.2518 -0.1884
25998W        W41129  11.139  17.823  15.285 -0.2229  0.0920 -0.0683
25999W        W41130   5.732   3.017  11.257 -0.0174  0.2704  0.2837
26000W        W41131   8.494   9.100   4.462  0.2979  0.2302  0.3310
26001W        W41132  12.195   4.350   6.022  0.4119 -0.3426  0.1709
26002W        W41133   0.681  18.387   4.650  0.0888 -0.1624 -0.2018
26003W        W41134  18.582   9.083  15.454 -0.0609 -0.0883 -0.0249
26004W        W41135  15.671   2.677   0.059 -0.0961  0.0679  0.1750
26005W        W41136   6.772  12.140  10.866  0.0609  0.0758  0.1310
26006W        W41137   0.618  16.356   2.716  0.1202  0.0501 -0.0558
26007W        W41138  12.669  11.548  14.105 -0.1795  0.0926 -0.1142
26008W        W41139  14.750   2.747   4.955 -0.0647  0.2298 -0.0800
26009W        W41140   6.644   9.997  13.601  0.0681  0.3090  0.0442
26010W        W41141  12.085  13.050  14.200 -0.2166  0.0405 -0.3008
26011W        W41142   3.627   4.471   5.507 -0.0758 -0.3000  0.0095
26012W        W41143  10.953   2.873  14.064  0.0057  0.0556  0.0517
26013W        W41144   0.474   9.310   3.379 -0.0330 -0.0524 -0.1602
26014W        W41145  15.036  18.009  12.506 -0.1375  0.0100  0.0814
26015W        W41146  13.735   7.829  13.798  0.4134  0.2709  0.0142
26016W        W41147  15.405   8.793  11.603 -0.1485  0.1721  0.3395
26017W        W41148   3.727   6.488   9.843  0.0211 -0.4391 -0.0856
26018W        W41149   1.800   1.559   4.620 -0.1099  0.0215 -0.1785
26019W        W41150   9.321  17.272   1.582 -0.1867 -0.0315  0.1443
26020W        W41151  15.451   6.819  11.017  0.0239  0.1272 -0.1802
26021W        W41152   0.810   4.095   2.854  0.3074  0.0068 -0.0498
26022W        W41153  12.104   3.241  10.046  0.0446 -0.1866  0.0585
26023W        W41154   8.177   5.574   4.701  0.2024 -0.2558 -0.2128
26024W        W41155   7.016   2.131  12.188  0.2654  0.1277  0.0845
26025W        W41156   1.409  17.217  13.952  0.2845 -0.4115  0.0944
26026W        W41157  18.016   5.742   0.503  0.0540  0.0215  0.3184
26027W        W41158   4.459   5.436   3.048 -0.1248  0.1778  0.0460
26028W        W41159   0.438  10.704  14.193  0.0875 -0.0565 -0.0372
26029W        W41160  12.026  13.618  15.008  0.1522 -0.0860 -0.0775
26030W        W41161   6.803   3.131   0.279 -0.1140 -0.1114 -0.0864
26031W        W41162   5.348  17.450   2.254 -0.2136  0.3182  0.0526
26032W        W41163   4.092  15.308   0.173 -0.4406 -0.0054 -0.0317
26033W        W41164   4.486   5.296  11.511  0.2223  0.1757 -0.0534
26034W        W41165   2.348   2.529   0.259  0.1656 -0.1247  0.2358
26035W        W41166  13.904  11.925   2.856  0.0269  0.1512  0.1658
26036W        W41167  18.299   2.864   0.658  0.1650  0.3324  0.4223
26037W        W41168  12.940  15.747   0.882 -0.0463 -0.0594  0.2703
26038W        W41169   5.161   0.958  12.429  0.0161  0.0102  0.2002
26039W        W41170   6.599  14.612  14.651  0.1282 -0.1929  0.0403
26040W        W41171  10.218  17.281   1.433 -0.3083 -0.0781  0.0150
26041W        W41172   7.842   1.761   0.120  0.1287  0.0068 -0.2580
26042W        W41173   2.146  16.008   2.234 -0.1125 -0.3764  0.0537
26043W        W41174   1.634   7.787   2.776  0.3179 -0.1206 -0.0233
26044W        W41175  11.541   3.229  12.171  0.1659  0.1617 -0.1244
26045W        W41176   4.906   9.731  13.405  0.0146 -0.2351 -0.2121
26046W        W41177   7.729   8.079  14.936 -0.1128 -0.2331 -0.0707
26047W        W41178   9.894   1.583  15.303  0.2290 -0.0010 -0.0443
26048W        W41179   2.689  14.121   3.925 -0.0240  0.3478  0.1632
26049W        W41180   8.629  12.538   0.424  0.3420 -0.1145  0.0595
26050W        W41181  16.761   1.694  10.122 -0.0183  0.2247 -0.0165
26051W        W41182   5.094  11.345   5.746 -0.1733  0.1117  0.0887
26052W        W41183  13.301  14.153   4.045 -0.1105  0.0382 -0.0087
26053W        W41184  12.868  13.294   2.094 -0.1335 -0.2337  0.0099
26054W        W41185  17.647   9.805  13.643 -0.1106 -0.3203 -0.1925
26055W        W41186  16.820  11.630  11.184 -0.0425  0.0010 -0.4271
26056W        W41187  18.269   0.724  15.588 -0.0035  0.1173  0.2853
26057W        W41188  12.195   1.869   0.865  0.0993 -0.0332  0.1421
26058W        W41189  12.570  10.258  12.572 -0.4705  0.0555 -0.0112
26059W        W41190  13.382  16.561  11.441  0.1778 -0.1327  0.0286
26060W        W41191  18.690   5.275   1.933 -0.0065  0.0517  0.0415
26061W        W41192   1.595  12.980  10.710  0.0926 -0.0053  0.2179
26062W        W41193   9.169   6.725  12.267  0.0213  0.0820  0.2111
26063W        W41194  10.789   4.577  12.094  0.0247  0.2928 -0.0129
26064W        W41195   8.499  18.267  10.485 -0.1844  0.1488  0.0363
26065W        W41196  12.941  18.312   5.591  0.1868 -0.2256 -0.3171
26066W        W41197  10.650   2.816  12.424 -0.3531  0.2132  0.0380
26067W        W41198  15.069   2.665   2.242 -0.2324  0.4301 -0.2012
26068W        W41199   5.726   0.997  13.830  0.0528  0.2777 -0.0667
26069W        W41200   0.161  13.969   3.238 -0.0184  0.0689  0.1709
26070W        W41201   3.813  18.016   2.997 -0.1191  0.1106  0.0160
26071W        W41202   7.208  18.111  12.594 -0.1220 -0.0032 -0.1715
26072W        W41203  17.605   7.540   0.657  0.0476  0.0623  0.4425
26073W        W41204  11.475   2.875   0.235 -0.5045  0.0054 -0.2148
26074W        W41205   6.391   5.730  13.000 -0.2097  0.3667 -0.0715
26075W        W41206   4.632   3.843  13.058 -0.0310 -0.1793 -0.3004
26076W        W41207   7.129   3.436  13.670 -0.1331 -0.0823 -0.0493
26077W        W41208   7.740   5.146  14.683 -0.2015 -0.2676  0.0638
26078W        W41209  17.855   1.209   3.718  0.0148  0.1406  0.1928
26079W        W41210   1.130  11.824  11.126  0.2921 -0.3073 -0.0281
26080W        W41211   2.998  10.087  10.273 -0.2148 -0.0591  0.0985
26081W        W41212  13.705   5.427  11.520  0.1457 -0.2588 -0.2958
26082W        W41213   7.184  15.774  11.289  0.0025 -0.1166 -0.4380
26083W        W41214  18.416  14.027   0.900 -0.1609 -0.3166 -0.0397
26084W        W41215   4.498   6.719  12.599 -0.0017 -0.0703  0.0560
26085W        W41216  12.738   5.614   4.223 -0.0424  0.1116 -0.1750
26086W        W41217  12.686   1.947   2.851 -0.0049  0.1595  0.1687
26087W        W41218  13.662   2.869   4.466  0.0883  0.1240  0.0773
26088W        W41219   5.375   4.298   3.491  0.0652  0.1150  0.0466
26089W        W41220   0.191   8.292  10.787 -0.2924  0.4495  0.0321
26090W        W41221  12.477   0.478   1.844 -0.0615 -0.1846  0.0120
26091W        W41222  12.370  17.245   2.670 -0.0266 -0.3234 -0.0266
26092W        W41223   5.598   9.160  11.850 -0.1794  0.1013 -0.0592
26093W        W41224  12.248  13.645   3.200  0.0633 -0.0802  0.0349
26094W        W41225  10.268  18.473   2.634 -0.1504  0.1794 -0.1428
26095W        W41226  16.866   4.832  12.446  0.0503 -0.2343  0.1032
26096W        W41227  18.170  16.222  14.521  0.0188 -0.2467  0.1023
26097W        W41228  14.104   2.130  11.742 -0.2936  0.2283  0.2081
26098W        W41229   4.748   5.237  10.520 -0.2611 -0.0545  0.2133
26099W        W41230  18.514   6.141  10.811 -0.3668 -0.5734  0.0877
26100W        W41231   9.754  10.120   5.813 -0.4415  0.0907 -0.1298
26101W        W41232   6.390  18.376   0.846 -0.3495 -0.2953  0.3972
26102W        W41233   6.266  17.566  14.543 -0.2193 -0.0447  0.1358
26103W        W41234  13.133  10.075  13.474 -0.0565  0.0582  0.1216
26104W        W41235   6.236   0.425   1.619 -0.5066 -0.0946 -0.2289
26105W        W41236  10.787   9.396   0.633  0.1197 -0.1639 -0.2247
26106W        W41237   3.651  11.697   3.346  0.3460 -0.3675 -0.4244
26107W        W41238   8.319  14.596  13.977 -0.2631  0.0201 -0.0468
26108W        W41239   0.029  12.877   2.203  0.2010 -0.1060  0.1798
26109W        W41240   3.903  18.410   5.744 -0.0337  0.0572 -0.1099
26110W        W41241  14.796   6.939   2.056  0.0661  0.0862 -0.0506
26111W        W41242   3.535   2.787   3.781 -0.1135 -0.0669 -0.4193
26112W        W41243   1.797  18.599   2.038  0.0943  0.0721  0.0038
26113W        W41244  14.805   4.461  13.373  0.1408  0.0336  0.0667
26114W        W41245  11.867   9.645  13.782 -0.0335  0.1101 -0.0104
26115W        W41246   8.495  14.759   1.779 -0.0174  0.0933 -0.1385
26116W        W41247   2.513  17.741   0.572  0.2630 -0.0028  0.0273
26117W        W41248   4.991   1.201   1.023  0.2587 -0.1842 -0.0146
26118W        W41249  18.142  10.640   4.097  0.0910 -0.1259  0.0184
26119W        W41250  17.667  14.044  10.903  0.2735 -0.1629  0.1447
26120W        W41251   6.450  10.645  12.190  0.0370 -0.0474  0.1993
26121W        W41252   1.700  13.501  14.307  0.0424 -0.0961 -0.3696
26122W        W41253  17.895  16.118  15.288 -0.2785  0.0833  0.2112
26123W        W41254  10.467  13.964  13.990 -0.3055  0.1625 -0.0105
26124W        W41255  12.653  16.103  14.463  0.2228 -0.0221  0.1819
26125W        W41256  10.589   8.615   2.964  0.0511 -0.1545 -0.0101
26126W        W41257   4.474  15.607   0.978 -0.0861 -0.1457  0.0892
26127W        W41258   1.861   0.359   2.379  0.3530  0.0820 -0.1384
26128W        W41259  15.390   1.395   1.566 -0.1223 -0.1401 -0.1026
26129W        W41260  11.425  17.827  13.664 -0.0329 -0.1030 -0.0479
26130W        W41261   5.928   6.564  13.639  0.1702  0.1370 -0.2446
26131W        W41262  14.061   1.515  12.924 -0.2167  0.1542  0.0076
26132W        W41263   8.919  18.544  13.440  0.0142  0.0071 -0.0707
26133W        W41264  12.832  17.889   0.247  0.2448 -0.0751  0.3123
26134W        W41265   1.763   2.090   4.574 -0.1382 -0.3068  0.2695
26135W        W41266   9.978   3.697  15.656 -0.0569  0.3662 -0.3773
26136W        W41267  16.369   1.921   1.014 -0.0719  0.1666  0.2173
26137W        W41268   2.610  15.043   3.750 -0.0165  0.0372 -0.1558
26138W        W41269   2.192  13.525   0.572  0.0466 -0.1865 -0.6198
26139W        W41270   9.879  15.263   1.082  0.0222  0.0150 -0.0146
26140W        W41271   0.226  10.643  12.402  0.0623 -0.2443 -0.1206
26141W        W41272  14.197   4.337   1.046  0.4646  0.0447 -0.1432
26142W        W41273  15.676   6.017   5.108 -0.0052 -0.1407 -0.2069
26143W        W41274   8.253  16.926   0.905  0.2149  0.3022 -0.1739
26144W        W41275  13.837   8.888  12.464 -0.1641 -0.2316 -0.1588
26145W        W41276   4.354  11.132  11.577  0.1623  0.0412  0.2427
26146W        W41277  15.579  15.103   3.479  0.2481 -0.4545 -0.0705
26147W        W41278  15.514  12.616   3.874  0.0592 -0.1955 -0.0010
26148W        W41279   5.787   1.779   3.670  0.0635 -0.1422 -0.1717
26149W        W41280  14.034   7.161   0.480  0.1208  0.0178 -0.0702
26150W        W41281   5.693   4.812   2.756  0.2156 -0.0645 -0.2178
26151W        W41282   2.675  14.739  10.142  0.1413 -0.0934  0.0343
26152W        W41283  15.525  15.311  12.038 -0.5171 -0.0890 -0.2023
26153W        W41284  14.903  12.737   1.807  0.0595  0.0708  0.1688
26154W        W41285   0.422  12.585   3.222 -0.0577 -0.1321 -0.1879
26155W        W41286  12.504  12.024   5.647 -0.3918  0.0820 -0.1821
26156W        W41287   8.019  14.071   0.367  0.2413 -0.0592 -0.1714
26157W        W41288  16.221  16.872   1.551  0.2180 -0.1153  0.3114
26158W        W41289  12.335   3.716  13.709 -0.1743  0.0763  0.3910
26159W        W41290  14.518  12.372  14.735  0.1830  0.0361  0.1600
26160W        W41291  11.922   6.565   4.979  0.0852  0.0889 -0.0554
26161W        W41292  11.317  18.112   3.259 -0.0807  0.0834  0.2423
26162W        W41293  13.373   9.157  13.546  0.0258 -0.1107  0.3408
26163W        W41294   1.263   7.201  13.557 -0.2555  0.1116  0.0486
26164W        W41295  18.050   0.298  13.340  0.1573  0.4222  0.3575
26165W        W41296   7.459  10.620  12.028 -0.0117 -0.3089 -0.0129
26166W        W41297   9.760  12.042   1.802 -0.3616  0.0986 -0.2837
26167W        W41298  15.099  16.766  11.094 -0.0498  0.1318  0.3925
26168W        W41299  13.615   0.761  11.792 -0.0129  0.0033  0.1429
26169W        W41300   6.127   9.372   2.034 -0.1300 -0.0276 -0.0469
26170W        W41301   6.732   9.694   2.693 -0.2548 -0.0640  0.3308
26171W        W41302  11.119   7.881  14.025 -0.0174 -0.2502 -0.0304
26172W        W41303   5.475  12.082   3.734 -0.1273 -0.3681 -0.0382
26173W        W41304  18.330   7.155  10.813  0.4062  0.0196  0.0926
26174W        W41305   4.843  12.492  10.861 -0.2101 -0.0286 -0.1176
26175W        W41306   1.762   8.640  13.742  0.0067 -0.1314  0.0180
26176W        W41307  13.631  14.960  14.150  0.0356 -0.2560 -0.4459
26177W        W41308  13.888  11.700   3.823 -0.1144 -0.2477  0.0082
26178W        W41309   1.212  12.119  11.877 -0.0243 -0.0628 -0.2290
26179W        W41310   7.789  12.013   9.955 -0.1197 -0.0906  0.0006
26180W        W41311  13.045  11.566  14.448  0.0315  0.1075 -0.0556
26181W        W41312  11.143  18.733  15.746 -0.0310  0.0881 -0.1228
26182W        W41313  11.947   2.967   2.559  0.3907 -0.1241  0.1697
26183W        W41314  18.469   4.705  15.409  0.1111  0.2358 -0.1427
26184W        W41315   5.360  17.275  11.702  0.0912  0.0276  0.3127
26185W        W41316   3.347  12.168  12.862  0.2318 -0.1289 -0.4505
26186W        W41317  10.357  10.944   3.750  0.1215  0.2762  0.2002
26187W        W41318  10.676   0.949  14.320 -0.1019  0.2970  0.1914
26188W        W41319  17.394  16.405  11.671 -0.0416 -0.0312  0.0470
26189W        W41320   0.048  11.508  11.467  0.1546  0.2876 -0.0402
26190W        W41321  16.878   7.389  14.717  0.0619 -0.1016 -0.0364
26191W        W41322   8.659   5.683   4.971  0.1459  0.2513 -0.0395
26192W        W41323   5.408  12.968  11.775  0.0949  0.0691  0.2215
26193W        W41324  10.767  14.466  12.770  0.2950  0.1361 -0.1979
26194W        W41325  11.689   4.773   2.844  0.1910 -0.0192 -0.3769
26195W        W41326   4.768   0.739   4.842 -0.0256 -0.3083  0.0605
26196W        W41327   5.760   6.601   3.335 -0.4188  0.0108  0.1352
26197W        W41328  15.977   7.487   0.350 -0.1055 -0.0656  0.0485
26198W        W41329   5.044  10.675  12.083  0.0124  0.2721 -0.0629
26199W        W41330  13.758   3.694   3.810  0.1908  0.3062 -0.1699
26200W        W41331   4.939   8.461   4.564  0.3134 -0.0911  0.1005
26201W        W41332  17.157   6.051   4.476  0.0455 -0.1509  0.5557
26202W        W41333   6.902  15.446  11.479 -0.1283 -0.1370  0.1017
26203W        W41334  18.063   9.008  14.404  0.0129 -0.0144  0.1055
26204W        W41335   2.099  16.590  14.594  0.1374 -0.2465 -0.1778
26205W        W41336  10.213   1.856  11.841  0.6332  0.0834 -0.2061
26206W        W41337   8.800  15.927   3.570  0.0337 -0.0364 -0.1830
26207W        W41338  17.272   3.789   3.238 -0.0380 -0.0593 -0.0317
26208W        W41339  14.471   7.582   2.764 -0.1796 -0.1075  0.2149
26209W        W41340   6.699  13.618  11.756 -0.0628  0.1719 -0.1063
26210W        W41341   0.567  16.782   5.429 -0.0224 -0.1903 -0.1812
26211W        W41342   5.394   3.763  12.576 -0.3677 -0.0985  0.1012
26212W        W41343  12.724   6.961   4.575  0.0489  0.4689  0.3108
26213W        W41344  17.370  17.511  13.987  0.0084  0.0833  0.1483
26214W        W41345   8.231   9.112  10.164 -0.2702 -0.1129  0.0244
26215W        W41346   7.616  14.273   5.037 -0.2822  0.2485 -0.0741
26216W        W41347  15.520  17.869  13.336  0.3456  0.1520  0.1413
26217W        W41348   4.673  17.502   4.302  0.0720  0.3437 -0.1659
26218W        W41349   4.724  18.263  10.668 -0.1423 -0.2130 -0.0744
26219W        W41350  15.847   1.819   2.504 -0.0205  0.0671 -0.4587
26220W        W41351  17.004   5.077  15.668  0.1532 -0.1073 -0.2238
26221W        W41352  13.649  11.783  11.802  0.0154  0.0390 -0.2711
26222W        W41353   8.320  11.574  12.252  0.2091  0.0468  0.1958
26223W        W41354   8.875   2.055  15.740  0.1439 -0.0409 -0.1096
26224W        W41355  11.386  18.267  12.574 -0.3061  0.0570  0.1990
26225W        W41356   3.901  11.580  12.272  0.2677 -0.1489  0.1122
26226W        W41357  14.429  18.300   5.097 -0.1295 -0.0626  0.3756
26227W        W41358  16.430  15.819  14.551  0.1730  0.2933  0.0330
26228W        W41359   8.296   1.222   1.752 -0.1938  0.2138 -0.0766
26229W        W41360  13.384   8.967  12.700  0.3620  0.2889 -0.3063
26230W        W41361   5.564   2.430  10.360 -0.0954 -0.2510 -0.0637
26231W        W41362   8.130   5.903   9.817  0.2010 -0.2171 -0.4586
26232W        W41363   0.912  13.772   5.617 -0.0785 -0.0241 -0.0582
26233W        W41364  17.711   2.605  13.701 -0.2796 -0.1604 -0.2823
26234W        W41365   4.840  15.049   2.323  0.1375 -0.0647 -0.1366
26235W        W41366   8.739  13.436  15.685  0.1593 -0.1201  0.3254
26236W        W41367  11.801  10.474  14.957 -0.4436 -0.0745  0.0128
26237W        W41368   2.414  18.612   4.695 -0.3231 -0.2262  0.1610
26238W        W41369   1.809  13.231   0.115  0.4580 -0.0523  0.0689
26239W        W41370   3.279   5.516  10.258 -0.0462  0.1437  0.2105
26240W        W41371   7.410   8.793  12.530  0.0838  0.2667 -0.1950
26241W        W41372  14.981  11.690  14.216  0.1893 -0.3353 -0.0146
26242W        W41373  15.002  15.234  11.909 -0.0652  0.0515  0.0538
26243W        W41374   2.324  10.140  11.622 -0.4857  0.1556  0.4895
26244W        W41375  13.349  14.450  14.416  0.1524 -0.0779  0.0339
26245W        W41376   3.192   5.381   3.992 -0.3918  0.0271  0.0173
26246W        W41377   3.496   7.907   2.562  0.2177  0.3466 -0.2507
26247W        W41378   6.047   9.500   0.271 -0.2602  0.0022 -0.1491
26248W        W41379   5.620  18.637  11.424 -0.2063 -0.2332 -0.0633
26249W        W41380  13.820  17.066  15.281 -0.0023  0.2729  0.2714
26250W        W41381   0.663   1.088   3.894  0.2374  0.1474  0.2376
26251W        W41382   9.845   1.837  15.731  0.3703 -0.1068 -0.1467
26252W        W41383   7.887   1.707   2.513 -0.0577 -0.0796  0.3651
26253W        W41384   0.618   4.459   3.168 -0.3041  0.3383 -0.0421
26254W        W41385   2.119   0.107  11.905 -0.1445  0.2422  0.0079
26255W        W41386  11.856  17.761   0.990 -0.1817  0.1832 -0.1590
26256W        W41387   3.575  17.608   2.620  0.0969 -0.0836 -0.2492
26257W        W41388  15.122  14.721   2.111 -0.0025 -0.1981 -0.0183
26258W        W41389  15.334  18.450   1.700  0.0710  0.0300  0.0987
26259W        W41390  16.461   2.971  13.637  0.1761  0.0398  0.1202
26260W        W41391   9.633   2.571   5.120 -0.3918 -0.2003  0.2754
26261W        W41392   7.231  16.582   3.310 -0.0249  0.0376 -0.0957
26262W        W41393   4.549   1.997  15.122  0.1867 -0.0088 -0.2537
26263W        W41394   1.739  11.362  12.932 -0.0318 -0.1791 -0.0297
26264W        W41395   8.076   8.774   1.689  0.1482 -0.1469 -0.1462
26265W        W41396  16.576   7.101   1.638 -0.0363  0.2169 -0.1461
26266W        W41397  11.862   9.556  15.175 -0.5213 -0.1387 -0.1176
26267W        W41398   1.942  18.221  10.552 -0.0883  0.0122 -0.0994
26268W        W41399  16.948   5.699  11.512 -0.0564  0.1006 -0.2406
26269W        W41400   5.547  11.051  13.187  0.0821  0.3090  0.3367
26270W        W41401   7.142  13.745  12.781  0.0916 -0.3913 -0.0165
26271W        W41402  15.051  17.203  15.090  0.4657 -0.3504 -0.1176
26272W        W41403  14.866   3.805   5.146 -0.3088  0.0257  0.3648
26273W        W41404  18.285   9.444   0.801 -0.0897  0.2001  0.2303
26274W        W41405   4.692   2.683  15.613  0.1589 -0.0828 -0.3390
26275W        W41406   9.210  16.774  11.361 -0.0731  0.4869  0.0070
26276W        W41407  14.344   5.783  12.888 -0.6813 -0.1687  0.0520
26277W        W41408  16.917   7.311   1.298  0.0931  0.1983 -0.0651
26278W        W41409  14.634   3.467  13.413 -0.2956 -0.0743 -0.1146
26279W        W41410   5.979  13.102  13.506  0.0660 -0.1992  0.1174
26280W        W41411  14.530  13.919   0.231  0.1346  0.6769  0.3027
26281W        W41412   1.429   8.637   2.034  0.1683 -0.0961 -0.2383
26282W        W41413  14.406  12.831  13.655 -0.1783  0.1007 -0.3202
26283W        W41414  13.113   0.602  14.842  0.2696  0.3327 -0.2089
26284W        W41415   3.780   8.517  11.669  0.1370  0.0665 -0.0175
26285W        W41416   1.767  16.184  15.666 -0.1303 -0.1681  0.1002
26286W        W41417  10.386   9.115  11.849 -0.0908  0.1818  0.3844
26287W        W41418  18.057  10.520  12.504 -0.0293  0.4873  0.0654
26288W        W41419   0.436  16.330  15.248 -0.2349 -0.0511 -0.2179
26289W        W41420   4.888  15.238   0.011  0.0538 -0.0596 -0.4403
26290W        W41421   3.785  17.527  13.891 -0.2885  0.1665  0.0006
26291W        W41422   6.530   7.802   3.082 -0.1549  0.1476  0.0740
26292W        W41423   8.677   9.229  14.704 -0.1293  0.0784 -0.0521
26293W        W41424   3.191   0.061  14.433  0.1248  0.2107  0.1675
26294W        W41425   8.811  13.261  11.800 -0.0411 -0.3291 -0.2097
26295W        W41426   9.410   3.168  13.962  0.2147  0.1114  0.3586
26296W        W41427   0.959   7.884  10.460  0.0709 -0.0013  0.1377
26297W        W41428   2.701   1.980   5.113  0.1983  0.0158  0.0567
26298W        W41429   3.423   9.468  13.967 -0.2954 -0.0357 -0.0616
26299W        W41430   4.262   8.197  11.600  0.0985 -0.0266  0.1045
26300W        W41431  13.227   4.615  10.393  0.0350 -0.0352  0.2949
26301W        W41432  11.720   7.988   3.641 -0.1564 -0.1322 -0.0578
26302W        W41433   5.846   7.523   3.867 -0.1437 -0.0002 -0.1270
26303W        W41434  18.211   1.149  11.381 -0.0643 -0.0026  0.2480
26304W        W41435  16.832   7.439  15.255 -0.0949 -0.1812 -0.1647
26305W        W41436   2.009   1.798  12.089  0.1671 -0.1511 -0.0888
26306W        W41437  10.264   0.378  12.601  0.2495  0.1707 -0.1629
26307W        W41438   1.495   4.961   4.211 -0.0515 -0.3580  0.1961
26308W        W41439  18.185   1.417  12.196 -0.4046  0.2259  0.3721
26309W        W41440   3.929  13.248   0.809  0.0179 -0.1002  0.0599
26310W        W41441  15.884  11.169  12.167 -0.3148  0.2636  0.0915
26311W        W41442  15.348  11.829   2.829 -0.0361  0.0885 -0.4649
26312W        W41443  15.938   5.675   4.597  0.1090 -0.2289 -0.0308
26313W        W41444   7.021  11.802  12.354  0.2974 -0.1156 -0.0571
26314W        W41445  12.246  16.711   3.904  0.2909 -0.3113 -0.0009
26315W        W41446   0.658  13.478   2.869 -0.1548 -0.0589 -0.4894
26316W        W41447  12.419  13.491   4.984  0.1085  0.1167 -0.3255
26317W        W41448  17.628  15.098  10.511  0.1408 -0.0659  0.4502
26318W        W41449   8.348   8.416  14.296  0.1409  0.1898 -0.0740
26319W        W41450  17.163   4.832   3.462 -0.1090  0.0037 -0.0821
26320W        W41451  14.435   9.605   0.950  0.1900  0.3405  0.3324
26321W        W41452  15.480   7.198   0.460  0.1737 -0.0422  0.1454
26322W        W41453  14.437   9.686  14.816 -0.2035 -0.1783 -0.0304
26323W        W41454   8.557   1.629  12.015  0.1233  0.1311  0.0896
26324W        W41455  12.912  10.498   5.982  0.1149  0.0359 -0.1382
26325W        W41456   4.736   9.934   1.569  0.1027  0.0040 -0.2581
26326W        W41457   2.066   3.985   3.287  0.0031  0.0769 -0.2220
26327W        W41458  10.693  11.244   2.942  0.1289 -0.1324 -0.0699
26328W        W41459  12.222   1.121  11.005 -0.0713  0.1464 -0.4107
26329W        W41460   1.924  15.737  15.520 -0.1621  0.2083  0.0406
26330W        W41461  16.013   6.534  13.429 -0.1471 -0.1640  0.1894
26331W        W41462  10.756   9.133   3.713  0.2798  0.1501  0.2117
26332W        W41463   8.376  13.055  10.901  0.1029  0.1611  0.1708
26333W        W41464   4.528  18.120  14.087 -0.0555  0.0363 -0.0810
26334W        W41465   4.986  14.616   2.008  0.1248 -0.1050  0.2717
26335W        W41466   2.332  15.810  13.966  0.0058 -0.0681  0.1070
26336W        W41467  17.691  15.515  11.826  0.0480 -0.1600 -0.2740
26337W        W41468  17.603  16.815   5.372  0.1611 -0.0297  0.1904
26338W        W41469  14.092  12.398   3.018 -0.1509  0.1821 -0.3447
26339W        W41470  10.421   8.683   5.608 -0.0772  0.0598  0.0132
26340W        W41471   2.247   1.168   2.776  0.1264  0.1498 -0.1849
26341W        W41472  17.062  14.814  11.179  0.1299 -0.0469 -0.0184
26342W        W41473  14.525   5.978  11.070  0.0149  0.0742 -0.0874
26343W        W41474  14.233   8.282   5.054 -0.0089 -0.0023 -0.1502
26344W        W41475  16.730  18.562   0.200 -0.2268  0.1537  0.1496
26345W        W41476   0.923  18.184   0.418 -0.2437 -0.0852 -0.0405
26346W        W41477  13.495   2.070   0.185  0.1406 -0.0206  0.0007
26347W        W41478   6.647   5.403  13.264  0.1946  0.2140 -0.0628
26348W        W41479   5.577   6.903   9.739  0.0254 -0.1455  0.0047
26349W        W41480  10.372  12.283   2.866  0.1445 -0.0505  0.4570
26350W        W41481   5.909  10.365  12.765 -0.1606  0.0225  0.4519
26351W        W41482  16.786  18.313  13.659  0.2843 -0.1020 -0.4534
26352W        W41483   2.431  16.826  11.194  0.0834 -0.2464  0.0824
26353W        W41484   0.924  15.595   9.429  0.2191 -0.1451 -0.1459
26354W        W41485  14.139  18.092  13.591  0.0939 -0.2130  0.2193
26355W        W41486  17.485   3.036   9.885  0.1345 -0.2809  0.0054
26356W        W41487   1.875   5.666  13.999  0.0515 -0.0653 -0.0982
26357W        W41488   7.590  17.138  11.952  0.0127  0.0315 -0.1020
26358W        W41489   0.890   5.010  12.559  0.2766 -0.2166 -0.0362
26359W        W41490  11.126  14.252   4.087 -0.2206 -0.2000 -0.0754
26360W        W41491  13.676  14.548  15.530 -0.2463  0.0422 -0.1727
26361W        W41492   2.303  10.400  10.370 -0.1755 -0.1845 -0.2373
26362W        W41493   2.644   9.059  13.047  0.0216  0.0198 -0.0463
26363W        W41494  13.392   4.134   5.890 -0.0480  0.3594 -0.1928
26364W        W41495  11.108   5.515  15.036 -0.2732 -0.0809 -0.1842
26365W        W41496  10.335   5.606   5.129  0.2585  0.1588 -0.1982
26366W        W41497  10.272  13.399   3.296  0.0964  0.1399  0.2165
26367W        W41498   9.542  11.678  11.739 -0.2362 -0.0088  0.1075
26368W        W41499  15.570  10.789  15.238  0.0754  0.0173  0.3475
26369W        W41500   6.223   7.832   1.215 -0.1272  0.1481  0.1092
26370W        W41501   2.828   9.496  11.866  0.0191 -0.1001  0.2468
26371W        W41502  11.001  13.881  13.926 -0.4193  0.1883  0.0155
26372W        W41503  17.597   4.608  14.829  0.3879  0.4898 -0.2025
26373W        W41504   1.959   9.968   0.922 -0.1973  0.2812 -0.0055
26374W        W41505   1.231  10.000   4.865  0.3328  0.1756  0.0061
26375W        W41506   4.979   3.490   4.293 -0.1371  0.2151  0.4233
26376W        W41507  12.869  17.087   1.771  0.1903  0.1243  0.1632
26377W        W41508   5.890   3.501   1.631  0.0819  0.3461  0.0722
26378W        W41509  10.587   3.976   3.628  0.2926 -0.0272  0.2791
26379W        W41510  11.718   8.781  14.207  0.0835 -0.1886  0.3486
26380W        W41511   0.800  17.749   3.780  0.0916  0.2119  0.2641
26381W        W41512   0.937  11.202  15.671 -0.1476  0.1899  0.4512
26382W        W41513  14.536  15.853   1.401 -0.1524 -0.2229  0.1118
26383W        W41514   6.288   8.607   4.498  0.0814  0.2568  0.0842
26384W        W41515   7.517  12.215  11.209  0.0507  0.0712  0.1141
26385W        W41516  14.920   5.578   1.612  0.7551  0.3999  0.1730
26386W        W41517  10.404   6.924  11.493  0.0157  0.0267  0.0549
26387W        W41518   0.011  17.614   3.472  0.0264 -0.0620  0.2611
26388W        W41519  18.682   9.324   4.178 -0.1312  0.2930 -0.1310
26389W        W41520   3.984   6.226  11.754 -0.0381  0.1731 -0.1941
26390W        W41521   5.190  14.958   5.038 -0.2623  0.1140 -0.1059
26391W        W41522  11.134   3.000   5.527  0.2087 -0.1419 -0.4806
26392W        W41523  16.114   0.737  11.553 -0.1328 -0.2255  0.0528
26393W        W41524   0.443   6.057   2.072  0.0017 -0.1810 -0.1516
26394W        W41525  18.095  10.065  14.630 -0.1341 -0.1320  0.3127
26395W        W41526  13.371  12.844   2.771 -0.0269  0.0929 -0.0023
26396W        W41527  10.950  17.684   0.421  0.1048 -0.0457  0.0056
26397W        W41528   5.677  10.004  13.042 -0.1498  0.0230  0.1855
26398W        W41529  10.064  15.685  14.146 -0.2009  0.0296  0.0054
26399W        W41530  13.693   4.582  13.511  0.3310 -0.2269 -0.3093
26400W        W41531   2.445   0.639   2.717 -0.2065 -0.1245 -0.1155
26401W        W41532  11.828   8.793   3.357  0.0136 -0.2789 -0.4519
26402W        W41533   3.734   9.873  13.878 -0.0498 -0.1476 -0.0512
26403W        W41534   9.276  12.602   3.504 -0.0085  0.3528 -0.0646
26404W        W41535  14.813  17.148  12.425 -0.1500  0.1245 -0.1709
26405W        W41536  13.627   2.871  13.340 -0.0673  0.0336  0.1452
26406W        W41537  15.075  17.943  11.984  0.3843  0.0477  0.1033
26407W        W41538   7.623   3.322  12.017  0.0610  0.1121  0.0392
26408W        W41539  15.033  13.219   4.072 -0.1834  0.3596 -0.1219
26409W        W41540   8.445   1.415  14.269 -0.0067  0.0772  0.1887
26410W        W41541   0.328   3.525   2.177  0.1672 -0.0492  0.0272
26411W        W41542   5.454  11.968   1.394 -0.2970  0.1980 -0.1218
26412W        W41543   9.383   3.787  13.511 -0.2794 -0.0673  0.1172
26413W        W41544  12.862  13.812   0.672 -0.0111 -0.0150 -0.2332
26414W        W41545   2.573   5.288  11.157 -0.0867  0.2665  0.0148
26415W        W41546   7.258  12.087   6.148  0.1889 -0.0592  0.1635
26416W        W41547   6.461   1.221   2.391 -0.0124  0.1737  0.1182
26417W        W41548   6.891   3.992  13.012  0.0482  0.0245 -0.0374
26418W        W41549  17.201   7.349  11.307  0.0164 -0.1417  0.0051
26419W        W41550  16.701  13.832  11.345 -0.0214 -0.0187 -0.2930
26420W        W41551  10.407   4.794  10.944  0.0091  0.0701  0.2770
26421W        W41552  14.158   4.760   4.339  0.2238  0.2961 -0.1286
26422W        W41553  13.288  18.698   5.389 -0.1031 -0.3673  0.1728
26423W        W41554  13.474   4.395  11.718  0.3151  0.0268  0.3046
26424W        W41555   0.704   9.891  14.177  0.2242 -0.1508 -0.0511
26425W        W41556   0.092   9.750  10.406 -0.2701 -0.2228 -0.1336
26426W        W41557   2.542   2.184   1.115  0.5392 -0.0986  0.0148
26427W        W41558  16.601   0.806  15.646 -0.1233 -0.2052  0.0961
26428W        W41559  10.376   5.948  13.441  0.0679 -0.0559 -0.2967
26429W        W41560  11.043   4.685  10.346  0.1529  0.1009 -0.1333
26430W        W41561  12.518  16.504  11.616 -0.1139 -0.2458 -0.2423
26431W        W41562   1.339  15.381   1.839  0.0615 -0.0346 -0.1752
26432W        W41563   3.655   1.208   3.138  0.1372 -0.1823 -0.0286
26433W        W41564   7.380   8.545  10.321 -0.2606 -0.1932 -0.1279
26434W        W41565  16.538  18.714   3.036 -0.0847 -0.1400 -0.1447
26435W        W41566   5.121  10.224   1.791  0.0796 -0.1372 -0.3446
26436W        W41567   2.821  17.178   5.139  0.0093  0.1055  0.3045
26437W        W41568  11.168   2.910  12.519  0.2148 -0.2368  0.4506
26438W        W41569   4.755   8.146  12.542  0.5448  0.4167 -0.0346
26439W        W41570  13.684  12.913  14.454 -0.2365  0.0487 -0.1826
26440W        W41571   4.940   0.215   2.445  0.0896  0.2149  0.1516
26441W        W41572   1.252  15.621  12.279  0.0507 -0.0287  0.0457
26442W        W41573   6.401   1.811   4.110  0.0887 -0.2868 -0.2029
26443W        W41574  12.147  10.734  14.696 -0.4574 -0.1109  0.1934
26444W        W41575   9.168   9.030  15.448 -0.1820 -0.0905 -0.2266
26445W        W41576   4.695  13.496   4.581 -0.0167  0.2977  0.0148
26446W        W41577  10.948   2.271   1.181  0.2593 -0.0152 -0.4041
26447W        W41578  12.126   4.509  14.764 -0.2478 -0.1324  0.2694
26448W        W41579   5.732   3.411  15.411 -0.0730  0.1719 -0.0883
26449W        W41580   5.183  11.414   0.329  0.1479  0.0767  0.1896
26450W        W41581   5.178  11.449   4.821  0.2968 -0.0372 -0.2393
26451W        W41582  10.198   2.262  11.053 -0.3003  0.3579  0.0628
26452W        W41583  11.695   9.194  13.064  0.1175  0.2115 -0.2552
26453W        W41584   3.908   3.771   3.406  0.3753 -0.1093 -0.1372
26454W        W41585  17.729  15.965   5.089 -0.1904 -0.1000  0.0790
26455W        W41586   7.505   9.661  15.671  0.0501  0.1732  0.1843
26456W        W41587  17.598   1.006   0.452  0.2294  0.0707  0.1659
26457W        W41588  13.424   2.399  13.896  0.4421 -0.0671 -0.0971
26458W        W41589  17.850  16.334  11.966 -0.1409 -0.0621 -0.1478
26459W        W41590  16.562  11.812   2.811 -0.0122 -0.0004  0.1786
26460W        W41591   2.588  12.617   3.176 -0.0228  0.2185  0.2269
26461W        W41592   0.039  15.628  15.264 -0.0849  0.3330  0.1132
26462W        W41593   1.291  12.654   3.830  0.0482  0.0292  0.0736
26463W        W41594   2.047   7.267  12.437  0.0720  0.0479 -0.0085
26464W        W41595   7.887  13.247  12.234 -0.0038  0.2605 -0.0917
26465W        W41596  17.110  11.163   3.290  0.0769 -0.0412 -0.0246
26466W        W41597   0.282  18.437   3.225 -0.0217  0.2571  0.0212
26467W        W41598  10.696  13.449  12.840 -0.0182  0.1069  0.0353
26468W        W41599  10.307   1.920   1.543  0.2251  0.0935 -0.0165
26469W        W41600   8.860   1.413   0.755  0.3760 -0.0531  0.1812
26470W        W41601  17.473  12.108   2.003  0.0980 -0.3936  0.0806
26471W        W41602  17.391  13.659   4.892 -0.0267  0.0492  0.1890
26472W        W41603   5.518  12.800  10.416  0.2816  0.0456  0.1110
26473W        W41604   8.719  17.816   4.264  0.1655 -0.0864  0.1483
26474W        W41605   5.355   2.380   0.978 -0.0833 -0.0171  0.2284
26475W        W41606   7.057   1.134  11.448  0.1611  0.6086 -0.0242
26476W        W41607   7.734   6.227  11.966  0.0013 -0.2472  0.0338
26477W        W41608  14.439  16.618  10.389 -0.0020  0.0063  0.1553
26478W        W41609  11.628  18.627   2.447 -0.2239 -0.1462 -0.2291
26479W        W41610  11.627   4.943   1.084 -0.3437 -0.1178  0.0003
26480W        W41611  10.722  17.402   3.745  0.3211  0.0229 -0.1528
26481W        W41612   6.290   1.756  12.683  0.1305  0.4186  0.2989
26482W        W41613  14.667   3.416  12.157 -0.0365 -0.0039 -0.0862
26483W        W41614   8.854   4.547   0.954 -0.3239 -0.0032 -0.2158
26484W        W41615  17.660  11.462  15.641 -0.3636  0.1526 -0.0928
26485W        W41616   8.968  12.972   5.220  0.3881  0.0710  0.2186
26486W        W41617  15.220   0.382   0.117 -0.0723 -0.3761 -0.4729
26487W        W41618  12.663  13.039   4.209 -0.0271  0.3054 -0.2262
26488W        W41619   5.864   3.874   1.993  0.1949 -0.1197  0.2721
26489W        W41620  10.187  10.473   3.133 -0.0871 -0.0654  0.1856
26490W        W41621   1.142  11.066  12.179  0.0286  0.0381 -0.0292
26491W        W41622   4.682  12.978   1.426 -0.1234  0.0730  0.1018
26492W        W41623  18.614   8.655  14.325  0.1041 -0.4726 -0.0136
26493W        W41624   1.226   6.768  11.345 -0.0445 -0.0473 -0.0837
26494W        W41625  15.099   2.493   0.067  0.0733  0.1708 -0.1805
26495W        W41626   4.103   8.502  14.467  0.1088 -0.1571 -0.0725
26496W        W41627   5.375   8.778   3.164  0.2519  0.0141 -0.1241
26497W        W41628  12.693   2.337   2.494  0.0390  0.1861  0.0224
26498W        W41629   8.445  16.972   5.355 -0.4260  0.0694 -0.1483
26499W        W41630   9.111  15.805   1.404  0.0729 -0.1721  0.0282
26500W        W41631  16.664  12.472   5.206 -0.0488 -0.2557  0.0776
26501W        W41632   2.472   0.642  12.665 -0.1712 -0.0801  0.1838
26502W        W41633   9.521   4.430  12.433  0.2494 -0.0724  0.1859
26503W        W41634  12.165   1.677   2.685 -0.0834 -0.3881  0.3402
26504W        W41635  18.431   7.891  10.140 -0.0306  0.0143  0.2684
26505W        W41636  11.167  12.835   1.404  0.1164 -0.4189 -0.0562
26506W        W41637   5.050   0.214   5.384  0.0646  0.0256 -0.2490
26507W        W41638   6.078  17.563   1.622  0.2606 -0.1788 -0.0995
26508W        W41639  17.620   2.618   1.955  0.3417  0.2007 -0.3583
26509W        W41640   7.490   3.281  14.558  0.1124  0.0572  0.0200
26510W        W41641  14.193   9.235   3.889 -0.0268  0.1216 -0.0835
26511W        W41642  16.210  18.612   0.325 -0.1599 -0.1280  0.5525
26512W        W41643  18.666   4.497  12.823  0.2248 -0.0187  0.4777
26513W        W41644  17.855  16.479  11.476  0.1259 -0.0952 -0.0708
26514W        W41645   1.566   6.833  15.127  0.0863  0.3752 -0.0703
26515W        W41646  14.163   5.088  13.984  0.3467 -0.3410 -0.2969
26516W        W41647  10.109  18.249  15.175 -0.1654  0.1901  0.0166
26517W        W41648  13.467   7.901  12.613 -0.1319 -0.1338  0.0276
26518W        W41649   5.773   4.528   4.956  0.1390  0.1099  0.2501
26519W        W41650   3.687  15.645   4.434 -0.2586  0.2341 -0.1882
26520W        W41651   9.783   6.211   5.447  0.1268  0.1494  0.0348
26521W        W41652  12.224  15.488  13.558  0.3886  0.0614 -0.2182
26522W        W41653  14.168   7.910  14.607  0.3606 -0.2249  0.2384
26523W        W41654   5.093  18.210  14.860  0.0967 -0.2759  0.1878
26524W        W41655   4.944  10.518   2.718  0.1903 -0.2804 -0.1406
26525W        W41656   8.468  16.947   1.403  0.1110 -0.1628  0.3300
26526W        W41657   6.415   2.958   0.625 -0.0652  0.1358  0.0722
26527W        W41658  14.726   0.567   2.969  0.3311 -0.1973 -0.0130
26528W        W41659  12.080   4.109   0.502 -0.0172 -0.0565 -0.0933
26529W        W41660  18.750  17.971  13.088  0.1229  0.0668  0.0079
26530W        W41661  12.104   4.902  11.573  0.2662  0.1788 -0.1979
26531W        W41662  13.953  13.052  13.540 -0.0195  0.2811  0.1926
26532W        W41663   9.238   1.097   1.589 -0.1036  0.0108 -0.0204
26533W        W41664   6.505  11.230  15.389 -0.1981 -0.0248 -0.0606
26534W        W41665   0.761  12.335  13.901  0.2087  0.1733  0.1598
26535W        W41666   0.883   2.998   1.807  0.0092 -0.3962  0.0382
26536W        W41667   2.844  10.643   3.401  0.1121  0.1865  0.1631
26537W        W41668   8.459   3.046   5.306  0.1146 -0.1724  0.1918
26538W        W41669  10.786   6.465   1.219 -0.1404  0.0788  0.0010
26539W        W41670   2.942  16.684  11.239 -0.1176  0.2987  0.3223
26540W        W41671   9.565   6.579   2.065  0.1008  0.4290 -0.0827
26541W        W41672   5.101  14.135  10.750 -0.2022  0.1821  0.1132
26542W        W41673   1.799   5.242  15.488 -0.0163  0.0109  0.0988
26543W        W41674   3.473   9.216   1.267 -0.2153  0.1452 -0.1239
26544W        W41675   3.565   9.223   4.811  0.0524  0.1271 -0.3883
26545W        W41676   9.019   1.955   5.054  0.0324 -0.2461  0.0948
26546W        W41677   7.235  13.886  11.696 -0.2041 -0.0482 -0.4859
26547W        W41678  11.444   5.868  13.517 -0.0100 -0.0756  0.0653
26548W        W41679   6.295  16.820   5.593  0.1620  0.0455 -0.4662
26549W        W41680  17.356   1.743  14.437 -0.0928  0.1447 -0.1071
26550W        W41681  11.157  12.461  13.539  0.0196 -0.1516 -0.1075
26551W        W41682  16.985  18.009  13.352  0.2609  0.0606 -0.0676
26552W        W41683  15.619   9.749   3.242  0.1837 -0.0272  0.0135
26553W        W41684  15.691   1.534   5.091 -0.1383  0.1376  0.0322
26554W        W41685  11.501   7.747   4.060 -0.1419  0.0706 -0.1544
26555W        W41686  16.271  14.557  12.415 -0.1062  0.0040 -0.0617
26556W        W41687  17.853   8.723  12.440  0.0119 -0.0944 -0.0453
26557W        W41688  17.286   4.446  10.320  0.1516  0.0783  0.2601
26558W        W41689  12.847  15.752  13.900 -0.0458  0.0301  0.0642
26559W        W41690   1.833   4.895   3.738 -0.0230  0.0779  0.0241
26560W        W41691  18.141   0.016  12.801  0.2401  0.1561 -0.2194
26561W        W41692  11.204  17.526  14.614 -0.1308 -0.1195  0.2391
26562W        W41693   9.988  14.836   1.292 -0.3301  0.0828  0.1188
26563W        W41694  10.006   3.180  11.045  0.0538 -0.0571  0.2085
26564W        W41695   9.084  12.929   3.040  0.0339 -0.2296 -0.0919
26565W        W41696  16.683  13.808  10.432 -0.0463 -0.0642 -0.0896
26566W        W41697   3.506  15.238   5.246 -0.1119  0.0693 -0.0836
26567W        W41698  16.586  14.295   0.641 -0.0065 -0.2086 -0.3037
26568W        W41699  12.333  17.844   2.187 -0.3840  0.2299 -0.1610
26569W        W41700  11.167   4.609  13.915 -0.2210 -0.2696  0.0621
26570W        W41701   7.993  11.455   5.097 -0.6214 -0.2696  0.3013
26571W        W41702  17.006   3.169  13.350 -0.0562  0.0079  0.1761
26572W        W41703   6.920   5.507   0.904  0.2233 -0.2567 -0.0575
26573W        W41704  15.794  12.916   1.309  0.1856  0.1146  0.2603
26574W        W41705  11.694   7.288  13.052 -0.1618  0.1477 -0.0753
26575W        W41706  12.114   0.514   4.550 -0.1642 -0.2980  0.3414
26576W        W41707   5.941  11.023  10.968  0.0153 -0.0043  0.0194
26577W        W41708   2.718  13.991   3.418  0.3055  0.0213 -0.0407
26578W        W41709   5.671   9.100  13.247 -0.0859  0.0277 -0.2374
26579W        W41710   9.966   0.569   1.760  0.0619  0.1320 -0.0169
26580W        W41711  10.997  10.219  15.483  0.1046 -0.3109 -0.1132
26581W        W41712  13.849  10.789   1.198 -0.6233  0.1805 -0.1908
26582W        W41713   0.357  16.430  15.719  0.0468 -0.0519  0.0883
26583W        W41714   7.058  14.893  14.716  0.3119  0.1866 -0.0232
26584W        W41715   1.066   8.867  15.285 -0.0293 -0.0058  0.1501
26585W        W41716  13.211   0.295  10.597 -0.1763  0.0103 -0.0935
26586W        W41717  11.134  11.474   2.796 -0.0614  0.1406 -0.1824
26587W        W41718   6.852   4.442   1.213 -0.1059 -0.0318  0.1234
26588W        W41719   2.802  13.965  12.856  0.0970  0.0396 -0.0704
26589W        W41720   3.585  14.914   2.668 -0.0333 -0.0187 -0.0812
26590W        W41721  11.224   3.652  14.329  0.0457  0.0093  0.4950
26591W        W41722   9.122   9.364  15.083  0.2228 -0.0415  0.1235
26592W        W41723   4.069   1.527  11.137  0.1080 -0.3255 -0.0005
26593W        W41724  16.754   6.845   2.015  0.1446  0.3123 -0.0145
26594W        W41725   6.304  13.233   4.150  0.1446  0.0107  0.0192
26595W        W41726  15.359   2.279   2.117 -0.2264 -0.0913 -0.1700
26596W        W41727  13.684   0.875   5.343  0.0442 -0.3011 -0.1718
26597W        W41728  14.986  11.900  12.884  0.0725 -0.0859 -0.1917
26598W        W41729  12.136   8.703   1.139 -0.1357  0.1510 -0.1501
26599W        W41730   7.249   0.304   1.182  0.2836  0.0947  0.2906
26600W        W41731   6.843   1.927  13.756  0.0079 -0.0709  0.3191
26601W        W41732  10.104  18.167   4.504  0.0726 -0.0731 -0.0842
26602W        W41733   3.830  12.105  14.595  0.4073  0.3412  0.3043
26603W        W41734  15.797  14.150   2.061  0.1952 -0.1170  0.3166
26604W        W41735  18.247  15.726  13.087  0.1847 -0.0733  0.0278
26605W        W41736   1.408   9.585   4.031 -0.1316  0.2104 -0.4601
26606W        W41737   6.296   2.283  11.379  0.0372 -0.1417  0.1718
26607W        W41738  17.160   7.960  15.745  0.2328  0.0189 -0.3230
26608W        W41739  12.098  11.322  12.227  0.3115  0.4094 -0.0798
26609W        W41740   0.571   0.292   1.727 -0.4295 -0.0317 -0.0215
26610W        W41741   7.413   0.886  12.947  0.2293 -0.0726  0.4028
26611W        W41742   5.901   3.908  15.459  0.1475 -0.2195 -0.3879
26612W        W41743  16.708  13.110   0.197  0.0542  0.0364 -0.0476
26613W        W41744   3.273   6.360   0.140  0.1091  0.0086 -0.0043
26614W        W41745  16.751   8.023   3.476  0.0009 -0.0791  0.0358
26615W        W41746  14.888  17.227   4.469  0.0485  0.1170  0.0187
26616W        W41747   5.774  14.871  14.702 -0.0041  0.2065 -0.0267
26617W        W41748   8.753  11.258  12.450  0.2580 -0.5187 -0.0763
26618W        W41749  13.936  14.215   5.029  0.0238 -0.0616  0.1206
26619W        W41750   9.259   9.342  13.246 -0.1009 -0.0632  0.0236
26620W        W41751  12.522   7.208   2.049  0.1915  0.3295 -0.1760
26621W        W41752   4.618   2.202   2.468  0.0466  0.0564 -0.2698
26622W        W41753   4.442  14.218   2.846 -0.2576  0.0947 -0.3888
26623W        W41754   1.959   8.828  15.413 -0.0312  0.4422 -0.0080
26624W        W41755   2.754   1.958   2.133 -0.0831 -0.0904 -0.0067
26625W        W41756  17.836  18.318  14.093 -0.2838 -0.0109 -0.3342
26626W        W41757   8.854  13.766  13.558 -0.0634  0.1804  0.5260
26627W        W41758  16.520   8.976   2.471 -0.1738 -0.1952  0.0017
26628W        W41759   8.843   7.319  11.508 -0.1665  0.0324 -0.0931
26629W        W41760  13.694   4.931  10.472  0.1379  0.2544 -0.1518
26630W        W41761   8.410  13.257   4.316 -0.2919 -0.0237 -0.0066
26631W        W41762   7.934  15.106   3.731  0.2887 -0.1074  0.0940
26632W        W41763  14.433  10.619   1.217 -0.1719  0.0015  0.2909
26633W        W41764  14.613   6.579  10.670  0.0688 -0.0055  0.1629
26634W        W41765  11.077  16.127   4.362  0.2089 -0.2008  0.1045
26635W        W41766  18.302   0.871   0.904  0.0833  0.0842 -0.1848
26636W        W41767   5.864   2.850   3.689 -0.1110  0.1269  0.1132
26637W        W41768   5.465  12.282   5.731 -0.2002  0.2245 -0.5771
26638W        W41769  11.839  15.840  11.591  0.0670  0.0874 -0.2326
26639W        W41770   0.715  17.309   5.489 -0.2032 -0.0759  0.0559
26640W        W41771   0.312  16.944  13.194 -0.1107 -0.1287  0.0496
26641W        W41772   8.419   2.310  11.302  0.0929  0.3985 -0.0593
26642W        W41773   9.913  11.259   5.393 -0.2091  0.0165 -0.0669
26643W        W41774   8.563  12.282   1.642  0.0132 -0.2743  0.1158
26644W        W41775   8.247   8.538  15.603 -0.2252 -0.1300 -0.1577
26645W        W41776  17.960  15.030   0.778  0.1168  0.4741 -0.1921
26646W        W41777  10.858  13.379   2.042 -0.4128  0.0847  0.2092
26647W        W41778   9.821   2.457   0.717  0.1307 -0.0144 -0.4385
26648W        W41779   8.480  15.705  15.623  0.5142  0.2242 -0.0086
26649W        W41780   0.451  14.764  14.675  0.1418 -0.2158 -0.3982
26650W        W41781   8.877  10.976  12.944  0.0767  0.2017 -0.2587
26651W        W41782  13.540  12.026   2.066 -0.1698 -0.0672  0.1548
26652W        W41783   8.302  15.519  13.894 -0.0840  0.2527  0.2233
26653W        W41784  16.250  13.118  10.935 -0.1038  0.2112  0.0325
26654W        W41785  13.272   7.078   5.239 -0.0199 -0.0254  0.2050
26655W        W41786  17.287   4.761   1.569  0.0619  0.0789  0.0438
26656W        W41787   0.284   9.695  15.302  0.3227  0.0381 -0.2110
26657W        W41788   8.719  15.852  12.869 -0.2391  0.0113  0.1419
26658W        W41789  15.748   6.888   2.053 -0.0589 -0.2835  0.1951
26659W        W41790   0.285  12.039  12.812  0.0204 -0.0375 -0.1321
26660W        W41791  17.410  10.946   0.565 -0.2093 -0.2954  0.2344
26661W        W41792   0.621   1.132   1.389  0.2284  0.2501  0.0113
26662W        W41793  10.190   4.962  14.728  0.0941 -0.1250  0.1155
26663W        W41794   9.191   7.768  12.106  0.2703  0.1008 -0.1200
26664W        W41795  17.919   5.097   0.975 -0.0830  0.1856  0.0428
26665W        W41796   2.645   6.708   3.515 -0.3014 -0.1062  0.2073
26666W        W41797  12.236  17.781  12.755  0.0995 -0.2745 -0.1654
26667W        W41798  15.669   7.019  14.479  0.0105  0.0632  0.1817
26668W        W41799   8.799  15.720  13.473 -0.5086 -0.0974  0.1852
26669W        W41800   1.528   6.548   2.016  0.1323 -0.1976  0.0031
26670W        W41801   4.173  10.791   1.085 -0.0499  0.0028 -0.1332
26671W        W41802   0.519  11.670   1.785 -0.1487  0.1127 -0.0616
26672W        W41803  11.119   8.128   5.227 -0.2515 -0.1174 -0.2794
26673W        W41804   1.890   1.368   3.787  0.2126  0.1917 -0.2691
26674W        W41805   9.514  12.569   2.206  0.0403 -0.0800 -0.0765
26675W        W41806  15.443  13.883  11.292  0.1785 -0.2187  0.0819
26676W        W41807  16.327   2.026  13.726 -0.2401 -0.1926  0.0947
26677W        W41808  16.980  17.854  13.806 -0.1442 -0.2544  0.1791
26678W        W41809  17.688  12.342   9.816  0.1313 -0.2499 -0.1985
26679W        W41810   5.650   5.637  12.157  0.0084 -0.0146  0.2517
26680W        W41811  18.722   3.099   2.094 -0.0881  0.0576 -0.2405
26681W        W41812   3.185  16.273  11.389  0.1804 -0.2009  0.1912
26682W        W41813   1.931  10.121   4.406  0.1074 -0.1879 -0.0511
26683W        W41814   6.698  17.589   4.841 -0.1312 -0.0125  0.1777
26684W        W41815   1.497  10.855  11.417 -0.0608  0.2230  0.0721
26685W        W41816   7.539  13.125  12.660 -0.0753  0.1323  0.3576
26686W        W41817   6.310   3.299   0.248 -0.0918  0.1121 -0.1354
26687W        W41818   1.032   2.196  14.062  0.1262 -0.0313  0.0224
26688W        W41819  11.885   6.734  14.318  0.0390  0.0320 -0.2311
26689W        W41820  10.383  16.740   3.030 -0.2565 -0.0931 -0.1830
26690W        W41821  15.366  16.024   2.086  0.3487  0.1371  0.0765
26691W        W41822  13.093  10.494   1.155 -0.0313  0.0935  0.0615
26692W        W41823  15.636   1.378  15.420 -0.0347  0.0547  0.0428
26693W        W41824  14.671   9.119   1.385 -0.1644  0.3430  0.0657
26694W        W41825  11.792  10.402  14.419  0.1110 -0.1197  0.3403
26695W        W41826  18.416  11.158   2.077 -0.0460  0.0644 -0.0002
26696W        W41827  16.864  18.257  14.205  0.0997 -0.0135  0.0984
26697W        W41828   5.323   0.906   1.579 -0.0149  0.0768  0.1090
26698W        W41829  12.266   6.899   4.224 -0.4686 -0.1740 -0.1246
26699W        W41830  12.507  15.379  12.817 -0.0741  0.1859  0.1387
26700W        W41831  12.950  13.805  15.671 -0.1047 -0.1890  0.0147
26701W        W41832   9.441   5.786  15.714 -0.3480 -0.1224 -0.2612
26702W        W41833   6.615   3.888  10.333 -0.3140 -0.2538  0.4739
26703W        W41834  10.202   9.554   3.046 -0.2298 -0.0012  0.0084
26704W        W41835   5.733   9.729  11.339  0.0808 -0.0622  0.3494
26705W        W41836  17.788  12.731   2.998  0.3288  0.1590  0.0516
26706W        W41837   4.069   1.878  15.295  0.3030 -0.0812 -0.2529
26707W        W41838  15.246   9.669  10.966 -0.0812 -0.0998  0.1521
26708W        W41839   6.387  16.887   4.702  0.1552 -0.0980  0.0044
26709W        W41840   7.601  11.134  13.419 -0.0566  0.0545  0.0037
26710W        W41841  14.210  11.051  11.239 -0.1851  0.0800 -0.0615
26711W        W41842  16.170   7.832  14.447  0.0432  0.0906 -0.1509
26712W        W41843   8.106   5.024   0.272 -0.1928 -0.0288 -0.0266
26713W        W41844  14.837   1.092   2.896  0.3488  0.1056 -0.2654
26714W        W41845  12.638   2.643  12.760  0.0189 -0.3188  0.1191
26715W        W41846   9.842  18.236   0.711  0.1312  0.0598 -0.0270
26716W        W41847  14.700  13.732  13.234  0.1210  0.4471  0.1333
26717W        W41848  17.508   9.973  12.294 -0.2136 -0.1758  0.2559
26718W        W41849   3.123   4.578   2.518  0.1119  0.2090 -0.0756
26719W        W41850   7.995   6.269  12.514 -0.2158  0.1706  0.0776
26720W        W41851   4.196   2.746   4.896 -0.2350  0.0279  0.1240
26721W        W41852  11.965  13.236   3.531 -0.2711 -0.1743 -0.0138
26722W        W41853   8.930   6.286  12.266  0.4223 -0.0959 -0.4744
26723W        W41854   3.231   5.077  14.783 -0.2369  0.0110  0.3857
26724W        W41855  15.322  17.771  15.168  0.1104 -0.1222  0.1794
26725W        W41856   4.167   8.720   1.351 -0.0698  0.3049  0.3662
26726W        W41857   1.274  15.263   2.349 -0.0696 -0.1710  0.1003
26727W        W41858  13.886  13.649   5.296  0.0079  0.0602 -0.1961
26728W        W41859   3.868  10.928  13.638 -0.0850  0.3596  0.0525
26729W        W41860  12.412   4.341  10.972  0.2069  0.0583 -0.1037
26730W        W41861   8.924  15.275  11.726 -0.0384 -0.0370  0.0408
26731W        W41862   9.183   9.067  13.713 -0.2960  0.2279 -0.3845
26732W        W41863  12.988  11.986   2.184  0.0084 -0.0617  0.0934
26733W        W41864   1.944  13.609   2.173 -0.3126 -0.0654  0.2190
26734W        W41865  13.391  10.543  13.201  0.0600  0.1974 -0.2571
26735W        W41866   5.471  14.576   1.819  0.0302 -0.0582 -0.1228
26736W        W41867   2.007  16.879  10.354  0.2863  0.4165  0.0706
26737W        W41868  10.316   0.912  13.261  0.2067 -0.0768 -0.0315
26738W        W41869  10.151   6.934  11.968  0.2922 -0.0603  0.0864
26739W        W41870  15.830   4.139   5.127 -0.3547 -0.0497 -0.2445
26740W        W41871  10.859   5.620   4.533  0.0457  0.0801 -0.1727
26741W        W41872   2.766  10.353  15.148 -0.2636  0.1925 -0.3465
26742W        W41873  11.288   1.426  15.017  0.0099 -0.2015 -0.1394
26743W        W41874   4.595  16.559  14.019 -0.0105 -0.2262 -0.0200
26744W        W41875   0.781   7.749  15.600  0.0021 -0.3257  0.2537
26745W        W41876  11.423  17.873   2.793  0.1444 -0.1582 -0.0868
26746W        W41877  15.280  15.660  11.766  0.1591 -0.2586  0.3994
26747W        W41878   9.503   4.853  15.298  0.0874  0.0757  0.0326
26748W        W41879   5.061  18.242   0.832 -0.1090 -0.1359 -0.1847
26749W        W41880   0.695   0.734  15.437 -0.1090 -0.1324 -0.1999
26750W        W41881  13.632  11.755  12.750  0.0399 -0.0253 -0.1320
26751W        W41882   3.391   3.702   2.697 -0.0261  0.1925 -0.0148
26752W        W41883  10.124   7.250   4.486  0.1231  0.1148  0.1744
26753W        W41884   4.309   1.691   4.578  0.0047  0.3327 -0.0131
26754W        W41885  16.656   9.441   9.868 -0.0860  0.0082  0.2807
26755W        W41886   9.252   6.742  15.356 -0.0059 -0.1054 -0.2308
26756W        W41887  14.576   1.194   1.229 -0.2073  0.0162  0.1300
26757W        W41888   8.566  11.302  10.815  0.1555 -0.0143 -0.0090
26758W        W41889  16.109   9.153   4.405 -0.1723  0.3641  0.2321
26759W        W41890  15.100  14.388   3.075 -0.0178  0.0582  0.1843
26760W        W41891  11.551  17.279  14.324 -0.0023  0.1389  0.2041
26761W        W41892  13.261   6.935   3.882 -0.4150 -0.2288 -0.0040
26762W        W41893  14.400  17.231   4.281  0.2743  0.0268  0.3289
26763W        W41894  18.010   3.579   0.861 -0.2639 -0.1024  0.3246
26764W        W41895   0.640  17.874   4.313  0.0915 -0.1571  0.3098
26765W        W41896  14.871  14.506   3.518 -0.1868 -0.1514 -0.0228
26766W        W41897  16.499   9.481   0.020 -0.1438 -0.0160  0.3083
26767W        W41898  15.782  12.892  14.271  0.1811  0.4156  0.0661
26768W        W41899   5.901  12.024   5.336  0.1646 -0.0363 -0.1113
26769W        W41900   5.791   9.627  14.120  0.0621 -0.1814  0.1450
26770W        W41901   4.564   7.087  13.000  0.1294  0.1152  0.2767
26771W        W41902  13.334   8.750   2.926  0.2589  0.2162  0.1988
26772W        W41903   1.837   7.797  15.305 -0.0967 -0.1086  0.4363
26773W        W41904  14.399   1.810  12.627 -0.1839 -0.3367 -0.3305
26774W        W41905  14.090  17.827  12.168 -0.2052 -0.3056  0.2160
26775W        W41906  14.240  16.582   4.869  0.1882  0.0864  0.0537
26776W        W41907   2.230  14.819  13.150 -0.1805  0.2477  0.0281
26777W        W41908  16.074   5.547   3.962  0.2011  0.0728 -0.0422
26778W        W41909   0.042   4.691  11.039  0.2185  0.1474 -0.0540
26779W        W41910  18.258   0.718   5.574  0.0704  0.1584  0.1675
26780W        W41911   5.392   1.348  10.695  0.2060 -0.1192  0.2978
26781W        W41912  12.190   1.784   4.280 -0.1246 -0.0550 -0.0007
26782W        W41913   5.871   9.966   0.030 -0.3966 -0.0767 -0.1018
26783W        W41914  12.790   3.958  12.927 -0.2182 -0.4467  0.0893
26784W        W41915   4.542  18.154   4.613 -0.2177  0.1275  0.0893
26785W        W41916   4.563   2.009  13.443 -0.2676  0.0253  0.0455
26786W        W41917   1.352  12.296  14.999 -0.2222  0.1629  0.1968
26787W        W41918  12.464  11.011   0.255  0.1374 -0.0145  0.1641
26788W        W41919   2.703   2.418  12.249  0.0878  0.0676  0.1779
26789W        W41920  18.544   8.074   4.448 -0.1333 -0.0509  0.1371
26790W        W41921  17.528  15.353   3.388  0.1748 -0.1984 -0.0367
26791W        W41922   3.124   0.130   5.405  0.2044 -0.1565 -0.0010
26792W        W41923   3.061  18.689  13.336 -0.0009 -0.2093 -0.1094
26793W        W41924  13.432  15.139  13.343 -0.2892 -0.0205 -0.3011
26794W        W41925   2.208   9.276   2.026  0.0817 -0.0286 -0.2773
26795W        W41926  11.327   9.388   6.156 -0.1974  0.0939 -0.0154
26796W        W41927  17.152  15.295   4.693 -0.0169 -0.2401  0.1522
26797W        W41928  16.732   8.306  13.186  0.1008  0.1376  0.3351
26798W        W41929   5.519   7.208   4.599 -0.0226 -0.2247  0.2506
26799W        W41930   0.581   6.622   2.150  0.0577 -0.1426 -0.1518
26800W        W41931  18.285   9.186  14.852 -0.0516  0.0306  0.2458
26801W        W41932   7.913   6.719  12.271  0.0367  0.0061  0.2491
26802W        W41933  14.355   6.525  12.886  0.0640 -0.1266  0.3769
26803W        W41934   6.625   0.763   1.712  0.3136 -0.1183  0.0821
26804W        W41935   2.279  12.278   2.685  0.0837 -0.2207  0.1304
26805W        W41936   5.806   3.692   4.689 -0.1796 -0.1831 -0.2261
26806W        W41937   4.831   2.344  14.190  0.2094 -0.0335 -0.2172
26807W        W41938   4.053   0.760   0.844 -0.2019 -0.0945 -0.0197
26808W        W41939  17.121   8.183  10.515 -0.3027 -0.1764 -0.0542
26809W        W41940   8.937  14.561  12.422  0.0263  0.0206  0.2284
26810W        W41941   7.414  13.984  13.120 -0.2420 -0.0764  0.1854
26811W        W41942   6.264  12.238  13.967  0.0537  0.0343  0.0202
26812W        W41943   9.017   7.381  12.409 -0.0530 -0.1414  0.0500
26813W        W41944  18.688  12.003   4.403  0.1174  0.1485  0.0754
26814W        W41945  11.375  18.071  12.140 -0.4383  0.1708  0.1359
26815W        W41946   4.584   7.283  15.482 -0.0397  0.0935 -0.0124
26816W        W41947   4.851   4.850   2.128 -0.0825 -0.1241  0.1206
26817W        W41948  10.974  11.357   5.221 -0.0994 -0.0890  0.0946
26818W        W41949   9.722  15.524   3.723 -0.4385 -0.0395  0.2490
26819W        W41950   9.242  13.982  14.077 -0.1565 -0.1495  0.1232
26820W        W41951   2.095   8.685   9.698  0.1124 -0.3413  0.0026
26821W        W41952  17.086  12.809  13.008  0.3768  0.0267  0.2228
26822W        W41953  14.584  10.111  13.006  0.0783 -0.0379  0.0927
26823W        W41954  10.747  11.383  11.376 -0.1053  0.0449 -0.0858
26824W        W41955   7.297   3.857  13.887  0.0541  0.0472 -0.0187
26825W        W41956  10.228   2.021   4.113  0.3065  0.2017 -0.1488
26826W        W41957   2.344  17.652  14.063  0.2399  0.4785  0.2972
26827W        W41958   0.444   9.051  13.691  0.0682  0.0153 -0.0882
26828W        W41959   5.584  16.018  14.471 -0.1345  0.1236 -0.0009
26829W        W41960   0.757   8.143  15.018  0.3305  0.0673  0.1102
26830W        W41961   1.206  12.435  12.420  0.1898  0.1095  0.1650
26831W        W41962  17.207   3.309  15.695  0.0462 -0.2047  0.1460
26832W        W41963  15.748   2.669  13.220  0.0495  0.0409 -0.4881
26833W        W41964  12.412  11.011   1.118 -0.1004  0.2840  0.0880
26834W        W41965   5.553   1.195   5.833  0.6019 -0.1491 -0.2132
26835W        W41966  12.604   5.649   0.997  0.1107 -0.0748 -0.0628
26836W        W41967   3.235  13.256  13.338 -0.2665  0.0416 -0.3030
26837W        W41968   6.046   3.791   3.779  0.0198 -0.1328  0.0295
26838W        W41969  17.851   2.107  15.396 -0.0451  0.0883 -0.0114
26839W        W41970  11.189  14.815  12.605  0.1733 -0.1197 -0.1454
26840W        W41971  12.484  10.317  13.159  0.0157 -0.2970 -0.0615
26841W        W41972   5.649   3.285   4.508 -0.0362 -0.2146  0.4399
26842W        W41973  16.310  14.237   2.093  0.4440 -0.1128  0.1398
26843W        W41974   4.959   2.450  14.861 -0.0124 -0.0924  0.2409
26844W        W41975  15.861  14.707   5.428 -0.0315  0.2405 -0.0559
26845W        W41976   6.397  17.224  14.182  0.1234  0.2617 -0.1853
26846W        W41977  15.918  15.680  14.663 -0.2604  0.1953  0.1046
26847W        W41978   8.140   0.257   4.938 -0.2689 -0.0316  0.1360
26848W        W41979   0.810   5.876  13.840  0.1260  0.1917 -0.2781
26849W        W41980   3.537  16.438  12.477  0.0478 -0.1005 -0.2779
26850W        W41981   6.624  18.686   1.783 -0.2170  0.2550  0.0460
26851W        W41982   3.815  13.066   5.507  0.2452 -0.1791 -0.0336
26852W        W41983   8.797  16.733   4.253  0.2972 -0.3123  0.1095
26853W        W41984   0.658  17.337  11.773 -0.3086 -0.0424 -0.0510
26854W        W41985  14.991  12.097   4.433 -0.4953 -0.2777 -0.0467
26855W        W41986   7.992  12.613  13.994 -0.2548 -0.0216 -0.0687
26856W        W41987   5.446   3.812   3.417  0.2034 -0.2415 -0.1203
26857W        W41988   4.248   3.585  15.365 -0.2668  0.0743 -0.0990
26858W        W41989  14.270   5.110   2.905 -0.0259 -0.2290 -0.0461
26859W        W41990   4.247  10.394   0.606  0.1443 -0.3022 -0.1152
26860W        W41991  13.253   9.202   2.745 -0.1660 -0.2994 -0.0237
26861W        W41992   0.012   7.120   3.486 -0.1720  0.2339  0.0127
26862W        W41993   7.068  13.297   1.678  0.0498 -0.1818  0.0335
26863W        W41994   0.929   1.196   2.644 -0.0303  0.1034 -0.2502
26864W        W41995   9.157   3.561  13.930  0.1659  0.1124  0.0726
26865W        W41996   8.450  11.101  14.012 -0.1666  0.0639 -0.1880
26866W        W41997   0.461   0.561   3.596  0.1301  0.3035 -0.0180
26867W        W41998  16.959   9.793  13.168 -0.0908 -0.1339 -0.0862
26868W        W41999  14.528  16.482  13.724  0.0380  0.1385 -0.1620
26869W        W42000   2.160  11.769   6.024  0.2598  0.3872 -0.0036
26870W        W42001  18.354   5.160  13.291  0.0338 -0.1444 -0.0645
26871W        W42002   6.756   9.582   0.461 -0.5878  0.0325  0.2087
26872W        W42003   5.828   4.015   1.334  0.1658  0.0179  0.2119
26873W        W42004  11.472  10.715   4.434  0.0667 -0.1402  0.0395
26874W        W42005   1.234   3.723   3.428  0.1967  0.0461 -0.3200
26875W        W42006  17.725  13.978  12.247 -0.0864 -0.0697  0.1272
26876W        W42007   4.892   8.556   2.181  0.2276 -0.2881 -0.0252
26877W        W42008  10.245  11.156  14.111  0.2874 -0.2144  0.0152
26878W        W42009  17.532  16.474  12.872  0.1234 -0.0520 -0.0083
26879W        W42010  14.229   9.323  15.205 -0.1484 -0.1941  0.1817
26880W        W42011  18.062   4.692   3.595 -0.0282 -0.1825  0.3124
26881W        W42012  16.992  12.983  15.461 -0.0674  0.2427 -0.4678
26882W        W42013  12.550   5.860   0.523  0.0369 -0.1120  0.0075
26883W        W42014   4.471  11.896  10.653  0.1333  0.0392  0.0239
26884W        W42015  10.722  14.644  15.216 -0.2501  0.0552  0.1912
26885W        W42016  11.317  12.044   5.731  0.2672 -0.0027  0.1349
26886W        W42017  18.189   9.561  14.573  0.1129 -0.2054  0.2273
26887W        W42018   7.898   3.227  14.351  0.5243  0.3550  0.2584
26888W        W42019  14.220  10.691   0.303 -0.0621  0.4118  0.0810
26889W        W42020   6.068   1.244  12.711 -0.1004  0.1099 -0.3045
26890W        W42021   4.920  11.766  12.285 -0.0834  0.1787 -0.1539
26891W        W42022   4.506   7.133  13.548  0.1000  0.0381 -0.0446
26892W        W42023   3.125  13.713  13.585 -0.4130 -0.1298  0.0023
26893W        W42024  17.697   1.617   0.571 -0.0464  0.4891  0.1954
26894W        W42025  12.771  12.993  11.887 -0.0817  0.0924  0.1372
26895W        W42026   2.365   7.155  14.508 -0.1333 -0.1517  0.1513
26896W        W42027  15.010  16.049  12.548 -0.1886 -0.2195 -0.1420
26897W        W42028   4.491   7.653   4.031  0.0505 -0.2283  0.2225
26898W        W42029   8.874  10.830  14.059  0.0838  0.2767 -0.2440
26899W        W42030   8.020   2.874  13.919 -0.1277  0.2091 -0.2990
26900W        W42031   6.348   5.802   0.722  0.2128 -0.2307  0.3512
26901W        W42032   5.443  16.077   1.217 -0.2905  0.5049  0.0114
26902W        W42033  18.349   6.570  10.385 -0.1296 -0.3410 -0.1656
26903W        W42034   2.155   5.784   5.026  0.0513  0.4799 -0.2019
26904W        W42035   9.848  10.968   2.493  0.1566 -0.0622 -0.1394
26905W        W42036  16.872  13.391  15.199  0.0059 -0.0558 -0.1823
26906W        W42037   6.792   6.036   0.894  0.2474  0.0567  0.1153
26907W        W42038   2.605  13.091  14.116 -0.2756 -0.0842 -0.2701
26908W        W42039   4.880   5.412   1.294  0.0697 -0.2006  0.0264
26909W        W42040   8.234  16.606  11.635 -0.3575  0.1016 -0.0007
26910W        W42041   7.286  12.544  11.519 -0.2303  0.0425 -0.0626
26911W        W42042   1.293  15.250  13.127 -0.2324  0.0786  0.3571
26912W        W42043  15.606  10.288  12.520 -0.2577 -0.0444  0.1509
26913W        W42044  16.208   8.602   2.158  0.2163 -0.0733  0.0367
26914W        W42045  13.682   4.789   2.437  0.1252  0.1798  0.0202
26915W        W42046   3.131  16.856   2.461 -0.0144 -0.1851  0.0064
26916W        W42047  10.808  15.703   3.643 -0.0196  0.0784  0.0666
26917W        W42048  12.071   9.629   2.438  0.2124 -0.0052 -0.1580
26918W        W42049   7.459  16.633  12.767 -0.1277 -0.2692 -0.0079
26919W        W42050   4.392  17.338   2.654 -0.1908  0.0204  0.0981
26920W        W42051  13.497  14.237   3.553 -0.0088 -0.1975 -0.3691
26921W        W42052  16.596  15.471  11.179  0.1295 -0.0652 -0.0284
26922W        W42053  12.167  13.223  12.009  0.0691 -0.0295  0.0462
26923W        W42054  14.364  10.393  14.372  0.0431 -0.2581 -0.0380
26924W        W42055  10.137   4.484   2.917 -0.0870 -0.5300  0.4049
26925W        W42056  13.455  15.353  12.814  0.1559  0.2254  0.1683
26926W        W42057   5.941   4.254  13.006  0.2853 -0.1851  0.2608
26927W        W42058   5.492  12.216  14.669 -0.0585  0.0709  0.1961
26928W        W42059  16.775   6.269  10.612  0.0051 -0.2170  0.4763
26929W        W42060   3.902   7.862  10.596 -0.0116  0.0848  0.1922
26930W        W42061   5.871   6.098   1.854  0.3735 -0.1079 -0.2045
26931W        W42062   3.216  18.407   9.609 -0.0872 -0.4199  0.0398
26932W        W42063   2.425  11.381  14.424 -0.0836  0.2248 -0.2112
26933W        W42064   6.496  11.979  12.562 -0.0805 -0.1017 -0.1730
26934W        W42065   0.576  11.272   4.589 -0.0345 -0.1221 -0.0860
26935W        W42066   8.315  12.018   3.615 -0.0529  0.2463 -0.1009
26936W        W42067   4.901   6.569   2.584  0.1789 -0.0571 -0.1086
26937W        W42068  13.571   1.278  13.779 -0.0931 -0.0900  0.2474
26938W        W42069   5.743  11.695  10.296  0.2979  0.1820 -0.1742
26939W        W42070  14.276  18.413  14.809  0.2478  0.0790 -0.3787
26940W        W42071  13.891  10.554   3.650 -0.2458 -0.2616  0.0837
26941W        W42072   1.513   3.662   5.230 -0.2008 -0.0627 -0.1664
26942W        W42073   0.067   0.646   5.082 -0.1972 -0.1595  0.3804
26943W        W42074   4.759  15.747  12.350  0.0349  0.0480 -0.0630
26944W        W42075   6.854   5.880  13.196 -0.3408 -0.1512 -0.0338
26945W        W42076  13.117   9.065   2.282  0.2478 -0.3224 -0.2916
26946W        W42077  11.826   7.611   1.387  0.1839  0.4352  0.1265
26947W        W42078  14.828  17.770   5.860 -0.1562 -0.1136  0.0167
26948W        W42079  13.980  10.565  11.147  0.2735  0.3013  0.0204
26949W        W42080  14.580   2.685   0.866 -0.0361 -0.2697 -0.2472
26950W        W42081   8.602  14.217   2.675 -0.0670 -0.1623 -0.1733
26951W        W42082  18.717  15.299  13.442 -0.0779 -0.0980  0.2445
26952W        W42083  13.872  11.512  11.309  0.3089 -0.0879 -0.1063
26953W        W42084  16.275   1.952   4.114 -0.1524 -0.2008 -0.1606
26954W        W42085  11.386  15.734  15.754 -0.0103 -0.1552  0.2331
26955W        W42086  14.692   6.566  13.265 -0.0452 -0.1090  0.1957
26956W        W42087  13.383   5.950   2.470 -0.0047 -0.0257  0.1401
26957W        W42088  18.365   5.863  13.965 -0.2227 -0.0838 -0.1653
26958W        W42089  14.978   5.844  12.274  0.1924 -0.1254 -0.1378
26959W        W42090   7.900   3.227   1.502  0.0065  0.2197 -0.1362
26960W        W42091  17.653   5.817   2.747 -0.2293  0.2279 -0.1820
26961W        W42092   2.739   0.302  15.456 -0.0812  0.0178 -0.1746
26962W        W42093  16.176   2.395   3.473 -0.0805 -0.0644  0.1718
26963W        W42094   7.968  10.654   2.451 -0.6231  0.0329  0.1702
26964W        W42095   8.109  18.545   3.492  0.2878  0.1576 -0.0985
26965W        W42096   2.022   0.568  15.061  0.2962  0.3716 -0.0848
26966W        W42097  16.246  17.504  14.618  0.2853 -0.1634 -0.0258
26967W        W42098  12.648   0.435  15.156 -0.1234 -0.0963 -0.1103
26968W        W42099   0.411   9.144  11.149 -0.3733  0.2373 -0.0569
26969W        W42100  14.817   7.524   4.326  0.1014 -0.0897 -0.0863
26970W        W42101  13.964   1.655   3.159 -0.3063 -0.2452  0.1274
26971W        W42102   4.662  13.659  15.569  0.0365  0.1015 -0.0451
26972W        W42103  13.262   8.869   6.266 -0.1134 -0.0284  0.2602
26973W        W42104   9.830  17.969  13.170 -0.1353  0.2466 -0.3630
26974W        W42105  13.461  11.477  11.040 -0.1632 -0.1500 -0.0039
26975W        W42106   1.514   2.283  15.756  0.1242 -0.3093 -0.0556
26976W        W42107   7.067  16.562  10.660  0.0253 -0.1845 -0.0669
26977W        W42108  12.592  14.811   5.515 -0.1771  0.0436 -0.0122
26978W        W42109  18.127   6.275  14.915 -0.2388 -0.1186  0.1343
26979W        W42110   0.475   5.956  13.509 -0.1424 -0.2708 -0.1038
26980W        W42111  15.925   0.290  15.633 -0.2390 -0.2861  0.1465
26981W        W42112  13.814   2.038   2.193 -0.1901  0.2498  0.3564
26982W        W42113   3.771  18.113   1.945  0.0471  0.3296 -0.1004
26983W        W42114  11.053  11.599  13.796  0.0015  0.1496 -0.1447
26984W        W42115  18.066   6.630   3.820  0.3043  0.3926 -0.1104
26985W        W42116   3.709   8.870  11.320  0.1195 -0.0193  0.2081
26986W        W42117  16.000   3.756   2.810  0.0508 -0.0659 -0.0758
26987W        W42118   2.685  13.948   1.862  0.3257  0.0199 -0.1909
26988W        W42119   5.651  15.252  11.577  0.1569  0.0038  0.0869
26989W        W42120  17.777  13.827   3.105  0.3794  0.2783  0.1392
26990W        W42121   6.730  14.248  11.088  0.0534 -0.3602  0.1422
26991W        W42122  14.952   8.374   4.105  0.1844 -0.0579 -0.1648
26992W        W42123   0.872   4.275  13.093  0.4527  0.1250  0.1765
26993W        W42124   3.511  12.858   5.187  0.1712  0.2115  0.4276
26994W        W42125   3.204   7.621  11.929  0.0632  0.0024 -0.0758
26995W        W42126   5.901   7.244   6.082  0.0270 -0.0800  0.0773
26996W        W42127  18.653   1.885   5.104 -0.4151 -0.0704 -0.0457
26997W        W42128  13.465  13.172   3.685  0.3757  0.0625 -0.0407
26998W        W42129   3.045   1.678  13.377  0.0022  0.0246 -0.1590
26999W        W42130  13.248   5.425   0.155  0.2921  0.0642 -0.0383
27000W        W42131  18.042  11.091  13.721  0.1228  0.2056  0.0277
27001W        W42132   7.172  13.170   0.003  0.0024 -0.0902 -0.0224
27002W        W42133  16.129  15.309  11.306  0.2414  0.0110  0.2677
27003W        W42134   0.933   5.838   2.002 -0.2988 -0.1151 -0.0365
27004W        W42135   4.330   9.073   3.158 -0.1539 -0.3337  0.1348
27005W        W42136   4.855   4.764   0.219 -0.0930  0.1805 -0.0104
27006W        W42137  14.215  10.678  11.536 -0.0937 -0.2556  0.0659
27007W        W42138  13.736   9.900   1.512 -0.0415 -0.1534  0.0389
27008W        W42139   3.183  13.007  10.836  0.1906  0.0393  0.1045
27009W        W42140   2.393  16.895   5.088  0.0411 -0.5875 -0.0467
27010W        W42141   6.313  14.625  10.551  0.2468 -0.2927  0.0204
27011W        W42142  10.134  12.270   0.366  0.2178  0.0586 -0.2624
27012W        W42143   9.091   1.549   2.926  0.3090 -0.2014  0.3129
27013W        W42144   5.464  16.140  14.968  0.3915 -0.1309 -0.0064
27014W        W42145  16.207  18.294  12.618  0.2367 -0.3303  0.3123
27015W        W42146   3.072  11.813   0.140 -0.0608 -0.0713 -0.0037
27016W        W42147  17.335  10.522  14.714  0.1143  0.1913 -0.2240
27017W        W42148   9.099  15.684   0.102  0.2150  0.0409 -0.1750
27018W        W42149  17.144   0.930   1.041  0.1205 -0.2305  0.3865
27019W        W42150  14.904  12.772  14.632  0.0448 -0.1784  0.1779
27020W        W42151  12.357  11.087   2.387 -0.0830 -0.1151 -0.0539
27021W        W42152  14.839   6.722  14.255 -0.0834  0.0060 -0.0279
27022W        W42153  15.371   6.710  12.661  0.0309 -0.1768  0.1765
27023W        W42154  11.905  16.413  11.622  0.0815 -0.1491 -0.3780
27024W        W42155   1.626   9.364   1.493 -0.0723  0.3067 -0.0391
27025W        W42156  12.773  15.123  14.157  0.1891 -0.3904  0.1104
27026W        W42157   2.302  11.048  13.070 -0.3259 -0.1280 -0.2300
27027W        W42158  17.948   3.084   9.965 -0.1899 -0.0447  0.0276
27028W        W42159  13.584  14.300   0.192 -0.1865  0.3032 -0.1088
27029W        W42160   2.991   0.639  11.332 -0.2422  0.3291  0.0084
27030W        W42161   1.318   1.198   3.227  0.1040 -0.0513 -0.1683
27031W        W42162   6.774  14.731  15.117  0.0050 -0.0272 -0.2046
27032W        W42163   9.050  11.658   5.242 -0.3617  0.1821 -0.0049
27033W        W42164  12.074  18.234   2.533  0.1464 -0.0500  0.1798
27034W        W42165  11.726   0.821   0.729  0.0487  0.1153 -0.0171
27035W        W42166  17.886  11.788   3.319  0.3498  0.0941 -0.1805
27036W        W42167  15.682  17.628   3.905  0.3013 -0.0668  0.4109
27037W        W42168  16.935  18.046  12.207 -0.0466 -0.0681 -0.0253
27038W        W42169   7.301   8.556   1.652  0.0582 -0.2071 -0.0246
27039W        W42170   9.376  17.931   3.717  0.2518 -0.0909 -0.0741
27040W        W42171   4.833  13.417  12.130  0.0931 -0.1550 -0.1001
27041W        W42172  14.943   5.028  15.095 -0.0623 -0.1952  0.2508
27042W        W42173   3.013  15.392  13.379 -0.0101  0.0459  0.1988
27043W        W42174  18.498   6.452  13.941 -0.0134  0.2371  0.2431
27044W        W42175   8.266  11.540  14.983 -0.0471 -0.2278 -0.0647
27045W        W42176  16.172   8.903   3.989 -0.0516 -0.0041 -0.1754
27046W        W42177   4.688  12.862  14.029  0.0160 -0.1515  0.2591
27047W        W42178   0.510  14.951   1.323  0.1531 -0.2307 -0.1993
27048W        W42179   5.344  12.503   9.933 -0.2798  0.0188 -0.0387
27049W        W42180  14.221   1.766   0.784 -0.0083 -0.2168 -0.0166
27050W        W42181  13.008   0.625   1.046  0.0994  0.5195  0.3374
27051W        W42182  11.244  10.839  14.960  0.1696  0.0006 -0.0625
27052W        W42183   9.345   6.398   3.683 -0.3731  0.0643  0.3291
27053W        W42184   0.026  17.993   3.087  0.0535 -0.2532  0.0351
27054W        W42185   7.960  18.746   2.992  0.1495 -0.1473 -0.0609
27055W        W42186   5.500   1.366  14.681 -0.2766 -0.0090 -0.0348
27056W        W42187   6.771  14.659   3.283 -0.0017  0.1377 -0.0644
27057W        W42188   3.719  13.469  15.282 -0.3453  0.2941 -0.0117
27058W        W42189   9.888   4.546   1.030  0.0297 -0.3477 -0.1355
27059W        W42190   7.845  17.816   1.940  0.3061 -0.1599  0.0212
27060W        W42191   4.546  15.888  11.390 -0.1243 -0.1635  0.1598
27061W        W42192   9.266   5.679  15.162  0.2122  0.2362 -0.2288
27062W        W42193  10.100  16.849  14.186  0.0430  0.0021 -0.1047
27063W        W42194   1.752  18.225   1.548 -0.2406  0.0585  0.0580
27064W        W42195  16.804   9.724   3.930 -0.0755  0.2761 -0.2771
27065W        W42196   6.971   1.878   0.131 -0.1513 -0.0495  0.1105
27066W        W42197  13.698   9.413  14.630 -0.2054 -0.1186  0.0789
27067W        W42198   8.319   4.008  13.094 -0.0863  0.1299 -0.1811
27068W        W42199   8.904  15.140   3.925 -0.1272 -0.0068  0.4902
27069W        W42200   4.806  13.017   5.480  0.2218 -0.1218  0.2251
27070W        W42201  17.406  18.117   3.527 -0.0038 -0.1427  0.2360
27071W        W42202  14.941  16.511  12.303  0.0823 -0.0878  0.0067
27072W        W42203  16.276   9.090   9.664  0.0899 -0.0873  0.0470
27073W        W42204   3.061  14.323   2.072 -0.2464 -0.1641 -0.2042
27074W        W42205  12.257   7.207   1.214  0.0666 -0.1702 -0.1012
27075W        W42206  12.051   0.003   0.483  0.0873 -0.0821 -0.0168
27076W        W42207   2.144  11.760  15.643 -0.0688  0.3073  0.2468
27077W        W42208  10.860   4.205  14.719 -0.3617 -0.0730 -0.3257
27078W        W42209  18.684  16.270  11.349 -0.1767 -0.0020 -0.0245
27079W        W42210  18.313   3.028   3.759 -0.0074  0.3033  0.0193
27080W        W42211   9.402   8.230   2.759  0.3559 -0.2180 -0.3300
27081W        W42212   8.796   8.712   0.464 -0.1088  0.0775  0.1081
27082W        W42213  10.755  11.105  14.182 -0.1865  0.3986  0.1358
27083W        W42214   8.749   2.971  14.636  0.3574 -0.2743 -0.1783
27084W        W42215  12.818  11.504  10.146 -0.2650 -0.0212 -0.2453
27085W        W42216  16.615   4.637   4.394 -0.1031  0.4198  0.2419
27086W        W42217   3.677  17.610  11.848 -0.4529 -0.0898 -0.0620
27087W        W42218  13.802   5.275   0.042 -0.1821  0.1449  0.4332
27088W        W42219  15.702  10.006   4.897  0.1196  0.3198 -0.0087
27089W        W42220   8.160   2.783  10.008  0.0778  0.0640 -0.2888
27090W        W42221   2.259   5.760  12.541  0.3252 -0.2035 -0.2174
27091W        W42222   9.627  10.326  15.220  0.0462 -0.0318  0.0410
27092W        W42223   8.524   2.549   1.597  0.1090 -0.1430 -0.3299
27093W        W42224   2.500   7.141   5.572 -0.0859 -0.0467 -0.1087
27094W        W42225   8.829  12.392  15.758  0.3440 -0.1087  0.2306
27095W        W42226   8.280   4.510   0.931  0.3788  0.1029  0.1207
27096W        W42227  12.833  14.963  12.094 -0.2224  0.2341  0.1596
27097W        W42228  14.131   3.999   3.668  0.2484 -0.0182  0.1498
27098W        W42229  14.501   6.895   5.380 -0.2351  0.1278 -0.0140
27099W        W42230  16.786  14.460   2.138  0.1120  0.0319  0.2815
27100W        W42231   1.562  13.005   5.701  0.0589 -0.1921  0.1516
27101W        W42232  18.511   0.040   3.492 -0.2975  0.2004  0.0932
27102W        W42233  12.406   9.746  10.771 -0.1529 -0.2367  0.0398
27103W        W42234   8.699   2.881   2.728 -0.2302  0.0179  0.2431
27104W        W42235  15.508  18.662  13.050 -0.3768 -0.1517 -0.2561
27105W        W42236   9.377   1.314  14.074 -0.0351  0.4322  0.1367
27106W        W42237   3.662   3.078  14.973 -0.2093  0.3741  0.1383
27107W        W42238   9.216   2.067   2.699  0.1736  0.0219 -0.0433
27108W        W42239   3.774   4.953  14.146  0.3065  0.2157 -0.1990
27109W        W42240  13.719   5.001  13.754  0.0985 -0.0149 -0.2891
27110W        W42241   0.780   5.311  11.393 -0.2244 -0.1239  0.0076
27111W        W42242   4.785   8.166  14.854 -0.3035 -0.0771 -0.0341
27112W        W42243  13.455  14.935  11.905  0.3425  0.2282  0.1556
27113W        W42244   0.030  17.059  12.769  0.1128  0.1587  0.0110
27114W        W42245   9.519   8.518  14.364  0.1696  0.4848 -0.0940
27115W        W42246   8.686   8.288   0.094  0.1972  0.1540  0.1734
27116W        W42247  17.815   8.696   1.081  0.2758 -0.0857 -0.1581
27117W        W42248  11.122  12.184   1.435  0.0142  0.0111  0.0361
27118W        W42249  14.848   7.242   2.914  0.3647 -0.0969 -0.3289
27119W        W42250   0.821   7.488   9.327 -0.0380  0.5676 -0.0898
27120W        W42251   5.642   4.537  12.515 -0.4331  0.0476  0.0380
27121W        W42252   1.244   7.920   2.497 -0.3536 -0.1339  0.0526
27122W        W42253  16.271  10.834  13.903 -0.1222  0.0790 -0.0175
27123W        W42254  14.926  16.260  14.580  0.1722  0.1284 -0.0536
27124W        W42255  16.007  18.095  13.438  0.0280  0.1500  0.1804
27125W        W42256   1.552   0.227  12.794  0.1089  0.4291  0.1433
27126W        W42257  11.692  17.428  12.027 -0.1937  0.1162  0.1291
27127W        W42258  18.248   7.431  15.269  0.0611 -0.2611 -0.2313
27128W        W42259   8.020  15.882  14.450 -0.3708 -0.1330  0.0294
27129W        W42260   3.435   5.526   2.933  0.0132  0.0197  0.1077
27130W        W42261   9.046  15.222   4.950  0.2321 -0.3390  0.3483
27131W        W42262  11.315   7.286   4.177 -0.2324 -0.0217 -0.1128
27132W        W42263   2.090  14.524   5.557  0.1603 -0.4198  0.0338
27133W        W42264   2.919   5.672   0.191 -0.2488  0.0830 -0.1850
27134W        W42265   8.603  10.458  14.250  0.0024  0.0792  0.1250
27135W        W42266   0.005  18.647  13.638 -0.0778  0.0986 -0.0411
27136W        W42267   1.045  11.032   1.336 -0.2133 -0.0598 -0.2268
27137W        W42268   8.609  17.894   2.845  0.1236 -0.0257 -0.3011
27138W        W42269  10.602  14.823   4.668  0.2853  0.0087  0.0014
27139W        W42270  11.204   1.456  11.752  0.4985  0.1107 -0.1735
27140W        W42271  14.637  17.459   3.491  0.0061 -0.0816 -0.0647
27141W        W42272   7.659  17.388  14.450  0.0817 -0.1380 -0.3482
27142W        W42273  15.796   9.651  10.766 -0.1504  0.0596  0.1067
27143W        W42274  16.530  12.841   0.663 -0.0201  0.0610 -0.1079
27144W        W42275  18.089  12.397  15.430 -0.0331 -0.0349 -0.2785
27145W        W42276   8.495   8.010   1.560 -0.0921  0.0930 -0.0027
27146W        W42277   4.351  18.429   5.824 -0.0442  0.0283 -0.0931
27147W        W42278  15.002  11.088   0.756 -0.1647  0.0595  0.0624
27148W        W42279  13.460  16.653  11.931  0.3105  0.2948  0.0176
27149W        W42280  13.566  13.358  13.857  0.1047 -0.2706  0.0410
27150W        W42281  16.190  16.359  12.732  0.1187  0.0548 -0.1023
27151W        W42282   5.425   4.178  12.787  0.1015 -0.2310 -0.1207
27152W        W42283  14.753   0.494   0.834 -0.1202  0.0820  0.0621
27153W        W42284   9.111  14.104  11.818  0.2869  0.2446 -0.0385
27154W        W42285  10.076  18.755  11.825  0.0105 -0.1858 -0.1270
27155W        W42286   5.078   2.396  11.514 -0.0256  0.0770  0.0573
27156W        W42287   8.682   1.912  10.065  0.1010 -0.1221  0.0530
27157W        W42288  17.471  10.985  14.591  0.0538  0.2361  0.0294
27158W        W42289   1.992  11.587   4.705 -0.0284  0.0226 -0.1443
27159W        W42290   3.869   0.485   0.289  0.2568  0.0034 -0.0737
27160W        W42291  14.026   4.215   9.473  0.1345 -0.1361 -0.1285
27161W        W42292   6.469   9.608   0.064 -0.3159  0.0991 -0.2319
27162W        W42293  17.221   9.324  11.447  0.2307  0.0498  0.0576
27163W        W42294  16.217   0.056   2.043 -0.2989 -0.2530  0.0048
27164W        W42295   2.772  18.363  13.568 -0.0637  0.0525  0.0080
27165W        W42296  17.322  13.007   2.175  0.3067  0.1971  0.0362
27166W        W42297   7.411   7.412   2.287 -0.0376  0.3199 -0.1603
27167W        W42298   8.395   1.642   0.710 -0.1272  0.0982  0.1240
27168W        W42299  15.282  16.508  12.860  0.3251  0.0520 -0.3250
27169W        W42300  10.574   1.727  11.116  0.1027 -0.2187 -0.2478
27170W        W42301  15.045  15.966   1.259  0.0341  0.0270 -0.1327
27171W        W42302   1.827  13.650   1.415  0.0846  0.0631 -0.0239
27172W        W42303   4.565   7.739  15.148  0.2450 -0.0460 -0.2985
27173W        W42304  17.320   5.224  10.927 -0.2145  0.2676 -0.0116
27174W        W42305  12.207  16.141  15.255  0.2719  0.0334  0.3155
27175W        W42306  12.129  15.307  15.706  0.0306 -0.2362 -0.6039
27176W        W42307  10.605   5.336   5.452 -0.0395  0.4385 -0.3538
27177W        W42308  16.022  14.360   0.188  0.0945  0.0340  0.0076
27178W        W42309  11.504   0.505   4.712  0.1426 -0.1241  0.0442
27179W        W42310   4.533  10.038   2.442 -0.0698 -0.0942  0.2225
27180W        W42311   3.444  17.460  14.276 -0.0636 -0.3225  0.0690
27181W        W42312   9.505  10.896  12.255 -0.1004  0.1470  0.1242
27182W        W42313   4.597  18.157  12.259 -0.1801 -0.2100  0.1147
27183W        W42314   0.511   0.655  12.532  0.2028 -0.0703  0.1538
27184W        W42315   0.735   1.132  10.069  0.2995  0.1546 -0.2553
27185W        W42316  15.715  18.682   3.934  0.2647  0.0804 -0.0314
27186W        W42317  13.284   5.110  15.517 -0.0042 -0.0705 -0.1599
27187W        W42318   9.861  15.038  13.850  0.1369 -0.0659  0.1738
27188W        W42319   3.868  13.782  11.237 -0.0968 -0.3964 -0.0187
27189W        W42320  17.769  13.341  15.702  0.0315 -0.1251 -0.0187
27190W        W42321  17.839   0.465  15.604 -0.0549  0.0619 -0.1092
27191W        W42322  16.256  16.909   2.619 -0.0658 -0.0789 -0.0236
27192W        W42323   1.432  14.956   3.158 -0.0648 -0.1082  0.4682
27193W        W42324   2.669   1.646   2.494  0.3957  0.0271  0.1813
27194W        W42325  14.545  13.573   9.891  0.0116 -0.2632 -0.2113
27195W        W42326  11.364  12.429  15.130 -0.0603 -0.1295  0.2499
27196W        W42327  13.710   9.719   3.265 -0.3191  0.0754  0.4723
27197W        W42328  17.133   1.803  13.355  0.0429 -0.1699 -0.3827
27198W        W42329  10.507  11.515  13.192  0.2962  0.0754  0.0438
27199W        W42330  12.323   8.184   3.588 -0.2087 -0.0675  0.0814
27200W        W42331   5.428   1.450   1.025  0.2993 -0.1073  0.0755
27201W        W42332  18.717   4.374  15.763  0.1097  0.1669  0.2719
27202W        W42333   9.348   8.694  13.370 -0.0253 -0.6012  0.1624
27203W        W42334   9.024   2.095  14.076 -0.1299  0.0859 -0.1838
27204W        W42335   3.610  11.144  12.414  0.2491 -0.0702 -0.3725
27205W        W42336  14.141   3.793  11.404 -0.0823 -0.3165  0.1352
27206W        W42337  14.667  14.362   0.393  0.1815 -0.1378  0.2025
27207W        W42338   5.237   7.321  11.347  0.3510  0.1464  0.0545
27208W        W42339  17.255   9.489  13.504 -0.0263 -0.1298  0.3932
27209W        W42340  13.684   2.096  14.153  0.1723 -0.0377 -0.0083
27210W        W42341  14.382  12.937   2.597 -0.1603  0.0731 -0.0735
27211W        W42342  17.833   0.531   0.366  0.0397 -0.1960 -0.0923
27212W        W42343   5.059  12.363   9.519 -0.3041  0.2329  0.1924
27213W        W42344  14.010  12.636   5.987 -0.0645 -0.0891 -0.1772
27214W        W42345   8.172   2.277  12.165 -0.0901 -0.2186 -0.1903
27215W        W42346  16.029   4.551   1.710  0.2768  0.0782 -0.0986
27216W        W42347   5.385   8.473   2.063 -0.1994  0.1095 -0.3112
27217W        W42348  16.304  16.951  12.396 -0.0472 -0.0579  0.2486
27218W        W42349   2.101  18.391  15.318 -0.3801  0.1048  0.1912
27219W        W42350   7.817   2.678  12.180  0.1220  0.1285 -0.0149
27220W        W42351   9.246  18.488   4.719 -0.0982 -0.0374  0.2135
27221W        W42352  13.931   0.437   2.068  0.0661  0.1509 -0.0252
27222W        W42353   9.301  12.229  14.470 -0.0375 -0.0334 -0.1437
27223W        W42354  12.662   2.360   1.518 -0.2019 -0.2338 -0.1013
27224W        W42355   7.867   8.412  12.610 -0.2710  0.0354  0.1834
27225W        W42356   9.943  13.735  14.838 -0.1978 -0.0634  0.0634
27226W        W42357   0.377  10.350   4.435 -0.1038  0.2097 -0.1580
27227W        W42358   3.783   7.713  14.200 -0.2808  0.0414  0.0486
27228W        W42359   5.776  15.507  10.617 -0.1917  0.0016 -0.0940
27229W        W42360   8.764   5.525   0.849 -0.3994 -0.1229  0.0251
27230W        W42361  12.937  12.926  13.527 -0.1311 -0.0416  0.3758
27231W        W42362  18.257  18.125  11.055 -0.0062 -0.0070 -0.3142
27232W        W42363   0.573  18.172   1.486  0.0389  0.0130 -0.1820
27233W        W42364  15.895   6.848   0.296  0.2281  0.0623 -0.0328
27234W        W42365  11.039  13.124  14.442  0.1123  0.0919  0.2027
27235W        W42366   4.980  17.686   2.515  0.0641 -0.3004 -0.0173
27236W        W42367  12.734  11.122  15.283  0.4340  0.1012  0.2288
27237W        W42368  16.110  10.070  14.385  0.0417  0.1931  0.1073
27238W        W42369   4.009   3.402  12.909 -0.0032  0.2435 -0.2768
27239W        W42370   2.984   3.263  15.556  0.1979  0.2468  0.1419
27240W        W42371  17.298   9.692   3.440 -0.0406  0.0590  0.2277
27241W        W42372  11.440  10.798  11.588 -0.3050 -0.1368 -0.0516
27242W        W42373  14.520  10.851   0.721  0.4588 -0.1572 -0.0775
27243W        W42374  18.707   0.531   3.453  0.0196 -0.1138 -0.1328
27244W        W42375  14.165  16.808   4.451  0.3878 -0.2532  0.1993
27245W        W42376  13.787   8.351   2.706 -0.2382  0.0406  0.0487
27246W        W42377   5.599   4.961   4.781 -0.0461  0.0229 -0.1443
27247W        W42378  16.748   9.272  15.360  0.1784  0.0488 -0.1096
27248W        W42379  13.552   7.156   1.222  0.3051  0.0731 -0.2166
27249W        W42380   1.112  16.091   2.987  0.0710  0.3410  0.1390
27250W        W42381   4.632  10.783  13.124  0.1739  0.2110  0.3725
27251W        W42382  12.682   9.157   4.872 -0.0508  0.4266 -0.0711
27252W        W42383   5.560  13.429   0.277 -0.1140 -0.2568  0.1844
27253W        W42384   5.016   0.262   4.859  0.0577  0.5955 -0.1607
27254W        W42385  12.346  17.609  14.476 -0.1465 -0.1328 -0.0431
27255W        W42386   2.447   8.064  12.237  0.0838 -0.3390  0.0301
27256W        W42387   8.137   7.801  14.848  0.2229  0.0265 -0.0292
27257W        W42388   1.704   0.065  12.361  0.0135  0.1217 -0.0746
27258W        W42389   1.238  15.245  12.598  0.1268  0.0513 -0.1628
27259W        W42390   3.879  14.020   3.733  0.0849 -0.2605  0.3810
27260W        W42391   0.274   2.496  10.840 -0.1794  0.1844  0.2256
27261W        W42392  14.601  18.129  14.649  0.1559 -0.1846  0.0200
27262W        W42393  17.506  15.611   2.707 -0.4977 -0.0327  0.3778
27263W        W42394  12.002  15.963  10.295 -0.2951  0.0877  0.0149
27264W        W42395  17.347   2.554   4.335 -0.3763  0.1447 -0.0568
27265W        W42396   6.764   2.138   1.345  0.0502  0.2232  0.2146
27266W        W42397  12.970  14.951  13.395 -0.1279  0.1315 -0.1003
27267W        W42398  15.647  16.634  14.550 -0.0832  0.0060  0.0804
27268W        W42399  18.183   9.126  13.295  0.0467 -0.1654  0.2277
27269W        W42400   8.454  10.200   3.107  0.0022  0.1055  0.0920
27270W        W42401  17.056   4.342   3.804  0.1170  0.6557  0.0634
27271W        W42402   8.311   3.229  14.715  0.4649  0.3352 -0.2984
27272W        W42403   6.621   1.132   1.385  0.1104 -0.0650  0.0227
27273W        W42404   0.277  18.545  15.302  0.3909  0.1637  0.2218
27274W        W42405   4.148   1.075  11.310 -0.1197  0.2729 -0.1151
27275W        W42406   0.057   1.645  10.128 -0.2574 -0.5365 -0.4344
27276W        W42407  16.796   3.281  15.440  0.0417  0.0126 -0.3207
27277W        W42408   5.164   4.668   2.935 -0.2528  0.0820 -0.1276
27278W        W42409   3.132   2.439  12.948  0.0384 -0.1456  0.0182
27279W        W42410   5.592  16.879  12.454 -0.0178  0.2530 -0.3156
27280W        W42411   6.309  17.016  10.724  0.1787  0.0935 -0.2029
27281W        W42412  13.539  17.136   3.907 -0.0515 -0.4958 -0.0179
27282W        W42413  18.327   0.133   5.911  0.3415  0.0936  0.2097
27283W        W42414  11.526   1.074  13.766 -0.1549 -0.1649  0.0984
27284W        W42415   6.931  12.173  12.741 -0.1812 -0.1974  0.2423
27285W        W42416  14.282   8.659  13.424  0.2025 -0.0581 -0.0806
27286W        W42417  12.700  16.402  14.916 -0.0596 -0.4903 -0.1628
27287W        W42418   7.063  16.148   2.201  0.1357 -0.0604 -0.0977
27288W        W42419  18.374  14.989   2.329  0.0703 -0.1498  0.1630
27289W        W42420   3.559  16.849  12.083 -0.0893 -0.0181 -0.0331
27290W        W42421   4.043   0.030  12.448  0.0160 -0.0602 -0.0061
27291W        W42422   5.861  11.737   3.647 -0.0322  0.0536 -0.2562
27292W        W42423  17.797  17.178   1.764  0.3133  0.2768  0.0906
27293W        W42424  14.405  17.624   2.210  0.0214  0.1420 -0.1400
27294W        W42425   4.988  16.923  10.833 -0.1207 -0.0666  0.1082
27295W        W42426   8.269  11.284  12.689 -0.1268 -0.0035 -0.0993
27296W        W42427   3.480   3.928  10.424 -0.0377 -0.0866 -0.1688
27297W        W42428  16.619   3.305   1.857  0.3813  0.2526 -0.1733
27298W        W42429  14.400  15.766   4.590  0.4273 -0.1599 -0.1639
27299W        W42430  12.504   1.857   5.076  0.1971  0.0306  0.0563
27300W        W42431  17.515  13.716  13.079 -0.1683  0.0707 -0.2080
27301W        W42432   9.184   7.792   4.792 -0.1283 -0.1993 -0.0472
27302W        W42433   1.197  16.007   4.279  0.1995 -0.0538  0.1598
27303W        W42434  16.040  18.164   0.375  0.0914 -0.3083  0.2254
27304W        W42435  13.862  14.062  12.156  0.3477  0.1302  0.0324
27305W        W42436  16.937  14.396   2.742  0.1712 -0.3598  0.1169
27306W        W42437   4.237   0.429  10.050 -0.0203 -0.1996 -0.2221
27307W        W42438  10.151  12.561  15.076  0.1054  0.2363 -0.1540
27308W        W42439  14.768   9.559  11.853  0.2450 -0.2678  0.1826
27309W        W42440   5.517   6.940   2.082  0.1676 -0.3084 -0.0475
27310W        W42441  15.582  15.944  15.081  0.1017  0.2443 -0.1875
27311W        W42442   8.201  16.353   0.772  0.0150  0.1829 -0.2434
27312W        W42443   7.324  12.036   1.880  0.0273 -0.1420 -0.1457
27313W        W42444   1.662   7.131  12.110  0.0144  0.1862 -0.1659
27314W        W42445  16.049   7.379  14.582 -0.0367 -0.1512  0.3776
27315W        W42446  11.683  12.070   5.354  0.0204  0.0177  0.2858
27316W        W42447   3.565   0.047  13.261 -0.0249 -0.0179  0.2082
27317W        W42448  14.031   1.722   2.584 -0.1234 -0.0746 -0.2236
27318W        W42449   0.819   7.577  11.174 -0.0607  0.2164 -0.4066
27319W        W42450   7.280   2.587   2.919 -0.0306  0.1916  0.1740
27320W        W42451  10.875   1.174  12.123  0.0598  0.2543 -0.4535
27321W        W42452  12.987   7.937   1.241  0.1427  0.1760 -0.1989
27322W        W42453   9.163  12.511   1.838 -0.2607 -0.2361  0.2028
27323W        W42454   4.141  13.056  13.309  0.4141  0.0636  0.1852
27324W        W42455   9.526  17.366   3.887  0.0746  0.1105  0.0499
27325W        W42456  11.644  18.144  14.042 -0.0845  0.5744 -0.2124
27326W        W42457  16.093   5.850  11.918  0.3195  0.2097  0.2094
27327W        W42458   1.922   2.624  13.758  0.1324  0.1399 -0.0825
27328W        W42459   9.266   4.943   3.285  0.1288  0.0850 -0.1914
27329W        W42460   7.871   2.327   1.056 -0.2023  0.3209 -0.3585
27330W        W42461   5.381   7.156   0.113  0.2291 -0.0086 -0.0438
27331W        W42462   2.114   0.701  10.204  0.0125 -0.0784 -0.0254
27332W        W42463  10.488   7.829  15.617  0.2725  0.3166 -0.3301
27333W        W42464   7.935   5.895  12.834 -0.3927 -0.0692  0.1455
27334W        W42465  15.267  11.641  12.555  0.3435  0.0630 -0.1951
27335W        W42466  15.644  18.136  11.299 -0.3974 -0.0722 -0.3194
27336W        W42467   5.347   8.537   0.115 -0.0908 -0.1249  0.1384
27337W        W42468   0.469   6.491   3.023 -0.2863 -0.0770  0.4220
27338W        W42469  17.909  15.677  13.487  0.0938  0.0258  0.1013
27339W        W42470  15.256  10.632  11.570  0.1599  0.0885 -0.1345
27340W        W42471   0.297  14.126  15.324 -0.0292 -0.1875  0.1789
27341W        W42472   6.234   4.138  13.965  0.1071  0.0986  0.4452
27342W        W42473   6.092   7.247   5.168 -0.0327 -0.2905  0.2975
27343W        W42474  17.033   3.478   1.647 -0.1960 -0.2141  0.0544
27344W        W42475   9.782   4.118  10.686  0.1063  0.1362 -0.0562
27345W        W42476  17.625  10.335  13.772 -0.0560 -0.1457 -0.4247
27346W        W42477  10.042  12.047   4.898 -0.2874 -0.4874  0.0304
27347W        W42478  13.633   0.931  11.230 -0.1211  0.0368 -0.2586
27348W        W42479   3.611   5.520   2.091  0.1196 -0.0273  0.0447
27349W        W42480   8.413   1.857   2.317 -0.1161 -0.1419  0.0464
27350W        W42481   7.639  17.678  15.592  0.0274 -0.1213 -0.0891
27351W        W42482  12.789   5.404  12.649 -0.1398  0.3799  0.0212
27352W        W42483   7.790   2.781   0.355 -0.0714 -0.0633  0.2623
27353W        W42484  14.953   2.815   3.857 -0.0312 -0.3383  0.0488
27354W        W42485  17.901  17.393  14.037 -0.1154  0.0351 -0.0968
27355W        W42486  11.026  16.503   3.730 -0.0256  0.2913  0.2847
27356W        W42487   9.216  13.013  12.368 -0.1716  0.0010 -0.0984
27357W        W42488   4.633   0.419  11.293 -0.0439  0.3819  0.1607
27358W        W42489   5.063  17.684   0.192 -0.0814 -0.2706  0.0526
27359W        W42490  13.516  14.782  13.709  0.0453  0.2839  0.1984
27360W        W42491  12.533   4.964  13.413  0.1355 -0.2071 -0.2251
27361W        W42492   3.827   2.146   0.454 -0.4288  0.1143  0.3482
27362W        W42493   2.183  12.758   5.119  0.0301 -0.0063 -0.3296
27363W        W42494   9.039  11.923   0.163 -0.1406 -0.0509  0.0096
27364W        W42495  11.402   8.556  13.938  0.0606  0.3785 -0.0659
27365W        W42496  16.427   8.602  15.440 -0.2017  0.1599 -0.3273
27366W        W42497   7.954   2.207   5.320  0.2862 -0.1543 -0.0392
27367W        W42498   5.634  17.522   1.438 -0.2705 -0.0485  0.2018
27368W        W42499   2.703   4.389  14.100 -0.2167 -0.0450  0.1422
27369W        W42500   4.585   0.341  14.016 -0.0274  0.0516 -0.1120
27370W        W42501   9.806  11.521   1.866 -0.0789 -0.0801  0.1239
27371W        W42502  14.870   2.015   3.296  0.2684  0.1404  0.0520
27372W        W42503  10.492   6.958  12.594  0.1931 -0.0029  0.1549
27373W        W42504  11.058   4.335  12.940  0.4563  0.1156 -0.0859
27374W        W42505   6.502   6.215  13.118  0.1999 -0.0063  0.0773
27375W        W42506  14.487  14.954   1.032  0.0074 -0.2775  0.2500
27376W        W42507  18.168   2.125  15.755 -0.1223  0.2411  0.1518
27377W        W42508   3.270  11.457   4.308 -0.1007 -0.1465  0.0934
27378W        W42509  11.117   9.042  11.529  0.2289 -0.0650 -0.2328
27379W        W42510   9.088   9.964  12.059  0.1188  0.0048  0.3150
27380W        W42511  13.734  12.571   0.061  0.2108  0.0561 -0.4248
27381W        W42512   2.152   1.376   0.748  0.1588  0.1634  0.1310
27382W        W42513  12.108   9.470   5.565 -0.1680 -0.0159  0.0829
27383W        W42514   2.135  14.452   3.116  0.0856  0.2723 -0.0589
27384W        W42515   1.023  14.560  11.487 -0.1784 -0.0110 -0.0152
27385W        W42516   9.792  11.412  14.401 -0.2306 -0.1223  0.2167
27386W        W42517  18.007   9.703   4.695  0.0703  0.2460  0.2091
27387W        W42518   7.425  11.551   2.023  0.0887 -0.0782 -0.3105
27388W        W42519   0.504   7.381   2.705 -0.0313  0.0146  0.0093
27389W        W42520  13.685  16.947  10.682 -0.0245 -0.0828 -0.0263
27390W        W42521   5.830  17.343   2.440  0.0116 -0.0105  0.1904
27391W        W42522  12.002  11.320  13.857 -0.0509 -0.2151  0.4052
27392W        W42523   4.246   4.377   5.515 -0.0855 -0.0298  0.2102
27393W        W42524   9.624   3.514  14.892 -0.1033  0.2184  0.0146
27394W        W42525  15.910   4.295   2.151 -0.2974 -0.1064 -0.0400
27395W        W42526   0.167   2.284  11.391 -0.1393 -0.3399  0.0532
27396W        W42527   3.592  17.184  13.586 -0.2460  0.2502  0.1325
27397W        W42528   1.615   1.280  12.829  0.0313 -0.0355 -0.1410
27398W        W42529  10.279  16.020  15.242 -0.1340  0.2193  0.1615
27399W        W42530  10.368  11.667  11.563 -0.0887  0.2993  0.4316
27400W        W42531   1.830  14.917   5.244  0.3121 -0.0474 -0.1417
27401W        W42532   0.487  14.424  13.728 -0.2700  0.3531  0.1727
27402W        W42533  12.597   6.047  14.336 -0.1942  0.1548 -0.1448
27403W        W42534   4.945   2.044  11.953 -0.3456 -0.0951  0.0613
27404W        W42535   9.050  12.390   2.476 -0.2037 -0.2156 -0.0507
27405W        W42536  17.040  14.787  12.094  0.1492 -0.3174  0.0004
27406W        W42537  11.878   6.692   4.459  0.1298 -0.4926 -0.1629
27407W        W42538   3.568   1.469   2.306  0.2829  0.0120  0.1783
27408W        W42539   3.759  13.083  12.035 -0.2805  0.0546  0.2627
27409W        W42540   4.862  15.252  12.271  0.2287  0.2209 -0.0389
27410W        W42541  12.181  13.620  10.479 -0.0226  0.0634  0.0435
27411W        W42542  16.253   1.244  14.011 -0.1374 -0.1745 -0.2491
27412W        W42543   4.468   6.132  11.766 -0.3079  0.1127  0.0424
27413W        W42544  13.607   0.435  15.084 -0.2813  0.2534  0.0258
27414W        W42545  12.198   6.236   4.669 -0.0526  0.2422 -0.2165
27415W        W42546  11.088   9.955  14.581  0.1256  0.2011  0.1040
27416W        W42547  12.461   8.183   0.417  0.1199 -0.3925 -0.1275
27417W        W42548  14.736   0.957   6.042  0.0727 -0.1768  0.0109
27418W        W42549   1.000  13.180   9.853 -0.5830  0.5157 -0.1125
27419W        W42550  14.587   0.815  12.551 -0.0034 -0.1844  0.2642
27420W        W42551   8.291   9.597   2.866 -0.0709  0.2250  0.3046
27421W        W42552  10.039  11.577  15.085 -0.1007 -0.3144  0.5814
27422W        W42553  16.115   8.674  12.240  0.0905  0.0652  0.0289
27423W        W42554   1.319   8.195   2.943 -0.3171  0.0358 -0.2992
27424W        W42555   2.626   0.261   9.174 -0.5104 -0.2787 -0.0342
27425W        W42556   1.692  11.541  10.965 -0.3494 -0.1514  0.1056
27426W        W42557   4.166  16.075   5.085 -0.2250  0.2739  0.2070
27427W        W42558  10.900  12.129   3.186  0.2559 -0.0351  0.1104
27428W        W42559   6.326   6.764  13.972  0.2723 -0.2556  0.1080
27429W        W42560  10.343   2.416   0.594 -0.1686 -0.0997 -0.1463
27430W        W42561  18.600   2.047  12.818  0.2292 -0.1089  0.4933
27431W        W42562   3.490   3.546   5.803  0.4676  0.0692  0.1252
27432W        W42563  17.901   5.518   4.865  0.0370 -0.0134  0.1600
27433W        W42564  13.569  11.917   1.199 -0.2015 -0.0890 -0.1205
27434W        W42565  10.851  14.146   1.462 -0.0758 -0.0456  0.0206
27435W        W42566  16.221   1.554  12.370 -0.4282  0.1425 -0.1825
27436W        W42567   7.994   2.499  11.744 -0.0603  0.3649  0.2372
27437W        W42568  16.785   3.510   5.907  0.1520 -0.0350 -0.0866
27438W        W42569   1.016  10.605   1.604 -0.1082  0.1142 -0.1948
27439W        W42570  13.121   5.687   0.867  0.0184  0.0968 -0.1593
27440W        W42571   1.000  11.070   0.534  0.3107  0.1364 -0.2101
27441W        W42572  11.083  17.025   1.562  0.0089  0.1377 -0.0103
27442W        W42573   4.622  10.344   4.194 -0.0227  0.4613 -0.1053
27443W        W42574   5.633   8.265  14.384 -0.0293  0.0247 -0.0085
27444W        W42575   9.516  16.181  12.416  0.0782  0.0053 -0.2193
27445W        W42576  10.276  14.901   2.256 -0.0033 -0.2589  0.1185
27446W        W42577  16.659   2.391  11.284  0.0471 -0.2104 -0.0377
27447W        W42578   5.319  12.732  15.513  0.2401  0.0616  0.0607
27448W        W42579   0.442   5.216  10.702 -0.2284  0.1218  0.4340
27449W        W42580  12.450   5.527   2.822  0.1559 -0.0739  0.1364
27450W        W42581   9.204   6.414   1.751  0.0533 -0.0555  0.0708
27451W        W42582   2.129  17.577  14.535  0.1181  0.0302  0.2141
27452W        W42583   6.844   7.884  11.731  0.1191 -0.3575  0.2905
27453W        W42584   3.301   7.639  14.961 -0.1103  0.2111 -0.2146
27454W        W42585   6.390  12.766  13.401  0.1005 -0.1191 -0.2893
27455W        W42586   4.907  10.727  15.323  0.1505  0.1716  0.1820
27456W        W42587   7.825   1.058   1.183 -0.0739  0.1409 -0.0055
27457W        W42588  13.352   3.016  12.162  0.1593 -0.1480 -0.1592
27458W        W42589   7.903  12.260   3.362  0.2038  0.1847  0.0418
27459W        W42590   9.505  15.630   4.607 -0.0908  0.1095 -0.1755
27460W        W42591  12.688   4.161   1.330  0.1393  0.0250  0.0994
27461W        W42592  11.514   8.359   2.843  0.2228  0.1370 -0.0182
27462W        W42593   9.683   2.876   3.001 -0.0189  0.1494 -0.1597
27463W        W42594   3.636  10.103   0.157 -0.3367  0.1022 -0.0720
27464W        W42595  12.431  13.217   0.958  0.0257 -0.1172  0.2583
27465W        W42596   0.155   0.914  15.502  0.2391  0.3706 -0.0122
27466W        W42597   1.892   2.632  15.469  0.0098  0.0781 -0.1323
27467W        W42598  10.296  10.994   1.213 -0.0336 -0.1368 -0.1625
27468W        W42599   7.073  14.677   0.867 -0.0574 -0.0638 -0.3697
27469W        W42600   0.578   0.167  13.859  0.1391 -0.3078 -0.1355
27470W        W42601  10.070   0.316  10.882 -0.2137  0.1528  0.1678
27471W        W42602  18.167   3.462  14.095 -0.3833 -0.0309  0.2324
27472W        W42603   4.675  13.769   1.891 -0.1313  0.0425 -0.0116
27473W        W42604  18.431  15.287  10.909  0.3084 -0.1088  0.0186
27474W        W42605  18.101   6.689   9.972 -0.1847 -0.0546 -0.4541
27475W        W42606   7.249   8.311   3.641  0.0664  0.0765 -0.2203
27476W        W42607  14.258   7.459  11.375  0.1123 -0.3869  0.0600
27477W        W42608  15.092  13.931  12.467 -0.1509 -0.1040  0.0875
27478W        W42609  15.871  15.895   1.621  0.0816 -0.1197  0.1708
27479W        W42610  10.438   2.111  11.440 -0.1013 -0.0392 -0.3582
27480W        W42611   5.304  18.140  13.552 -0.2161 -0.2539 -0.3516
27481W        W42612   5.659  13.086   1.083  0.1258  0.2844  0.1096
27482W        W42613  17.072   0.948  10.086 -0.2983 -0.1430  0.1341
27483W        W42614  10.019  14.287  14.279 -0.1314  0.2251  0.0393
27484W        W42615  14.569  13.341   0.529 -0.0943 -0.0843  0.1130
27485W        W42616  12.615  13.219  14.179 -0.2075 -0.0674  0.1013
27486W        W42617  12.460  16.083  14.001 -0.0129 -0.1305  0.1322
27487W        W42618  15.060   4.515  15.023 -0.2829 -0.0324 -0.0040
27488W        W42619  15.378   3.703  11.017  0.2051  0.3108  0.1567
27489W        W42620   9.444   3.313   1.201 -0.0242 -0.0604 -0.1506
27490W        W42621  14.797   5.336  11.015  0.2255  0.1164  0.1834
27491W        W42622   5.834   0.120   1.414 -0.1537 -0.0653 -0.2615
27492W        W42623  16.003  10.669   5.515 -0.2131  0.2564  0.0400
27493W        W42624  11.348  15.648   1.050 -0.3574  0.2188 -0.1158
27494W        W42625   8.246  12.157  10.160  0.4889 -0.0997 -0.3442
27495W        W42626  14.659  10.500  15.093  0.2155  0.3849 -0.5317
27496W        W42627  10.711   4.556  15.320  0.3768  0.0341  0.0234
27497W        W42628  14.002   5.839  13.264 -0.0252  0.0214  0.2805
27498W        W42629  14.539  13.555   3.961  0.1022  0.1479  0.0960
27499W        W42630  13.034   1.608   0.559  0.0711 -0.0259  0.1221
27500W        W42631  13.175  10.608   0.540  0.0027 -0.0689 -0.1405
27501W        W42632   4.890   5.532   3.450 -0.0086 -0.4383 -0.1024
27502W        W42633   1.639  13.627   0.424  0.2418  0.0957  0.2849
27503W        W42634   1.208  18.585   3.497 -0.0879 -0.2625 -0.0427
27504W        W42635  18.489  10.496   0.112 -0.2806 -0.3661 -0.0540
27505W        W42636  17.677   5.501  14.609 -0.1038 -0.0642 -0.0384
27506W        W42637   5.538  11.768  15.194 -0.1728 -0.0103 -0.3014
27507W        W42638   5.279   7.929  10.009 -0.1150 -0.0172  0.1242
27508W        W42639   3.701  10.647   1.270  0.4008  0.0120  0.0325
27509W        W42640  17.753  14.952  14.423  0.0657 -0.0314 -0.0098
27510W        W42641  11.765  16.029   1.666 -0.0545 -0.1891  0.0252
27511W        W42642   5.796   0.526   3.734  0.2139 -0.2431 -0.1161
27512W        W42643   9.923   3.005   3.913  0.0312  0.0843  0.0362
27513W        W42644  10.160   9.075   5.756 -0.4501 -0.2413  0.1455
27514W        W42645  15.670  14.212   5.549 -0.1078 -0.0398  0.0231
27515W        W42646  15.523   5.545   4.239 -0.2131  0.0288  0.0156
27516W        W42647  13.403   5.427  13.732  0.5629 -0.2382  0.1692
27517W        W42648   9.361   7.788  15.388  0.1212 -0.0845  0.0752
27518W        W42649  14.795   5.106   4.086  0.4106 -0.0547 -0.0531
27519W        W42650  18.607  16.819  12.190  0.0579  0.1513  0.0212
27520W        W42651  13.794  17.555   4.832  0.2792  0.0619 -0.0957
27521W        W42652   6.289   2.354  14.774  0.2160 -0.3054  0.0138
27522W        W42653  16.763  15.053  14.110 -0.0857  0.1067 -0.1849
27523W        W42654   4.063  10.649  15.472 -0.1300 -0.3786  0.2717
27524W        W42655   4.955   8.211   0.113 -0.2907 -0.1901 -0.0729
27525W        W42656   9.141   6.453  11.742  0.1634  0.0364 -0.0492
27526W        W42657   1.479   4.406  12.291 -0.1430  0.0900  0.2549
27527W        W42658   2.408   3.848   1.547  0.0308  0.2101  0.0875
27528W        W42659  10.428  11.694  12.544 -0.3980  0.1127 -0.0369
27529W        W42660   7.602  11.843  13.659 -0.1248  0.2576 -0.0068
27530W        W42661   2.290   5.469   0.866 -0.0880  0.2891  0.2005
27531W        W42662  11.949   8.134  12.061 -0.2505  0.2447  0.1132
27532W        W42663  12.227  13.397  13.447  0.1706 -0.1164  0.4951
27533W        W42664   6.737   4.726  10.003  0.0954  0.3363  0.0793
27534W        W42665   1.037   6.892   3.677  0.0516 -0.2708 -0.2346
27535W        W42666  10.881   6.459  12.254 -0.0059  0.0471  0.0873
27536W        W42667  17.902  15.117   4.063 -0.1127 -0.3567  0.0813
27537W        W42668   3.115   3.525   1.243 -0.1411 -0.1642  0.1820
27538W        W42669   4.344   3.278  13.891 -0.3610 -0.2373 -0.4495
27539W        W42670   0.770   6.068   3.865 -0.0145  0.0656  0.2562
27540W        W42671   9.993   9.750   4.044 -0.0781  0.0887 -0.2291
27541W        W42672   6.004  16.741  11.533  0.1782  0.1872  0.0942
27542W        W42673  14.757   7.630   3.393  0.0097  0.3566  0.1950
27543W        W42674   4.563   7.153  14.958 -0.2947  0.0200 -0.0856
27544W        W42675   2.900  18.266   4.619 -0.1483 -0.0567 -0.1236
27545W        W42676   6.962  16.744  13.659  0.3929 -0.2114  0.1746
27546W        W42677   5.314   4.302   0.417 -0.1381  0.2288 -0.0435
27547W        W42678  16.273   6.149   2.081  0.1160  0.0213  0.3883
27548W        W42679  16.614   7.680   4.264 -0.0803 -0.0705 -0.0868
27549W        W42680  15.609  15.727  13.009 -0.0391 -0.2688  0.1402
27550W        W42681  10.652   6.514   5.041 -0.0929 -0.2989  0.0912
27551W        W42682   1.218   5.531   2.307  0.1531  0.0311  0.2538
27552W        W42683   9.149   0.562   3.239 -0.0884 -0.0488  0.1009
27553W        W42684  15.124  11.357  13.799  0.0317  0.0092  0.2632
27554W        W42685  14.099  16.233   5.327 -0.0599  0.0747 -0.2407
27555W        W42686  15.566  12.382  10.862  0.0763 -0.1402  0.1484
27556W        W42687   2.811  10.530  13.876  0.0394 -0.2001 -0.0898
27557W        W42688   7.633  14.574  13.938 -0.0742 -0.0209 -0.0399
27558W        W42689  15.973   2.174   1.404  0.2139  0.1031 -0.2929
27559W        W42690  18.008  16.189   1.625 -0.0393  0.0120 -0.0175
27560W        W42691   8.400  11.492  13.489 -0.1164 -0.2260  0.1163
27561W        W42692   1.006   3.950   1.651  0.0306  0.1949  0.2555
27562W        W42693   5.563  15.649  14.089  0.0172 -0.0791 -0.2395
27563W        W42694   1.250   5.688  11.175  0.0306 -0.1852  0.2554
27564W        W42695   3.901  18.216   3.423  0.1197 -0.0931  0.2645
27565W        W42696  12.353   3.893  12.638  0.1546 -0.0755 -0.0028
27566W        W42697   8.511   8.246   4.483  0.1497  0.0601 -0.1563
27567W        W42698   8.787   2.875   3.322  0.0679 -0.0336 -0.0279
27568W        W42699   1.854   9.024   3.269 -0.2165  0.2399 -0.0614
27569W        W42700  10.600  13.061   3.375 -0.2485  0.2803  0.0689
27570W        W42701   2.787  16.097  14.301 -0.1385 -0.4313 -0.2224
27571W        W42702  10.744   8.610  15.247  0.0629  0.1597 -0.2150
27572W        W42703  15.032   7.456   2.528 -0.2596 -0.0677  0.3459
27573W        W42704   1.362   3.803  15.104  0.3977  0.1781  0.0324
27574W        W42705   1.575  12.831  15.040  0.2202 -0.0925 -0.1756
27575W        W42706   5.206  11.713  11.745  0.3318 -0.0042  0.3785
27576W        W42707   1.020  16.734   4.919  0.2736 -0.0234  0.0622
27577W        W42708   1.609   9.630   0.720 -0.0709 -0.0953 -0.1631
27578W        W42709   6.431  12.793   4.888 -0.1048  0.0283 -0.0976
27579W        W42710   2.169   0.072   3.601  0.0232  0.1709  0.1839
27580W        W42711  15.719   4.283  15.731  0.2195 -0.0582 -0.2239
27581W        W42712  13.802  15.621   0.862  0.0633 -0.2593 -0.1561
27582W        W42713   1.653   1.787   3.947 -0.0152 -0.1083  0.2156
27583W        W42714   6.997   0.366   2.951 -0.0374 -0.1643 -0.0423
27584W        W42715  17.553  16.616   5.956 -0.1420 -0.0055 -0.0456
27585W        W42716   1.279  16.663  14.096  0.2219  0.0497 -0.1072
27586W        W42717   7.844  10.760   1.076 -0.1071  0.0059 -0.1188
27587W        W42718   0.245   9.717   3.283 -0.4276  0.5480 -0.2095
27588W        W42719   4.294  11.616  11.456  0.1003 -0.2611 -0.0007
27589W        W42720   8.460   1.102   0.755 -0.1763  0.2979  0.3322
27590W        W42721  13.847   1.013   0.729 -0.2310 -0.0823  0.1033
27591W        W42722  17.999   9.302   9.885  0.0586 -0.0500  0.2507
27592W        W42723   3.810  11.584   0.831  0.1887 -0.2923  0.1364
27593W        W42724  13.015  10.922  10.308  0.1074  0.0334 -0.4034
27594W        W42725  14.902   6.282   4.810  0.0225 -0.2879  0.2141
27595W        W42726  14.500   4.030   1.920 -0.1519 -0.0665  0.0714
27596W        W42727   2.518   2.840  14.382  0.0840 -0.2441 -0.2301
27597W        W42728   9.730   2.952   4.843  0.1617 -0.2219  0.3037
27598W        W42729   6.327  15.355   2.043  0.1077  0.0810  0.1855
27599W        W42730   1.473   8.749   3.086  0.1101 -0.3184  0.3744
27600W        W42731  14.618   8.418  10.384  0.0824 -0.1969  0.1973
27601W        W42732  14.447  13.067   1.120 -0.1133  0.2070 -0.0994
27602W        W42733  15.734   1.278   4.557  0.1409  0.4388 -0.5217
27603W        W42734   6.008   2.257  12.329 -0.1538  0.0941 -0.1142
27604W        W42735  17.660   5.750   2.190 -0.3470  0.0770  0.1705
27605W        W42736  17.651   1.288   1.993 -0.0589  0.3480 -0.0399
27606W        W42737  10.580   4.027   0.542  0.1938  0.5679 -0.2191
27607W        W42738  12.395   5.278   1.291  0.2794  0.0176 -0.4781
27608W        W42739  12.858  15.847  15.686 -0.0289 -0.2060  0.1774
27609W        W42740   3.588  17.777  15.214  0.0364  0.0247  0.0283
27610W        W42741   0.070  10.050   3.540 -0.0184 -0.0946 -0.0313
27611W        W42742   2.831  12.161   4.656  0.0113 -0.6000  0.2004
27612W        W42743   5.979   8.986   0.278  0.0154  0.1239 -0.0675
27613W        W42744  16.977  13.974  14.392  0.2991  0.1721  0.1988
27614W        W42745   9.224  16.209   4.337  0.1162  0.3987  0.1646
27615W        W42746   0.092  10.630  11.878 -0.0795  0.0163  0.1893
27616W        W42747  13.184   9.284  10.956  0.1637 -0.0626 -0.0426
27617W        W42748   1.047  15.412  14.372 -0.2961 -0.0435 -0.0365
27618W        W42749  17.395  10.729   3.167  0.2072  0.4080 -0.0414
27619W        W42750  12.989   1.553   2.827  0.3139  0.2232 -0.0734
27620W        W42751   4.500   4.375   0.085 -0.2464 -0.0070  0.0338
27621W        W42752   6.580   8.115  13.963  0.2278  0.0851 -0.2007
27622W        W42753  15.430  16.515   0.408 -0.0024  0.0811  0.1973
27623W        W42754  18.636   5.812   1.124  0.1885  0.0463  0.3905
27624W        W42755  11.185   7.629  11.548  0.0089 -0.3049 -0.2806
27625W        W42756  10.532  18.696  11.506 -0.2028 -0.2750 -0.1120
27626W        W42757  15.628  10.432   5.739  0.0838 -0.4393  0.3268
27627W        W42758   4.655   6.195  14.736 -0.1445 -0.0824 -0.1042
27628W        W42759  16.878  17.448   3.319 -0.0282 -0.2147  0.1697
27629W        W42760  17.813   3.198  13.753  0.2671  0.0719  0.4430
27630W        W42761   9.558   1.259   0.017  0.0668 -0.0314 -0.0232
27631W        W42762   2.964   3.440  13.320  0.0114 -0.0195  0.2824
27632W        W42763   6.729   2.642   4.897  0.2837 -0.4366 -0.0246
27633W        W42764   1.001  16.291  14.606 -0.3348 -0.3962  0.2727
27634W        W42765   8.029  17.964   3.570  0.0269 -0.0524 -0.0385
27635W        W42766  15.357   4.166   1.131  0.0248 -0.1597  0.1790
27636W        W42767  11.136   7.401   1.624 -0.1170  0.1868  0.0416
27637W        W42768   7.991  10.377   0.247  0.0061 -0.2319  0.1686
27638W        W42769   6.373  11.443   0.501 -0.1871 -0.0556  0.2459
27639W        W42770   9.350  17.016   3.592 -0.1607 -0.1521  0.0408
27640W        W42771   4.404  10.231   1.948 -0.0999 -0.2146  0.1440
27641W        W42772  12.119   5.840  14.692 -0.2719 -0.0003 -0.0726
27642W        W42773  11.887   1.829   3.103 -0.1420  0.1088 -0.2627
27643W        W42774   7.152   1.538  13.697  0.0693 -0.2391 -0.1450
27644W        W42775   7.707   0.566   1.251 -0.0552 -0.0342 -0.0054
27645W        W42776  18.080   9.863  14.126  0.2432 -0.2123  0.0626
27646W        W42777  11.596  14.387  11.828 -0.0753  0.2376  0.0813
27647W        W42778  17.890   3.817  13.066  0.1694  0.0553 -0.0967
27648W        W42779   0.621  13.337  13.440  0.2959 -0.0795 -0.3087
27649W        W42780   3.400   7.717   4.295 -0.2796 -0.0985 -0.0802
27650W        W42781   5.987  12.497  14.799 -0.1390  0.0997  0.0512
27651W        W42782  16.023  13.797  15.049  0.0909  0.1079 -0.2515
27652W        W42783   6.794   9.219   0.923 -0.2038  0.0808 -0.2832
27653W        W42784  13.172  16.226   4.449 -0.0027  0.0953 -0.2469
27654W        W42785  13.863  14.930   0.449  0.1051  0.0178 -0.0055
27655W        W42786   1.360   1.936  11.574 -0.0361 -0.0924 -0.1205
27656W        W42787   1.119   9.199  15.650  0.0708 -0.0135 -0.0518
27657W        W42788  11.579   4.323   1.049  0.5806 -0.3145 -0.0221
27658W        W42789  10.788  11.942  13.497  0.0024 -0.0827 -0.0553
27659W        W42790  16.774   0.755   1.867  0.0319 -0.0993  0.1782
27660W        W42791  18.009   1.631  12.596 -0.0595  0.0653 -0.0763
27661W        W42792  14.156   5.126   2.430  0.1440 -0.3330 -0.1122
27662W        W42793  15.452   3.158   0.729  0.0347  0.0930 -0.3205
27663W        W42794  15.999   0.327   0.515  0.0968 -0.3655  0.1589
27664W        W42795   8.409  11.525   2.290 -0.1331 -0.2102 -0.0870
27665W        W42796   8.993   2.395  11.177  0.0609 -0.1057 -0.2728
27666W        W42797   3.807   9.654   1.046 -0.0631 -0.1546 -0.2794
27667W        W42798  12.603   0.790  14.784  0.1198 -0.0877 -0.1195
27668W        W42799  15.863  11.883   4.909 -0.1221 -0.2032  0.1113
27669W        W42800  10.558  17.381  15.293 -0.1744 -0.0381  0.0811
27670W        W42801  17.248  15.717  11.472 -0.0221 -0.1752  0.1191
27671W        W42802  10.385  12.556   1.099 -0.1464  0.0189  0.1727
27672W        W42803   8.455   2.518   1.099 -0.0078 -0.0520  0.0928
27673W        W42804  10.688   9.967   1.658 -0.1600 -0.5738  0.0297
27674W        W42805  10.676  17.133   2.670 -0.0044  0.0150  0.1886
27675W        W42806  13.883   3.364  11.609 -0.0122  0.1003 -0.2094
27676W        W42807  14.249  15.298   1.764  0.0629  0.2178 -0.0660
27677W        W42808   3.684  16.228   1.202 -0.2379  0.1554  0.0980
27678W        W42809   8.272   2.311  10.460  0.0499  0.0027  0.1612
27679W        W42810  17.463   2.877   2.366 -0.1652 -0.0562  0.1912
27680W        W42811   6.097  10.065  10.970 -0.0100  0.1942  0.3516
27681W        W42812   8.902  14.476   4.312  0.0429  0.3192  0.1826
27682W        W42813   5.875   2.296  14.109 -0.3094  0.3429  0.1589
27683W        W42814  18.718   1.379  14.483 -0.1631  0.1414  0.0718
27684W        W42815   8.058  12.316   1.518  0.1225  0.3272 -0.0308
27685W        W42816  17.871  16.819   2.571 -0.1795 -0.0083  0.0247
27686W        W42817   0.957  10.557   3.412  0.1543  0.2812  0.0058
27687W        W42818   8.091   8.149   4.179 -0.0397  0.2078  0.2136
27688W        W42819   4.313  12.619  13.056 -0.0917 -0.2472 -0.2049
27689W        W42820   2.301   6.283   5.150  0.1830 -0.2861  0.0753
27690W        W42821   1.084   3.297  14.793  0.2337 -0.3537 -0.0938
27691W        W42822  15.215   6.604   1.486  0.0575 -0.0122  0.1264
27692W        W42823   8.571   2.111   0.843 -0.2004 -0.2325  0.0195
27693W        W42824   1.746  15.511   1.542 -0.0072 -0.3098 -0.0741
27694W        W42825   2.096   3.784  12.181  0.0957  0.0478 -0.0198
27695W        W42826   2.696   1.881   1.667 -0.1573  0.0908 -0.2646
27696W        W42827  16.580   4.357   2.547 -0.2304 -0.3157  0.2166
27697W        W42828  17.536  14.858  15.362 -0.1188 -0.0163 -0.3569
27698W        W42829  14.320   3.658  11.854 -0.0720 -0.1229  0.1165
27699W        W42830   1.554  16.373   3.253  0.5162  0.0595 -0.0600
27700W        W42831   9.321   7.569  10.605 -0.0863  0.2104 -0.1329
27701W        W42832   9.999   5.065  15.257 -0.0101 -0.0507 -0.2657
27702W        W42833   7.425  14.768  10.611 -0.0989 -0.2332 -0.0833
27703W        W42834   3.108   8.803  13.405 -0.0747  0.1379 -0.2916
27704W        W42835   9.193  17.458   6.165  0.2035  0.1442  0.0060
27705W        W42836  17.674  15.287   0.011  0.2143  0.1061 -0.1616
27706W        W42837  18.321   4.290  12.310  0.0842 -0.0701 -0.5434
27707W        W42838   0.904   7.391   0.505 -0.2463  0.2211  0.0500
27708W        W42839   6.232   1.226  14.023 -0.0797 -0.0337 -0.1850
27709W        W42840  15.679  12.251   4.643 -0.0677 -0.1273 -0.1977
27710W        W42841   6.445  18.744   9.960  0.1619 -0.1134  0.1399
27711W        W42842   8.353   4.950  12.158 -0.3430  0.2200  0.1499
27712W        W42843  15.994   9.075   2.280 -0.2359 -0.0499  0.0969
27713W        W42844  18.124  11.496   4.674  0.1004 -0.0375 -0.1047
27714W        W42845  17.292  17.088  10.817 -0.0680 -0.0673 -0.4912
27715W        W42846  11.692  18.531  12.949 -0.1924  0.0267 -0.2225
27716W        W42847   4.333  17.432   3.817  0.4859  0.0354 -0.0891
27717W        W42848  16.187   3.051   1.993  0.2786  0.1399  0.1082
27718W        W42849   0.840   8.864   0.738 -0.2485 -0.1189  0.0961
27719W        W42850   7.189   7.001   3.499 -0.0124 -0.1304  0.0857
27720W        W42851  12.904   0.986   2.706  0.3033  0.1302 -0.5649
27721W        W42852  14.244   5.428   5.046  0.1939 -0.0231  0.2049
27722W        W42853  13.817  12.401   4.446  0.0853 -0.0183 -0.1182
27723W        W42854  16.164  12.291  11.170 -0.1262  0.2633 -0.0628
27724W        W42855   0.112   5.432   1.465  0.4106  0.4289 -0.0329
27725W        W42856  13.429  12.869  13.763 -0.0349 -0.2732 -0.0735
27726W        W42857  18.221   9.280   4.862  0.0878 -0.0148 -0.1023
27727W        W42858  13.475   9.397  13.098 -0.0075  0.3750  0.2575
27728W        W42859   9.333  10.688   4.751 -0.2722 -0.0337  0.3054
27729W        W42860  18.707   7.863   2.761 -0.1423  0.1326 -0.1065
27730W        W42861  12.114   1.413   0.228  0.0427  0.3338  0.6001
27731W        W42862   0.163  11.517  13.604  0.2250  0.3057  0.2118
27732W        W42863  15.944   3.332  14.540 -0.3156 -0.0868 -0.3703
27733W        W42864   4.529  10.914   1.431  0.1770  0.0480  0.1068
27734W        W42865   9.453  10.696   2.160 -0.1682  0.4583  0.0904
27735W        W42866  10.062  18.041   2.477  0.0458  0.1572 -0.0613
27736W        W42867  17.864   4.436   2.711 -0.1609 -0.0692  0.1789
27737W        W42868   4.087   6.503  12.337 -0.2316 -0.3830 -0.1134
27738W        W42869   0.262   6.716  12.922 -0.0243  0.1361  0.0116
27739W        W42870  10.804  18.095   5.112  0.2322 -0.0329  0.0003
27740W        W42871   9.901   3.506   4.343 -0.2627  0.0108  0.3760
27741W        W42872   4.940   1.408   5.048 -0.1110  0.1071 -0.0714
27742W        W42873   4.306  14.759  12.785  0.1888 -0.2686  0.1500
27743W        W42874  16.432   3.601   5.344  0.0052  0.3429  0.1721
27744W        W42875  11.258   7.099  12.776 -0.1033 -0.0117 -0.0503
27745W        W42876   5.132  11.668  15.633 -0.4582 -0.0008 -0.1692
27746W        W42877  13.483   6.419   4.551  0.3344 -0.1020  0.0731
27747W        W42878   6.106   8.448  12.141 -0.0222 -0.0005  0.0549
27748W        W42879  13.205  15.592  15.405  0.1488 -0.2229 -0.1023
27749W        W42880  16.434   1.239  12.027  0.1285 -0.2451  0.2269
27750W        W42881  11.493  10.549  15.331  0.0602  0.1268 -0.2011
27751W        W42882   0.126   7.295   1.529  0.1066 -0.1061  0.1820
27752W        W42883  14.737  10.412   4.292 -0.3934  0.1614  0.1048
27753W        W42884   4.204   7.997  15.413  0.0658 -0.3362 -0.3763
27754W        W42885   8.678  17.667  15.406  0.0451  0.5690 -0.2895
27755W        W42886  17.917  12.521  12.026 -0.1442 -0.2215  0.0199
27756W        W42887   2.976  14.484  11.135  0.0872 -0.1495  0.1710
27757W        W42888   9.181   8.462   3.578  0.1865  0.0057  0.0210
27758W        W42889  10.591  13.817   5.630  0.2344 -0.0991 -0.1047
27759W        W42890   1.526  13.051   3.626 -0.1166  0.0040  0.0985
27760W        W42891  18.013   5.573  11.803  0.0991 -0.3038  0.0284
27761W        W42892   1.405   7.228   2.931 -0.1236 -0.0863 -0.0706
27762W        W42893   9.831   6.851  14.871 -0.0367 -0.0089  0.2793
27763W        W42894  12.771  12.766   3.371 -0.1302  0.1353 -0.2440
27764W        W42895  14.397   3.909   2.420  0.0989 -0.4264  0.1347
27765W        W42896   1.719  10.487   5.228  0.2067 -0.1360  0.0566
27766W        W42897   2.578   3.910   4.099  0.2669  0.1685 -0.1218
27767W        W42898   9.118   3.676   4.897  0.2660  0.1645 -0.0362
27768W        W42899   5.475   7.352  12.666 -0.3756  0.0815  0.0998
27769W        W42900  13.259   4.969   4.360 -0.1118 -0.0044 -0.0438
27770W        W42901   0.442  14.075  13.338  0.0825 -0.1503  0.2597
27771W        W42902  17.457  12.339  12.228 -0.1062 -0.2941  0.3798
27772W        W42903   9.414  10.229   0.314  0.0432 -0.2701  0.0676
27773W        W42904   2.454  10.302   3.575 -0.0517  0.0496 -0.0399
27774W        W42905  10.715  15.861  11.433  0.2578  0.4064  0.2562
27775W        W42906   1.265   0.500   6.117 -0.0462  0.0125  0.0282
27776W        W42907  11.086   0.434   9.859 -0.0216 -0.2829 -0.1986
27777W        W42908  14.629   4.684   3.908 -0.0145 -0.4944  0.0948
27778W        W42909  14.152   8.078  13.299 -0.2101  0.1071 -0.1811
27779W        W42910  14.612   9.424   3.485  0.0455  0.2122 -0.3050
27780W        W42911  16.066  12.087   2.344 -0.0427 -0.2216 -0.0344
27781W        W42912  11.779  10.095   0.827  0.2475  0.2944  0.0530
27782W        W42913  14.195  17.362   3.198  0.0246  0.0530  0.0655
27783W        W42914   6.183  10.506  10.763  0.1099  0.2578 -0.0677
27784W        W42915   7.245   6.264  10.195 -0.1041  0.3249 -0.0785
27785W        W42916   4.904   0.700   5.419 -0.3004  0.3615 -0.0751
27786W        W42917   0.217   8.346   1.750  0.0778  0.1711 -0.0056
27787W        W42918  17.138   2.426  11.423 -0.1216 -0.2345 -0.3098
27788W        W42919  17.143  18.466  15.655 -0.1052  0.1455 -0.1978
27789W        W42920   0.356   3.929   3.969  0.1834 -0.1805  0.2902
27790W        W42921  12.821  16.056   4.104 -0.1291 -0.1665  0.1528
27791W        W42922   4.346   5.660   2.580  0.2256  0.1251  0.0868
27792W        W42923  14.525   5.682  12.438  0.2147  0.0597  0.2254
27793W        W42924  18.487   5.349  12.464 -0.2258  0.0045  0.2432
27794W        W42925   7.639  18.694   2.561  0.0140  0.2460 -0.2414
27795W        W42926  15.621  11.685  14.617  0.0300  0.1661  0.0429
27796W        W42927  15.770  16.894  11.785 -0.0679  0.1121 -0.0594
27797W        W42928  12.726  16.043   2.082 -0.3187  0.1323  0.3745
27798W        W42929  13.471  14.596   5.418  0.2240  0.0231 -0.0994
27799W        W42930   9.655   9.978   2.096  0.1535 -0.1181 -0.5104
27800W        W42931   1.037   6.366  10.655 -0.0054  0.2193  0.0455
27801W        W42932  10.281   0.725  11.166 -0.0007  0.0088 -0.1126
27802W        W42933  11.492   7.314   6.284  0.0355 -0.0860  0.1338
27803W        W42934   7.224   1.485   0.312 -0.0147 -0.1533 -0.0775
27804W        W42935   3.166  14.045  11.776 -0.0484  0.0367  0.1734
27805W        W42936  11.547   8.742   4.672 -0.1195 -0.5837 -0.0353
27806W        W42937  18.165   0.631   1.335 -0.1492  0.2283  0.2019
27807W        W42938   1.512  16.428  12.287 -0.1704  0.1949  0.1674
27808W        W42939   0.494   3.354   2.609 -0.2711 -0.0894  0.1675
27809W        W42940  12.861  14.753  10.558 -0.0834 -0.0768  0.1047
27810W        W42941   0.957  14.381   6.435 -0.0554 -0.1046  0.1812
27811W        W42942  12.446  15.037  12.477 -0.1261 -0.2545 -0.0369
27812W        W42943   9.901   1.483   0.378  0.0750 -0.0083  0.0067
27813W        W42944   1.638   1.004   0.805  0.0933 -0.0882  0.3160
27814W        W42945  11.305  12.963  13.678  0.3500  0.0550 -0.0234
27815W        W42946   9.350   0.033   0.901  0.1841 -0.0995  0.3700
27816W        W42947   5.094  14.531   1.543  0.0481  0.2649 -0.0706
27817W        W42948  12.163   8.025  14.917  0.1412  0.0659 -0.0093
27818W        W42949   8.879  12.470  15.261 -0.0667  0.2784 -0.0756
27819W        W42950   8.032   0.497  15.490  0.1739 -0.1234  0.2816
27820W        W42951  12.564  13.060  12.349  0.0263 -0.1900  0.0368
27821W        W42952   8.550  17.081  11.467 -0.4320  0.0292  0.2796
27822W        W42953   5.071   6.921   4.648  0.1289  0.2322 -0.5415
27823W        W42954  12.407   5.102  11.218  0.0478  0.0871 -0.2952
27824W        W42955   6.247  13.300  10.973  0.1899  0.1041  0.2514
27825W        W42956  10.143   0.817   1.312 -0.1827 -0.0784 -0.3366
27826W        W42957  11.708   8.408   1.038  0.4239  0.1288  0.1848
27827W        W42958   8.373  13.623  13.237 -0.2361  0.0759  0.0736
27828W        W42959  10.220   6.565  12.900  0.2516 -0.0637  0.1138
27829W        W42960   4.285   7.530   2.194  0.0008  0.0521 -0.3341
27830W        W42961   7.743   4.729  11.354  0.0189 -0.0113 -0.1163
27831W        W42962  12.885   3.053  12.854  0.4203  0.0005  0.0788
27832W        W42963  18.661   7.737   0.340  0.1097  0.3616 -0.0081
27833W        W42964  14.456   9.920  14.258  0.1915 -0.3838 -0.1818
27834W        W42965  11.794   8.611  15.403  0.1333  0.1094  0.0496
27835W        W42966  17.109   3.311  11.151 -0.2109  0.2402 -0.0123
27836W        W42967   1.942  17.586   0.795  0.1641 -0.2109 -0.1090
27837W        W42968  11.194  14.058  12.076 -0.0603  0.1290  0.1274
27838W        W42969   3.026  15.263  11.910  0.1074  0.2771 -0.1597
27839W        W42970   9.482  13.926   3.036  0.1166 -0.2080 -0.2444
27840W        W42971  11.594   2.563   4.448  0.0308 -0.1005 -0.0652
27841W        W42972  12.462  18.745  12.750  0.0517 -0.1431  0.1373
27842W        W42973  16.781   2.816   3.012  0.0191  0.1227  0.0611
27843W        W42974  14.365   6.231   2.196 -0.1277  0.4290 -0.1615
27844W        W42975   7.736  10.444   0.684  0.1123 -0.3916 -0.0110
27845W        W42976  13.671   0.208   4.851  0.0655 -0.0665  0.1004
27846W        W42977   6.822   9.710   1.466  0.0616  0.0932  0.0407
27847W        W42978  15.036  15.677   3.960  0.2110 -0.0178  0.3111
27848W        W42979  16.711  11.397  10.796 -0.0279 -0.1765 -0.0403
27849W        W42980   6.687   1.925  12.940  0.2452  0.2515 -0.1078
27850W        W42981   5.181  15.267  11.871 -0.2976 -0.3563 -0.0065
27851W        W42982   8.685   5.880  11.384 -0.0897  0.0543 -0.3716
27852W        W42983   6.254  12.314  10.874 -0.1390 -0.3259  0.2574
27853W        W42984  16.114   4.050  11.670  0.0819 -0.2105  0.0427
27854W        W42985  18.378   4.770  12.277 -0.4389  0.1004  0.2893
27855W        W42986  11.910   6.527  13.715  0.1464 -0.1642 -0.0010
27856W        W42987  15.717  12.170  11.353 -0.0203 -0.0071 -0.1913
27857W        W42988  12.576  12.677   3.816 -0.3736 -0.4427  0.0039
27858W        W42989  13.350   3.761   5.105 -0.1850 -0.3293  0.1352
27859W        W42990   2.684  18.026   0.923 -0.0190 -0.0149 -0.0856
27860W        W42991  11.482   6.791   5.132 -0.2511  0.1385  0.0095
27861W        W42992   8.101  14.413   1.924 -0.1356  0.0955 -0.1342
27862W        W42993  13.728   6.380   2.703  0.0530  0.2684 -0.0301
27863W        W42994   8.006   5.422   1.622  0.1038  0.1882  0.3028
27864W        W42995  11.726   9.141  15.521 -0.2231 -0.0740  0.0881
27865W        W42996   2.481   8.574  12.820 -0.1741  0.0059 -0.0665
27866W        W42997  14.664  17.268  15.323 -0.2572  0.0955 -0.1441
27867W        W42998   2.927   2.977  15.166 -0.2802 -0.0679  0.3766
27868W        W42999  17.267  10.845   1.918  0.3771  0.1622 -0.2792
27869W        W43000   2.629   1.601  13.650  0.0151 -0.1673 -0.2043
27870W        W43001  16.214  11.555  13.486  0.3233 -0.0403  0.1304
27871W        W43002   4.545   7.094   3.198 -0.1253 -0.2196  0.2204
27872W        W43003  17.691   9.249   0.927  0.3915  0.3972  0.1338
27873W        W43004   9.995  10.788  11.999 -0.2652 -0.2059  0.1047
27874W        W43005   4.782   4.425   1.086 -0.4731  0.1734  0.1901
27875W        W43006   2.426  10.354   0.930 -0.0411 -0.3640 -0.0748
27876W        W43007   0.727  11.853   3.420 -0.2191  0.1463  0.3341
27877W        W43008   0.979  15.098   1.462  0.1150 -0.0383  0.0004
27878W        W43009  18.697   3.325  14.238 -0.1691 -0.1198  0.0049
27879W        W43010   2.031   7.479  11.039  0.1985 -0.2948  0.1520
27880W        W43011  16.384   7.659  11.816 -0.0491 -0.2872  0.0137
27881W        W43012   2.499   0.537   2.196  0.3077 -0.2289  0.2358
27882W        W43013  12.393  15.292   1.603 -0.2874 -0.3181  0.1642
27883W        W43014   7.630  13.289  15.737 -0.1014  0.2667 -0.4158
27884W        W43015   9.154  13.780   3.424  0.4347 -0.0038 -0.2267
27885W        W43016   6.531  15.543   4.815 -0.0950  0.0385  0.1383
27886W        W43017   5.651   9.629  15.082  0.2245  0.0901 -0.1707
27887W        W43018   8.289  14.035   3.912  0.0998  0.0628  0.0035
27888W        W43019   8.612  18.209  12.569  0.0214 -0.1892 -0.2095
27889W        W43020  15.686   6.319   2.132 -0.1249  0.3816  0.2236
27890W        W43021   8.866   3.271   0.947 -0.0503  0.1506 -0.3190
27891W        W43022  14.852  10.401  14.631  0.0893 -0.0348 -0.1550
27892W        W43023  16.508  17.937  12.447 -0.0817 -0.1982  0.1309
27893W        W43024   9.243  17.383   2.881  0.3870  0.4546 -0.3991
27894W        W43025   5.584   6.710  15.647 -0.1413  0.1329 -0.4621
27895W        W43026  12.925  16.379   5.206 -0.0619 -0.4233 -0.2480
27896W        W43027  12.627   1.289  11.258  0.2322  0.1417  0.2248
27897W        W43028   9.696  12.880  13.461 -0.2373 -0.0385 -0.1054
27898W        W43029  15.085  14.405  15.690 -0.1871  0.0376 -0.0864
27899W        W43030  12.470   8.696   0.402 -0.1984  0.1058  0.0677
27900W        W43031   0.816  15.401   2.488  0.0101 -0.2434 -0.0473
27901W        W43032   2.969   1.542  12.505 -0.1984 -0.2115  0.0845
27902W        W43033  15.003  17.984   0.539  0.0649 -0.0298  0.1200
27903W        W43034  14.713  12.715   4.899  0.0175  0.3315 -0.5375
27904W        W43035   2.500   8.934  14.285  0.0725 -0.2770  0.3779
27905W        W43036  14.779   3.735  14.832  0.1391 -0.0834  0.2218
27906W        W43037  11.414   8.105  12.917  0.1558  0.0708 -0.0167
27907W        W43038   1.456   0.707   3.213  0.1604 -0.1627 -0.1058
27908W        W43039   2.986   9.693   2.445 -0.0625  0.0792  0.2222
27909W        W43040   5.902  15.817  11.054  0.0170 -0.0634  0.0086
27910W        W43041   1.776  10.461  13.690  0.0610  0.0539  0.3380
27911W        W43042   4.774   4.818  12.706 -0.0477  0.3209 -0.4378
27912W        W43043   2.838   5.196   3.625 -0.2024  0.0288  0.0242
27913W        W43044  10.706  14.244   0.918 -0.2341  0.1512 -0.2980
27914W        W43045  17.145   0.946   0.235  0.2861 -0.4542  0.2244
27915W        W43046   4.711  11.208   2.401  0.1177 -0.3918  0.0127
27916W        W43047  14.445   7.628   4.698 -0.0540 -0.0343 -0.2209
27917W        W43048   0.234   1.227  11.664 -0.1842  0.0560 -0.0549
27918W        W43049   9.225   1.241   4.769  0.0915  0.1728  0.2005
27919W        W43050  16.526  17.132   3.581  0.1724 -0.1224 -0.1142
27920W        W43051  16.163   7.933   0.442  0.0316 -0.2074 -0.0222
27921W        W43052   7.583   8.826  10.799 -0.2184 -0.0353 -0.1580
27922W        W43053   2.861   2.034  14.383 -0.1089 -0.3523 -0.3256
27923W        W43054   6.057   8.128   2.859  0.2758 -0.3832 -0.3171
27924W        W43055   5.810  15.002  13.472  0.0195 -0.3027 -0.2373
27925W        W43056   1.385   5.659   0.425  0.3349 -0.1960  0.1249
27926W        W43057  14.517   0.693  15.604  0.3452 -0.0882 -0.1939
27927W        W43058  13.261  13.685   2.092 -0.3624 -0.0019  0.2571
27928W        W43059  15.767  17.451   5.502  0.2476 -0.1947 -0.1628
27929W        W43060   5.876   4.396   0.480 -0.1248 -0.1700  0.2076
27930W        W43061   8.071   2.559  14.313  0.0128  0.3721 -0.3954
27931W        W43062  17.113  11.299  13.743  0.3142  0.1221 -0.0782
27932W        W43063  10.599   2.024  14.146 -0.1325 -0.0442 -0.2327
27933W        W43064   6.866   5.023  13.365 -0.2590  0.1388  0.0920
27934W        W43065   7.739   3.083  12.486  0.0254 -0.1099  0.0412
27935W        W43066   2.859   5.055   9.666 -0.5282 -0.0648 -0.1796
27936W        W43067   5.078   8.422   1.444  0.0556 -0.1576  0.1904
27937W        W43068   8.990   4.121   2.929  0.0993 -0.1133 -0.0020
27938W        W43069   2.857  12.887   2.230 -0.0440  0.2578  0.3005
27939W        W43070   8.688   1.872  15.254 -0.2024  0.0979 -0.2737
27940W        W43071   0.692   2.134  13.429  0.0642 -0.1520 -0.0505
27941W        W43072  11.077   9.423  14.211  0.1866  0.2116 -0.0482
27942W        W43073  10.795   8.311   0.674 -0.4703 -0.2955  0.3034
27943W        W43074   1.368   9.864  11.517  0.2491  0.1474  0.0260
27944W        W43075  10.905   1.146   1.494  0.0318  0.0586  0.1013
27945W        W43076  12.826  18.106   4.216 -0.1344 -0.0005  0.0027
27946W        W43077   7.307  16.711  11.151  0.0551  0.1555 -0.6077
27947W        W43078   0.603  14.168   0.954 -0.1762 -0.1252 -0.1001
27948W        W43079  16.296   3.805   4.101 -0.0083  0.1131 -0.3705
27949W        W43080   7.949  14.074  14.403 -0.1937 -0.3603  0.1189
27950W        W43081   1.520  10.639   1.926  0.0140 -0.2842 -0.1166
27951W        W43082   7.496   4.042   4.939 -0.1235  0.0389 -0.4469
27952W        W43083  10.996  12.145  14.966  0.0372 -0.1138  0.0617
27953W        W43084   8.764  18.515   4.502 -0.2766 -0.0303 -0.2053
27954W        W43085  12.757   9.576   3.278  0.0815  0.0652  0.0199
27955W        W43086  15.197   8.389   5.262 -0.1339  0.1006 -0.0021
27956W        W43087  18.304   4.828   0.128 -0.1884 -0.2780  0.1668
27957W        W43088  11.873  14.314  12.219 -0.1379  0.2165 -0.0885
27958W        W43089  18.548   5.812   0.542  0.2115  0.0701 -0.1946
27959W        W43090  12.424  18.751   4.810  0.0822  0.1471 -0.0946
27960W        W43091  14.100   4.666  15.382 -0.1299 -0.3332  0.2160
27961W        W43092  17.779  11.072   0.147  0.0239 -0.0114  0.1433
27962W        W43093   4.494   0.380   0.259  0.1172 -0.4070 -0.0708
27963W        W43094   1.932   3.089   4.391 -0.0935  0.0868 -0.2151
27964W        W43095   5.131  10.886  12.963  0.0295 -0.0205  0.0532
27965W        W43096  18.525   9.520   2.288  0.3625 -0.3284 -0.0183
27966W        W43097  16.012   0.821  14.286 -0.0628 -0.1033  0.1748
27967W        W43098   8.498  13.041   5.442 -0.0872 -0.4903 -0.1592
27968W        W43099   1.352  10.992  13.003 -0.0794  0.1519 -0.3681
27969W        W43100   9.795   7.794  11.498 -0.0924  0.1799  0.0250
27970W        W43101  11.317   4.628   2.099  0.1889 -0.3051  0.0685
27971W        W43102   7.168   0.787   5.053 -0.1157 -0.1480  0.1823
27972W        W43103  17.328   9.321  10.704  0.1235  0.0943 -0.0890
27973W        W43104  12.405  13.925  15.591  0.0871  0.1763  0.0181
27974W        W43105   2.829   6.199   3.683  0.0953  0.0034 -0.1886
27975W        W43106  15.031  14.385   4.935  0.1675 -0.0650  0.1114
27976W        W43107   9.795  11.281  12.152  0.0698  0.0017  0.0787
27977W        W43108  15.954   4.488  12.509 -0.1502 -0.3614  0.1572
27978W        W43109  17.044  16.801  15.166  0.1754  0.0342 -0.1761
27979W        W43110  18.752  10.680   0.733  0.4299  0.3088  0.3617
27980W        W43111  11.970  10.569  13.397  0.2445  0.3132  0.0235
27981W        W43112   5.387   2.380  14.093  0.3403 -0.0294 -0.1534
27982W        W43113  10.580   1.445   5.286 -0.0686 -0.0285 -0.0115
27983W        W43114   5.700   5.847  13.927  0.0573 -0.0905  0.1152
27984W        W43115   7.551   8.528  13.151 -0.3135 -0.2825  0.1402
27985W        W43116  10.374   2.366   1.855  0.0933  0.1746 -0.2926
27986W        W43117  16.794   4.719  10.971 -0.1166  0.0839 -0.2312
27987W        W43118   2.300  15.243  12.038  0.1658 -0.1766  0.1151
27988W        W43119  10.394   1.885   2.662 -0.0347 -0.0096 -0.1077
27989W        W43120   0.770   5.566  10.901  0.2189 -0.0831 -0.0294
27990W        W43121  10.251  11.352   4.523  0.0660 -0.1240  0.0040
27991W        W43122   4.033  17.840   0.424  0.0111  0.2058  0.0356
27992W        W43123  17.692   1.719  13.035 -0.1507 -0.1196  0.2429
27993W        W43124   6.581   4.482  14.795 -0.1761 -0.1078 -0.2728
27994W        W43125  16.419  15.136  13.742 -0.0513  0.4070  0.0085
27995W        W43126   9.395   4.778  13.646 -0.0290 -0.1359  0.4889
27996W        W43127   8.945   0.418  15.069  0.1779  0.2365 -0.2538
27997W        W43128  14.930  18.224  10.106  0.0204  0.0008 -0.1886
27998W        W43129   9.481   4.791  10.742  0.0046 -0.0401 -0.0975
27999W        W43130  16.569  18.531  14.527  0.0178  0.2536  0.3321
28000W        W43131   3.234  10.083  15.193 -0.0156 -0.4600 -0.0653
28001W        W43132  14.042   1.931  10.025  0.0144  0.0481  0.0288
28002W        W43133  10.508   9.289   2.719  0.2337 -0.1462  0.0996
28003W        W43134   2.017   2.327   2.448 -0.1493  0.1597 -0.0391
28004W        W43135   0.133   5.201   4.749  0.0947  0.0948 -0.2840
28005W        W43136   0.644  15.631  11.989 -0.1510 -0.1701 -0.0092
28006W        W43137   9.098  11.182   5.371  0.1020  0.3592 -0.0728
28007W        W43138  16.956   1.961   5.720 -0.4234 -0.1033  0.0531
28008W        W43139  11.354   6.499  12.749 -0.1115  0.1020  0.1818
28009W        W43140   2.423  18.075   1.424 -0.2022 -0.0727  0.1374
28010W        W43141  13.495   9.185   5.099 -0.1626 -0.1878  0.2789
28011W        W43142   4.198   7.587  13.442  0.0163 -0.1904  0.1105
28012W        W43143   2.152   5.016  13.168  0.1281 -0.1333  0.3555
28013W        W43144   9.625  11.152   4.977 -0.1257  0.0542  0.0899
28014W        W43145   9.215  18.691  13.051  0.0029  0.0991 -0.0094
28015W        W43146   9.890   1.053   1.739  0.0796 -0.4063  0.0003
28016W        W43147  12.597   8.455  12.458 -0.0937 -0.4583  0.0772
28017W        W43148   1.966  11.109  12.059 -0.3683 -0.1435  0.0187
28018W        W43149   4.952  14.186  10.257  0.4745 -0.0555 -0.2569
28019W        W43150  10.692   4.758  14.656  0.3272  0.0405  0.0926
28020W        W43151   9.016  16.276   1.210  0.1867 -0.0137  0.1981
28021W        W43152   7.286  18.362   2.619  0.0946 -0.2199 -0.1721
28022W        W43153  17.453   1.451   4.673 -0.0242  0.2066  0.0239
28023W        W43154  12.602  14.005  11.210 -0.2023 -0.2098 -0.1062
28024W        W43155  12.098  10.350  12.491  0.1188 -0.0996  0.0267
28025W        W43156   8.008  15.926   2.176  0.0014  0.0146 -0.3152
28026W        W43157  12.624   9.307   5.370  0.3265 -0.0989  0.1623
28027W        W43158   1.382   9.554   0.270 -0.0148 -0.2638  0.1129
28028W        W43159  17.141  17.420   2.411 -0.1072  0.3176 -0.1266
28029W        W43160  10.795   5.634  15.376 -0.2320  0.1280  0.1058
28030W        W43161   7.533   8.353   4.761  0.0487  0.0135  0.2247
28031W        W43162  10.313  12.065  15.109  0.1235 -0.4082 -0.1686
28032W        W43163   0.318   3.665  12.485 -0.0033  0.2748  0.1504
28033W        W43164   0.288   8.342   9.898 -0.0986  0.3554  0.2724
28034W        W43165   5.953  10.757   4.808 -0.1093  0.1661 -0.0367
28035W        W43166   2.558  16.284   4.743  0.1675 -0.2713 -0.3000
28036W        W43167   1.928  14.782   2.549  0.2805  0.1125  0.0210
28037W        W43168  15.866  13.954  10.717  0.1811  0.0479  0.1299
28038W        W43169  10.157  16.596   1.848  0.0047 -0.3194 -0.0085
28039W        W43170  14.119  17.859   1.763  0.1143  0.0762  0.3300
28040W        W43171  10.836   7.183  11.506  0.0973 -0.0324  0.1734
28041W        W43172  13.870   6.028   2.359  0.0175  0.0673  0.1687
28042W        W43173  17.487  13.568   3.440  0.0880 -0.0098  0.5454
28043W        W43174   0.224   4.935   5.225 -0.1511  0.1949 -0.1347
28044W        W43175  16.786   2.708   0.553  0.2320  0.0107  0.1373
28045W        W43176   8.786   6.544   5.457  0.1351  0.3741  0.0475
28046W        W43177   1.663   4.876  13.924  0.1250  0.4051 -0.0621
28047W        W43178  11.225   8.824  14.364 -0.1588 -0.0989  0.1114
28048W        W43179   0.929  17.675   0.492 -0.0108  0.1824  0.3155
28049W        W43180  11.601  10.822  14.613 -0.3440  0.1419 -0.0602
28050W        W43181  11.801  18.009  12.806 -0.2244 -0.0630 -0.4849
28051W        W43182   1.468   6.307   2.906 -0.0432 -0.1100  0.0197
28052W        W43183   5.052  17.545  15.481 -0.0267  0.1966 -0.0531
28053W        W43184   5.112   5.270  12.859 -0.2596 -0.2022 -0.0336
28054W        W43185   9.690   2.424  12.008  0.0793  0.0501 -0.2728
28055W        W43186   2.675  14.484   1.796  0.1399  0.1812  0.0454
28056W        W43187   8.024  15.923  13.850 -0.1106 -0.0564  0.0915
28057W        W43188   4.282  16.978  14.373 -0.0576  0.1971  0.2622
28058W        W43189   2.641  15.940  10.748 -0.0474 -0.0194 -0.0993
28059W        W43190  17.882   9.653   1.097 -0.3058 -0.0512  0.1404
28060W        W43191   0.521   5.719   1.698  0.2731 -0.2836 -0.0639
28061W        W43192  18.551  14.794  14.227  0.1073  0.1003 -0.0398
28062W        W43193   2.527   0.629   0.053  0.2826 -0.1525  0.2107
28063W        W43194   8.121  10.805  15.680  0.2324  0.1203  0.2605
28064W        W43195   4.400  17.020  11.700  0.1810  0.0469 -0.0064
28065W        W43196  18.132   0.668  12.927  0.2402 -0.3587  0.2065
28066W        W43197  11.433   7.970   5.947  0.2579  0.3462  0.3619
28067W        W43198   0.512   7.372   4.493 -0.1338 -0.3957  0.0595
28068W        W43199   6.009   0.906   2.388 -0.2131 -0.3083  0.0981
28069W        W43200  18.350   3.355  11.868 -0.1803 -0.1730 -0.0780
28070W        W43201   3.082  17.457  11.193 -0.1602 -0.3083 -0.2137
28071W        W43202   0.457   4.697   2.433 -0.0287 -0.2405 -0.0671
28072W        W43203  12.571  18.317  11.125  0.3151  0.2584  0.1138
28073W        W43204   7.521  14.718  11.316 -0.0321  0.3537 -0.1936
28074W        W43205   8.413   4.378   4.921  0.0999  0.1495  0.3501
28075W        W43206  11.716   8.322  14.998 -0.0498 -0.1100 -0.2089
28076W        W43207  10.413   4.714   1.781  0.0950 -0.0029  0.2805
28077W        W43208  17.925   5.662  11.294 -0.1017 -0.0325  0.0793
28078W        W43209   2.405   1.618  14.813 -0.0627  0.0746  0.0415
28079W        W43210   8.546   0.894  12.116  0.0866  0.3679  0.1294
28080W        W43211   8.059  11.344  11.066 -0.1135  0.0855  0.0197
28081W        W43212   8.432   5.141   1.554 -0.0791 -0.1540 -0.1377
28082W        W43213   2.006  14.441  13.474 -0.1206 -0.1365 -0.0543
28083W        W43214  10.226   2.342  14.356 -0.0375 -0.1305 -0.2401
28084W        W43215   0.558  14.469   1.354  0.1761  0.1693 -0.1443
28085W        W43216   1.276   0.180  14.589  0.0355 -0.1100  0.0792
28086W        W43217   3.007  11.319   0.186 -0.2248 -0.0549 -0.1490
28087W        W43218  17.041  17.090   2.002  0.2253 -0.1867 -0.2081
28088W        W43219   0.433   8.934   0.986  0.2924  0.2040  0.1032
28089W        W43220   5.692   1.506   1.946  0.0346  0.1929 -0.1294
28090W        W43221  11.646   8.701  14.730 -0.1397  0.0244 -0.1047
28091W        W43222   9.146  13.409  14.017  0.0729 -0.0287 -0.2651
28092W        W43223  10.410  12.419   1.947  0.0222  0.0109 -0.0161
28093W        W43224   0.602   8.948   3.026  0.0217 -0.3218 -0.5618
28094W        W43225  13.482  18.178  11.296  0.2554 -0.1321  0.1424
28095W        W43226   8.644  11.657   0.966 -0.2445 -0.1359  0.1864
28096W        W43227  17.144   8.609   2.089 -0.0522  0.0961  0.3360
28097W        W43228  16.288   6.602   2.957 -0.0098 -0.3165 -0.0315
28098W        W43229   9.384   5.569  11.457  0.0334 -0.1810  0.2941
28099W        W43230  16.675  11.351   4.325 -0.2680  0.1297 -0.5668
28100W        W43231   0.659   7.996  10.045 -0.1544  0.1670 -0.0841
28101W        W43232   6.857   8.263   1.334 -0.1059 -0.2989  0.2563
28102W        W43233  12.701   5.041   2.015 -0.1591  0.3136  0.0164
28103W        W43234  11.188   9.219   0.951 -0.0219  0.1383 -0.0703
28104W        W43235   1.136   7.039  15.382 -0.2833  0.3617  0.0891
28105W        W43236   0.695  11.250  10.866  0.1135  0.2615  0.1292
28106W        W43237   9.017  10.851  12.476  0.1134  0.1220 -0.0966
28107W        W43238  13.193  15.342   9.685 -0.0505  0.1547  0.0511
28108W        W43239  13.547   8.274   3.601  0.2214 -0.2224  0.1197
28109W        W43240  13.829  16.744  13.030 -0.1164  0.0412  0.0016
28110W        W43241   7.197  17.674   3.087  0.1766  0.0517 -0.1316
28111W        W43242  12.980   8.651  13.441 -0.0234  0.1844 -0.2267
28112W        W43243   3.116  14.077  10.863  0.2595  0.1059 -0.1264
28113W        W43244   4.489  16.446  15.588  0.2919  0.1330 -0.0114
28114W        W43245   7.953   0.303  13.462  0.2737  0.0805 -0.0194
28115W        W43246   5.432   2.850  14.994  0.0981 -0.1776 -0.1783
28116W        W43247   9.948  10.000   3.597 -0.1823 -0.0141  0.3634
28117W        W43248  18.131  13.077   4.423  0.2863 -0.0186 -0.1519
28118W        W43249  15.684  16.324  15.633  0.0290 -0.2012 -0.0554
28119W        W43250  16.467  12.046  13.990  0.2403  0.1823  0.1421
28120W        W43251   3.440  11.446   0.530  0.2194  0.2048 -0.1988
28121W        W43252   9.322  12.005   2.784  0.2504  0.0307  0.0050
28122W        W43253   3.172   9.870  12.128 -0.0205 -0.0089 -0.0845
28123W        W43254  17.393   8.322  14.339  0.2710  0.1159 -0.0726
28124W        W43255   7.026  10.301   0.225  0.1197  0.0836  0.0041
28125W        W43256  12.794   3.121   4.753 -0.0511 -0.1838  0.0085
28126W        W43257   9.367   7.198   4.876  0.0334  0.2724 -0.0200
28127W        W43258   8.277   6.191  11.239  0.3769 -0.0383 -0.2743
28128W        W43259   1.297  11.375  12.574 -0.0076  0.3936 -0.2313
28129W        W43260  14.291   8.571  12.476 -0.1799  0.0360 -0.1152
28130W        W43261  13.302  18.508   4.752  0.1113 -0.0400 -0.2842
28131W        W43262  15.277  11.767   0.142 -0.0249 -0.1159  0.0594
28132W        W43263   4.785  17.617   3.363 -0.1451  0.0692 -0.0178
28133W        W43264   4.133   1.075  14.174  0.2533 -0.1149  0.2186
28134W        W43265  16.471   5.648  15.167  0.1953 -0.0186 -0.2147
28135W        W43266  13.450   2.378   1.050 -0.0793  0.1466 -0.1057
28136W        W43267  15.915   8.447   3.086 -0.3005  0.2183  0.0217
28137W        W43268  11.137   0.923  11.757 -0.1122 -0.0976 -0.0522
28138W        W43269   7.029   8.890  15.734  0.0789 -0.1941  0.0120
28139W        W43270  11.597  14.069   4.241 -0.0971  0.0065 -0.3144
28140W        W43271   5.981  14.205  13.933  0.2764  0.2211 -0.0745
28141W        W43272   6.866  11.838   2.445  0.0726 -0.1608  0.0279
28142W        W43273  15.646   5.365  10.657 -0.3166 -0.2930 -0.0236
28143W        W43274  13.360   8.827  11.079 -0.1919 -0.0771  0.0276
28144W        W43275  16.198  16.286   4.743 -0.4389  0.0737  0.0780
28145W        W43276   5.210  16.954  11.283  0.4452  0.0110 -0.1650
28146W        W43277  10.632  10.935  13.315  0.1796  0.0446  0.1832
28147W        W43278  11.887   5.127  11.208 -0.0312 -0.1124 -0.2969
28148W        W43279  15.346  10.900   2.522 -0.0308 -0.1466  0.1116
28149W        W43280  10.608  12.364   0.172 -0.4420  0.0815  0.1991
28150W        W43281   2.148   2.382   9.907 -0.1440 -0.1752  0.4211
28151W        W43282  17.318   3.869   4.261 -0.0506 -0.1319  0.1969
28152W        W43283  16.349   0.698  14.814 -0.0471 -0.0393  0.1024
28153W        W43284  14.711  13.060  11.926 -0.1260 -0.0840 -0.2834
28154W        W43285   6.732  17.249   3.827  0.0352  0.0137  0.1168
28155W        W43286   2.452   5.526  10.403 -0.0700 -0.0571 -0.3426
28156W        W43287   4.818  12.360   3.956 -0.0990  0.1340 -0.0727
28157W        W43288   2.961   6.758  11.558 -0.0238 -0.1163  0.2153
28158W        W43289  17.205  11.740  13.514  0.0405  0.4148  0.4807
28159W        W43290  18.570   4.938  14.618 -0.0796  0.1884 -0.0061
28160W        W43291   1.488  17.471   4.436  0.0657  0.1213 -0.2440
28161W        W43292  15.834   3.141   1.057 -0.0626 -0.0649  0.0120
28162W        W43293   9.059  17.601  13.714 -0.3884 -0.0171  0.2794
28163W        W43294   3.462   5.874   0.272 -0.1990 -0.2213  0.1389
28164W        W43295   0.271   8.575  15.617  0.2504  0.0945 -0.0298
28165W        W43296   7.099   7.312  13.439 -0.1745 -0.0895  0.1276
28166W        W43297   9.593   7.061   5.313  0.1579 -0.2765  0.1428
28167W        W43298  14.433  11.977   4.748  0.1313 -0.1313  0.0518
28168W        W43299  14.061   5.874  10.825  0.0180 -0.0530  0.1171
28169W        W43300   9.975   9.170   3.260  0.0250 -0.0952 -0.0743
28170W        W43301   1.975   2.380  15.029  0.2034 -0.0765  0.1108
28171W        W43302  11.781  15.938  13.373  0.4204  0.0152 -0.1809
28172W        W43303   6.261  16.448   4.234 -0.0398 -0.5727  0.0705
28173W        W43304  15.928   8.704  13.193  0.2383 -0.1776 -0.0791
28174W        W43305  10.705   1.703   4.034  0.2706  0.2216  0.1108
28175W        W43306  15.125  17.080  13.282 -0.1826  0.0455 -0.1571
28176W        W43307   4.582   4.172   3.287 -0.2969  0.2996  0.1411
28177W        W43308   6.467  15.524  14.914 -0.0686 -0.0491  0.0021
28178W        W43309  11.419   0.881  14.750 -0.0346  0.0714 -0.3287
28179W        W43310   5.058   3.778   5.045 -0.0231 -0.1651 -0.0151
28180W        W43311  16.904   5.320  12.177 -0.3025  0.2759 -0.1866
28181W        W43312  16.975   0.883  13.852 -0.1274  0.2005  0.2714
28182W        W43313  10.921   5.565  14.232  0.1141 -0.0161  0.2320
28183W        W43314  11.173   5.312  13.180 -0.0113 -0.1047 -0.1179
28184W        W43315  16.985  18.724   6.405  0.2431  0.0837  0.0212
28185W        W43316  14.194   8.649  14.819  0.4735 -0.1922  0.0520
28186W        W43317  14.751  17.529   4.046 -0.0162  0.0862  0.0271
28187W        W43318  18.082  12.352   3.368  0.1486 -0.3118  0.4163
28188W        W43319   4.120  16.481   1.342  0.0324 -0.0779 -0.1824
28189W        W43320  16.321  18.349  14.109  0.1425  0.0220 -0.0196
28190W        W43321   4.316  17.795   1.177 -0.2716 -0.0220  0.2582
28191W        W43322   1.133  11.846   2.912 -0.1472 -0.0969 -0.0460
28192W        W43323  12.477   3.415   1.760 -0.0634  0.0172 -0.1946
28193W        W43324   9.701  14.548  13.898  0.2068  0.1385 -0.0177
28194W        W43325  10.718   3.629   6.205  0.1349 -0.2727  0.0977
28195W        W43326  11.170   4.526  13.382  0.0917 -0.0822 -0.3135
28196W        W43327   7.357   6.684  12.899  0.1826 -0.3211  0.3283
28197W        W43328   8.442  11.263   4.708  0.2636  0.0549 -0.2697
28198W        W43329   1.149  10.545  12.150  0.1893  0.0016  0.0394
28199W        W43330   0.647  17.268   2.929 -0.3480 -0.0297  0.0270
28200W        W43331   8.386   5.969  12.680  0.2265  0.1249  0.1024
28201W        W43332  14.359   2.596   0.069  0.0996 -0.3561 -0.0138
28202W        W43333   9.533   1.506  11.349 -0.0597  0.3855  0.0198
28203W        W43334   7.482   9.395   2.075  0.1521  0.0302  0.1353
28204W        W43335  11.221   2.765  11.654 -0.2858 -0.2099  0.1531
28205W        W43336  13.381  12.598  12.039 -0.1899 -0.0168  0.1511
28206W        W43337   5.329   7.143   2.467 -0.0105 -0.4596 -0.1534
28207W        W43338  11.171  18.699   2.226 -0.0704  0.0004 -0.1818
28208W        W43339   6.204  15.484   4.357 -0.3636  0.2665  0.0844
28209W        W43340   2.909   2.347  11.387 -0.3438  0.0346 -0.0320
28210W        W43341   6.398   7.633   4.965 -0.2276  0.0857  0.4846
28211W        W43342  15.766  13.254   1.731 -0.0990 -0.0393 -0.3078
28212W        W43343  18.345  14.998   3.843  0.0364 -0.2711 -0.1034
28213W        W43344   3.722  11.578   4.810 -0.1163 -0.0991  0.0784
28214W        W43345   4.299  18.304  13.633  0.3022 -0.1320 -0.0264
28215W        W43346  13.797  12.797   3.225  0.0158 -0.2647  0.4453
28216W        W43347  11.207  11.190   4.271 -0.2639 -0.1544  0.2652
28217W        W43348   3.820  13.860  13.783  0.1189  0.0600 -0.0545
28218W        W43349   7.609   4.950   1.314 -0.1289  0.0822 -0.0827
28219W        W43350  12.054   5.972   4.245 -0.0844  0.0229 -0.1299
28220W        W43351  15.656  12.829  12.161 -0.0360 -0.0002 -0.0639
28221W        W43352  12.621  18.725  14.214 -0.1308  0.0639  0.0483
28222W        W43353   0.997  18.134   3.375 -0.2706  0.1150 -0.2658
28223W        W43354   1.017   6.084   3.031 -0.0016 -0.2849  0.1704
28224W        W43355  16.217   5.279  11.969 -0.0838 -0.2429  0.0412
28225W        W43356   0.462  12.936   5.217 -0.4260  0.4130  0.0930
28226W        W43357  17.135  16.824   5.701 -0.0830  0.0139 -0.0100
28227W        W43358  12.538  11.425   1.316 -0.1554 -0.0200 -0.2297
28228W        W43359  16.356  11.369  11.163  0.0375 -0.2529 -0.2020
28229W        W43360  15.149  12.674  12.882 -0.0691  0.2370 -0.1444
28230W        W43361  13.451  18.410   1.219  0.0130 -0.1986  0.0425
28231W        W43362  18.698   2.588   4.432  0.0415 -0.1534  0.2499
28232W        W43363  12.845   3.729   0.759 -0.1614  0.1350 -0.1992
28233W        W43364   8.600   2.842   4.057 -0.3226 -0.1137 -0.3069
28234W        W43365   7.580   7.022  10.790 -0.0815 -0.0801 -0.0173
28235W        W43366  16.743   8.405  10.189  0.0410  0.1304  0.1164
28236W        W43367  14.027  12.906  11.815  0.0576  0.1039  0.1652
28237W        W43368  18.210   3.359   4.119  0.1356  0.0341 -0.0923
28238W        W43369  14.483  15.303  14.406 -0.3984  0.1371  0.0841
28239W        W43370   5.197   2.386   0.014 -0.2706 -0.1087  0.0769
28240W        W43371   8.682   4.479  14.008 -0.1073 -0.1758 -0.0110
28241W        W43372   7.344  12.323   1.371 -0.1515  0.1492  0.0788
28242W        W43373   6.571  15.667   2.657 -0.0065  0.1428 -0.1667
28243W        W43374   3.878   5.013  15.670 -0.3725  0.2890  0.0726
28244W        W43375   8.842   6.533   2.650 -0.2456 -0.0356 -0.0087
28245W        W43376   6.477   9.110   1.800 -0.3361 -0.0696  0.1131
28246W        W43377   1.911   7.590   0.544 -0.3129  0.4113  0.1212
28247W        W43378   0.007   8.898   1.868 -0.2973  0.1768  0.0934
28248W        W43379  16.075   7.076  10.376 -0.0638  0.1598  0.1030
28249W        W43380  15.677  11.854  11.769  0.2846 -0.0084  0.1356
28250W        W43381   0.127   3.708   5.005 -0.2123 -0.3242 -0.0200
28251W        W43382  14.131  10.434   4.571 -0.0996 -0.0297  0.1781
28252W        W43383  10.861   1.875   1.474  0.1002  0.0886 -0.1637
28253W        W43384   6.218   1.187   1.929 -0.2126  0.2601  0.1987
28254W        W43385  12.455  10.228  10.932  0.1343 -0.0086 -0.3177
28255W        W43386   4.325  11.942   0.316  0.1296  0.2313 -0.5955
28256W        W43387  16.272   5.328   3.334 -0.0277 -0.0228 -0.1681
28257W        W43388  15.604   4.447   1.484  0.2175  0.0535 -0.1008
28258W        W43389  14.732  12.334  13.681 -0.0565 -0.0813  0.2472
28259W        W43390  10.945   3.789  15.657  0.2750 -0.0120 -0.1055
28260W        W43391   3.851  12.091  13.126  0.2726 -0.0705 -0.2146
28261W        W43392   1.602   9.063  15.723 -0.0149  0.1572  0.2639
28262W        W43393  14.230  18.617   3.653 -0.3477 -0.6712  0.2741
28263W        W43394  14.910   1.149   3.988  0.0771 -0.6018 -0.2381
28264W        W43395  15.825  12.456  15.160  0.0823  0.0719  0.2136
28265W        W43396  14.311  11.691  11.187 -0.0932 -0.0061  0.0251
28266W        W43397  17.068   8.430   0.851 -0.2210 -0.1154 -0.1237
28267W        W43398   2.431   2.030  15.072  0.1432  0.3153 -0.0160
28268W        W43399   7.808  10.208   2.315 -0.1247 -0.3140 -0.2326
28269W        W43400   8.447  12.100   4.856 -0.0767 -0.0766 -0.3732
28270W        W43401   1.346   0.328   9.500 -0.0397 -0.4111  0.2538
28271W        W43402   1.906  17.045   0.042 -0.0004  0.1219 -0.1188
28272W        W43403   2.657  11.106   0.551 -0.0031 -0.0371 -0.0004
28273W        W43404   8.438   0.987   2.674 -0.1016 -0.1793 -0.0418
28274W        W43405  17.147  17.220  14.863  0.0838 -0.1758 -0.2407
28275W        W43406   5.742   2.436  11.595 -0.6060  0.1328 -0.0705
28276W        W43407  16.417  15.838   4.990 -0.2013  0.0086 -0.2854
28277W        W43408   6.620  16.893   4.201  0.1770 -0.0019  0.1478
28278W        W43409   1.867  12.979  10.262  0.2604 -0.0281  0.1205
28279W        W43410  13.286  10.661  11.980 -0.1592 -0.0983 -0.0013
28280W        W43411   8.326  13.412  12.332  0.0323 -0.1570 -0.0941
28281W        W43412   2.229   2.955   0.011 -0.4181  0.0536 -0.0004
28282W        W43413  11.053   3.152   0.396  0.0208  0.0162 -0.0375
28283W        W43414   5.518   9.741   4.477 -0.0836 -0.1058 -0.0017
28284W        W43415  15.177  12.040  13.857  0.0404  0.3264 -0.1034
28285W        W43416  16.830  16.444   4.754 -0.5705 -0.1525  0.2399
28286W        W43417  16.261  11.534   3.578 -0.5475 -0.1621  0.1523
28287W        W43418   6.795  17.087  13.236 -0.1154  0.0737  0.1355
28288W        W43419  17.757   3.861   2.020  0.0584  0.1022  0.0568
28289W        W43420   6.702   5.957   1.834  0.0138  0.3598  0.0606
28290W        W43421  15.019  18.013  13.921 -0.0791 -0.3932 -0.1226
28291W        W43422  10.548  14.817   3.326  0.0311 -0.0099  0.1867
28292W        W43423  15.219   2.262  14.132 -0.0186  0.1166 -0.1936
28293W        W43424   8.167   1.635   3.676  0.0534  0.3027 -0.1366
28294W        W43425   7.889  18.610  10.711  0.0212  0.2268 -0.1651
28295W        W43426  15.639   9.174  15.372 -0.5442  0.2159  0.1785
28296W        W43427   4.656  10.872  14.914 -0.2648 -0.2576 -0.1132
28297W        W43428   2.873   5.678   2.781 -0.0437  0.1461 -0.0334
28298W        W43429  16.291  18.527  13.594 -0.4908  0.2695  0.1960
28299W        W43430  12.624   4.009   1.846 -0.0439  0.3210 -0.0812
28300W        W43431  15.189   8.546  14.425 -0.0029 -0.2465  0.0327
28301W        W43432  18.418  14.516   2.559 -0.0174 -0.0382  0.0403
28302W        W43433   7.670   3.522   2.821 -0.0659  0.1060  0.0733
28303W        W43434   9.045   1.641  11.900  0.0481 -0.0779  0.1396
28304W        W43435   5.303   5.888   4.079 -0.0543  0.2062  0.2979
28305W        W43436   6.020  11.711   0.842  0.2037  0.0750  0.0737
28306W        W43437   5.806  14.216   2.145  0.0802 -0.1480 -0.1795
28307W        W43438  16.491  18.120  11.965  0.2022 -0.0141 -0.0413
28308W        W43439   4.644   5.414   0.832 -0.3072  0.2773  0.0521
28309W        W43440   1.871  16.185  11.867  0.0746  0.0112  0.0655
28310W        W43441  10.544  12.277   4.098  0.0371  0.0209  0.1196
28311W        W43442  15.310  12.547   3.420  0.0251  0.2001 -0.1419
28312W        W43443  17.180   4.879  14.207  0.0307  0.0509  0.1450
28313W        W43444  16.084   4.020   1.800  0.1562 -0.2762 -0.1677
28314W        W43445   5.898   5.298   2.707  0.4571 -0.0831  0.3188
28315W        W43446  18.434  18.329  13.027 -0.0941  0.3012  0.1153
28316W        W43447   7.237  11.977  10.653  0.3322 -0.0138 -0.1848
28317W        W43448  17.953  17.616   2.820 -0.4200 -0.0055  0.3590
28318W        W43449   0.444   3.432  15.607  0.3568 -0.2160  0.1478
28319W        W43450   8.632   8.601   3.097 -0.2020  0.3242  0.0053
28320W        W43451   6.553   6.575   1.705  0.1949  0.0479  0.1796
28321W        W43452  12.080  15.888  14.331 -0.2142 -0.1140  0.1464
28322W        W43453   6.135  12.474  12.178  0.0119 -0.0897 -0.1370
28323W        W43454   4.926   1.099  15.444  0.0175 -0.2013  0.1079
28324W        W43455   8.400   3.071   0.964 -0.2422 -0.1805 -0.1256
28325W        W43456  18.271  17.071   0.177 -0.1542 -0.1085 -0.0291
28326W        W43457  11.230   4.557   0.251  0.0849 -0.4274  0.0476
28327W        W43458  17.005   1.244  15.092 -0.3918  0.0019 -0.0337
28328W        W43459   5.593  16.206  11.853 -0.0042  0.0326  0.2420
28329W        W43460   9.787   1.151   4.561  0.1651  0.2651 -0.0997
28330W        W43461   4.296  15.269  14.772  0.0189 -0.0863  0.2605
28331W        W43462   5.682   2.880  15.639  0.2177  0.2139  0.0383
28332W        W43463  15.197   7.040  11.484 -0.1340  0.1050  0.3618
28333W        W43464  16.295  10.204  12.961 -0.0567 -0.0154  0.1448
28334W        W43465   6.856  15.338   4.511  0.0970  0.1022 -0.0568
28335W        W43466  17.601  10.120   4.625 -0.1412 -0.0332  0.3019
28336W        W43467   3.674  12.827   2.238 -0.0238  0.0038  0.2277
28337W        W43468   0.284  17.184   5.629  0.2133  0.0851 -0.2046
28338W        W43469   2.069   8.149  10.992 -0.0814 -0.0369 -0.2792
28339W        W43470  10.810  16.738  12.564 -0.2291  0.1806  0.0919
28340W        W43471  13.125   7.162   4.326  0.2158 -0.1446  0.1882
28341W        W43472  14.436   5.185  15.220 -0.0030 -0.1781 -0.0482
28342W        W43473   5.886   7.139  14.710  0.3242  0.3499 -0.4838
28343W        W43474  15.272   1.810   1.247 -0.5113  0.1146  0.2546
28344W        W43475   4.816  18.113   2.160  0.2343  0.1136  0.2076
28345W        W43476   9.706  17.864   3.317 -0.0466 -0.0514 -0.0386
28346W        W43477   2.593   9.542   3.932  0.1225  0.0301 -0.0480
28347W        W43478  11.538  16.584   0.752  0.4527  0.2285 -0.2115
28348W        W43479  14.975   6.461   0.668  0.0063  0.2394 -0.0341
28349W        W43480   1.203  14.566  14.914  0.1959  0.0170  0.0251
28350W        W43481  12.276   8.418   2.231 -0.1979 -0.0988  0.1521
28351W        W43482  14.204   5.623   2.296  0.1036 -0.0547  0.3257
28352W        W43483  10.176  15.940   4.050  0.2427 -0.2554 -0.1579
28353W        W43484   5.094  13.874   1.070  0.4137  0.1111  0.1563
28354W        W43485  12.838   0.630   3.691 -0.0598  0.0283  0.0141
28355W        W43486  18.515   0.711  14.533 -0.0417  0.0851 -0.1596
28356W        W43487   1.894   3.794   1.529 -0.2193 -0.1877 -0.0435
28357W        W43488   9.099   0.356   1.664 -0.0077  0.2129 -0.6673
28358W        W43489  10.242   9.361   4.878 -0.2702 -0.0004 -0.0507
28359W        W43490   3.616   5.738   4.209 -0.0950  0.1434 -0.0601
28360W        W43491   7.176  17.241  14.460 -0.4415  0.0378  0.0565
28361W        W43492   9.738   7.514   1.709  0.0765  0.0056 -0.2618
28362W        W43493  18.401  15.780   1.659 -0.0709  0.0376 -0.0763
28363W        W43494  11.140  13.143   4.030  0.1138 -0.0330 -0.2671
28364W        W43495  17.574   1.674   1.254 -0.4345 -0.1474 -0.3651
28365W        W43496  11.171  16.474   3.233  0.2126  0.0059  0.2176
28366W        W43497  12.131  15.860   3.411  0.2719  0.1963 -0.1286
28367W        W43498  12.149   3.898  11.024 -0.0283 -0.2710  0.0192
28368W        W43499   5.643   2.367   2.477 -0.1311 -0.2013  0.0300
28369W        W43500   5.686   8.371   2.656  0.2103 -0.3517  0.1661
28370W        W43501   7.842   4.732   2.189 -0.1976 -0.4424 -0.1532
28371W        W43502   2.821   1.136  13.390  0.4180 -0.1019  0.0041
28372W        W43503  18.655  16.824  10.908 -0.1535  0.2093  0.1663
28373W        W43504  15.324  12.961  14.283  0.0141 -0.0617 -0.2686
28374W        W43505   1.296   8.771   5.545 -0.1070  0.3275  0.0631
28375W        W43506   1.375  11.929  12.620  0.3141  0.1099 -0.1866
28376W        W43507  18.044   3.436  15.679 -0.1925  0.1769 -0.0722
28377W        W43508   9.380   7.711  12.604  0.0212 -0.3634  0.1490
28378W        W43509   4.981   8.834   4.917  0.2175  0.0600 -0.4877
28379W        W43510  15.456   7.475  14.370 -0.2989 -0.0556 -0.0041
28380W        W43511   6.361   5.570   4.523 -0.0511  0.4346  0.1231
28381W        W43512   8.096  17.505   2.230  0.1178 -0.1159  0.2467
28382W        W43513  14.253  11.622   4.984 -0.1837 -0.0539  0.0066
28383W        W43514   1.313   3.123   1.078 -0.0941 -0.1204  0.1602
28384W        W43515   8.800   2.011  11.550 -0.2034 -0.0183  0.2233
28385W        W43516  14.430   7.891   4.200  0.0054 -0.2159 -0.0257
28386W        W43517   1.133  14.935   1.945 -0.0428  0.4686  0.3557
28387W        W43518   4.764   5.797  15.476  0.2393  0.0750 -0.3275
28388W        W43519  16.873   9.249   5.260 -0.2445  0.0654 -0.2199
28389W        W43520  12.376  16.043   9.913 -0.1930  0.1262 -0.0877
28390W        W43521   1.772   5.297   2.034 -0.2816  0.0395  0.0716
28391W        W43522   3.086   2.636  15.476  0.0979  0.1559 -0.0525
28392W        W43523  12.352  12.699  15.120 -0.1812  0.1621  0.3279
28393W        W43524   3.874  15.360  14.480 -0.0324  0.0511 -0.1368
28394W        W43525  16.144  15.645   5.556  0.0555  0.0868  0.1036
28395W        W43526   0.582  18.194   2.428  0.2123 -0.3179 -0.2611
28396W        W43527   9.166   3.084  13.450 -0.1192  0.0503  0.0913
28397W        W43528   3.949   3.140  15.387  0.2395 -0.1825 -0.2030
28398W        W43529  14.077  13.258  14.400  0.0065  0.1031 -0.1346
28399W        W43530   4.464  10.143  14.547  0.2241 -0.1175  0.1207
28400W        W43531   1.309  12.139   0.241 -0.2529  0.1745  0.1374
28401W        W43532   0.108   9.266   3.021  0.0161  0.0776  0.0604
28402W        W43533   0.765   8.466  14.624 -0.1625  0.0454  0.0841
28403W        W43534   1.333  17.712  11.067 -0.1477 -0.1452  0.1866
28404W        W43535  18.393   9.989  15.465  0.1676 -0.1249  0.2055
28405W        W43536   1.777  16.540   4.709 -0.2510  0.0546  0.1202
28406W        W43537  11.262   8.081   2.455 -0.1495  0.4079  0.1347
28407W        W43538  11.573   5.815   1.427 -0.3031 -0.1055 -0.2130
28408W        W43539   3.041  10.173   4.351  0.3897  0.0297 -0.0145
28409W        W43540   8.374   8.382   2.458 -0.0331 -0.1135  0.2382
28410W        W43541  10.750   5.408   2.334  0.3294  0.0515 -0.1418
28411W        W43542   4.443   2.876  11.366  0.2801 -0.0479  0.2442
28412W        W43543  10.645   8.700  13.984  0.1953  0.0086  0.6031
28413W        W43544   2.440   4.020   4.640  0.1713 -0.1220  0.0925
28414W        W43545   1.091   2.839   2.875 -0.2866 -0.1256 -0.2338
28415W        W43546   0.593   5.700  10.422 -0.0824 -0.0257  0.3813
28416W        W43547  11.406  14.707   2.916 -0.4712  0.0518 -0.0846
28417W        W43548   0.361   0.789  13.031  0.0138  0.0838 -0.0833
28418W        W43549  13.952   7.339  14.828  0.0256  0.1970  0.1540
28419W        W43550   0.070  10.021  15.713  0.0091 -0.1332 -0.4094
28420W        W43551  10.763  16.233   4.891  0.0794 -0.2429 -0.2206
28421W        W43552  15.976   6.719  11.145  0.1638  0.0099  0.2541
28422W        W43553   6.557  10.976  14.492 -0.0681  0.1876 -0.0455
28423W        W43554   7.617   2.809  13.481  0.1326  0.0691 -0.3213
28424W        W43555  13.871  17.434  12.436  0.3002 -0.0321 -0.1538
28425W        W43556   4.031   2.692   5.832  0.0191 -0.0550  0.1035
28426W        W43557  13.758  17.107   5.181 -0.0512  0.1413  0.2132
28427W        W43558   2.555  14.515   5.278  0.1192 -0.1711 -0.1296
28428W        W43559   7.043   1.793   4.760  0.1163  0.3760  0.2246
28429W        W43560   7.985   3.922   2.692 -0.1637  0.0354 -0.2859
28430W        W43561  17.102  12.330  14.108 -0.0854  0.1887  0.0053
28431W        W43562  18.238   3.582   5.612 -0.3364 -0.0660  0.0519
28432W        W43563   2.102  13.300  13.756  0.0893 -0.5327 -0.2527
28433W        W43564  13.950  11.505   5.673 -0.1009 -0.1821  0.0205
28434W        W43565  11.862  14.990   2.311  0.0011  0.1332  0.1897
28435W        W43566  15.548  14.556  14.732 -0.1299  0.0761 -0.2181
28436W        W43567  11.918  15.279  14.038  0.1834 -0.2553 -0.0360
28437W        W43568   6.876  14.566  11.593  0.0470 -0.0232  0.2560
28438W        W43569   2.064  16.645   1.595  0.2753 -0.0927 -0.0242
28439W        W43570   1.572  15.629  14.313  0.2378  0.0076  0.0156
28440W        W43571   8.645  11.375   5.176  0.2052  0.0511  0.0667
28441W        W43572   5.943   5.360  13.817 -0.3213  0.0734 -0.1072
28442W        W43573   2.517   1.096   4.678 -0.0145  0.4049 -0.1146
28443W        W43574  15.091   4.633   1.157 -0.2443 -0.2702 -0.0564
28444W        W43575   2.250  10.253   2.104 -0.1091 -0.6895 -0.1033
28445W        W43576   2.415   1.412  12.472  0.1850  0.2168  0.1528
28446W        W43577   9.069  18.387  11.676  0.1088  0.0133 -0.1614
28447W        W43578  10.582  17.765  13.384 -0.2157 -0.1345 -0.1592
28448W        W43579   6.770  17.954  15.559  0.1470 -0.1169 -0.2643
28449W        W43580  17.747   1.369  14.240 -0.0370  0.0807 -0.0547
28450W        W43581  17.668  12.148  15.395 -0.3597  0.1324 -0.0033
28451W        W43582  14.792   5.762   3.028 -0.0942 -0.2720  0.0930
28452W        W43583  15.165  16.531  14.166  0.0301  0.2160 -0.3482
28453W        W43584  11.546  11.595  12.356 -0.0719  0.0829 -0.1786
28454W        W43585  14.132   4.903  13.502  0.0957 -0.0522 -0.0996
28455W        W43586   9.495   1.129  13.622 -0.0416  0.2901 -0.0701
28456W        W43587  17.026  16.208  12.312  0.0273 -0.3176 -0.1261
28457W        W43588  14.978   2.487   3.210 -0.0564 -0.0211 -0.0565
28458W        W43589  18.454  11.205   4.957 -0.1047 -0.2826 -0.3499
28459W        W43590  12.267  11.867   3.736 -0.0243  0.6577 -0.1916
28460W        W43591   4.417   3.765   0.084  0.0336  0.0705 -0.0174
28461W        W43592   3.136  14.500  14.567 -0.4200  0.2950  0.1550
28462W        W43593   1.032   7.679  14.187  0.2637  0.2545 -0.0952
28463W        W43594   7.100  16.155   3.107 -0.0201 -0.1000 -0.1532
28464W        W43595  11.114  11.464   2.123 -0.3321 -0.2594  0.1097
28465W        W43596  17.119   8.061   1.644 -0.1161  0.1753 -0.0515
28466W        W43597   6.662   6.733  10.994 -0.2941 -0.2168  0.0006
28467W        W43598   3.245   7.246   1.476  0.1748 -0.1785 -0.1011
28468W        W43599  11.791   4.678  12.590  0.3528  0.1963 -0.0908
28469W        W43600   9.440   0.722   4.720 -0.2565 -0.0426 -0.0816
28470W        W43601  15.418  11.070  11.322  0.5198  0.4126  0.0782
28471W        W43602   3.513  17.562  14.757  0.3012 -0.2603  0.1666
28472W        W43603   9.551   3.619  12.718  0.0228  0.0225 -0.1095
28473W        W43604   0.649   3.189  12.500  0.0455 -0.0256 -0.0140
28474W        W43605   5.937   3.691   0.538  0.0328 -0.0907 -0.2431
28475W        W43606   8.116  17.392  12.782 -0.0388  0.1400 -0.2601
28476W        W43607   9.303   8.942  12.888 -0.2783  0.1770 -0.1067
28477W        W43608   5.552  16.714  11.704 -0.1099  0.1430 -0.1573
28478W        W43609   8.065  14.425   2.543 -0.0842 -0.0828  0.1132
28479W        W43610   6.927   5.713  15.263  0.2076  0.0714  0.1518
28480W        W43611   1.276   7.640   3.170 -0.0232  0.0746 -0.2328
28481W        W43612   6.743  15.823  10.013  0.0089  0.0010 -0.0921
28482W        W43613  12.811  10.922   1.410  0.0583  0.1478  0.1791
28483W        W43614   7.742   5.504  12.245 -0.0170  0.2847  0.0448
28484W        W43615  13.318  16.017   2.691 -0.1705  0.1081  0.4423
28485W        W43616   0.428  16.673   3.838  0.1558  0.0325 -0.1733
28486W        W43617   7.919   0.691   4.417  0.0520  0.0467  0.2668
28487W        W43618  12.910   5.421   4.656 -0.1609 -0.0243  0.0136
28488W        W43619  10.868  16.087   3.377 -0.0560 -0.1275  0.1135
28489W        W43620  16.850   6.077   4.894 -0.2063  0.2850 -0.2577
28490W        W43621   3.375   3.141  12.074  0.2046 -0.2519 -0.0132
28491W        W43622  11.066   1.551  11.090  0.1510 -0.0764  0.0096
28492W        W43623   7.845   6.087   0.752 -0.0000 -0.2238 -0.1944
28493W        W43624  13.981   7.143   2.068  0.2018  0.0140  0.1741
28494W        W43625   1.477   0.699   9.880  0.2196 -0.1872 -0.0244
28495W        W43626   0.467  15.162  11.674  0.0366  0.2284 -0.0899
28496W        W43627  14.643   5.612  15.446 -0.2358  0.0350  0.0216
28497W        W43628  10.260  10.932  12.941  0.1062  0.0350  0.0868
28498W        W43629   2.340   4.513   4.498 -0.1086  0.3129  0.1628
28499W        W43630  12.247   7.311   4.629 -0.1409  0.2980  0.0354
28500W        W43631   0.977  14.672  15.635  0.2368  0.1062  0.0856
28501W        W43632  10.414   8.915   5.084 -0.0364  0.1799  0.2421
28502W        W43633   9.587   5.194  13.929  0.4641 -0.2857 -0.1005
28503W        W43634   5.024   9.608   1.142 -0.3138  0.1786 -0.0100
28504W        W43635   4.477   4.791  13.164  0.1219 -0.3145 -0.2258
28505W        W43636  15.497   2.428  13.710 -0.0194  0.0949  0.0935
28506W        W43637   7.986  14.479  15.030  0.0750 -0.0438  0.2192
28507W        W43638   8.586  15.122   2.067 -0.2867 -0.6299 -0.3266
28508W        W43639  18.633   8.366   2.742 -0.1179 -0.1766 -0.0668
28509W        W43640  10.083   6.140  12.025 -0.2012 -0.2531  0.4670
28510W        W43641  13.570  14.754   3.599 -0.1755  0.3269  0.1336
28511W        W43642  17.083  14.671  13.401  0.0628  0.2657 -0.1464
28512W        W43643  17.673  14.075  14.982  0.0598  0.1318 -0.1327
28513W        W43644  18.051   2.166   2.628 -0.1291 -0.3928  0.0036
28514W        W43645   6.313   4.541   0.100  0.0128 -0.0131  0.0190
28515W        W43646   9.812   3.331  15.340 -0.3556  0.3123  0.1054
28516W        W43647  16.827  10.867   2.311  0.1992 -0.1076  0.1562
28517W        W43648  14.134  17.296   5.462  0.1057 -0.1795 -0.0372
28518W        W43649   8.685   6.251  14.467  0.2993  0.0578 -0.2657
28519W        W43650  14.146   4.897   0.865 -0.0964 -0.2120  0.3373
28520W        W43651   9.127  13.124   1.160  0.1522 -0.2154 -0.5035
28521W        W43652   0.952  11.879   1.025 -0.0475  0.0030  0.2590
28522W        W43653   3.256  10.172  13.799  0.1595  0.2946  0.0359
28523W        W43654  17.960  11.021  11.425  0.3362 -0.0671 -0.1061
28524W        W43655  16.495  17.462   6.614  0.2752 -0.1355 -0.1018
28525W        W43656  10.439   9.081   3.106 -0.1998 -0.2437 -0.2840
28526W        W43657   3.891  18.446  13.969 -0.0468 -0.1785 -0.0550
28527W        W43658  16.974   0.772  10.981  0.1098  0.0135  0.3226
28528W        W43659   0.608  18.714  15.740  0.2184 -0.2496 -0.2600
28529W        W43660   4.641   1.096   5.233 -0.1077 -0.2837 -0.2017
28530W        W43661  17.623  12.146  14.144 -0.0019  0.2927  0.2062
28531W        W43662  16.474   9.267  14.561  0.0112  0.1062  0.1264
28532W        W43663   2.724   7.344   0.119  0.0027  0.3201  0.3053
28533W        W43664  18.629   2.436  13.790 -0.2824  0.3306 -0.3048
28534W        W43665  12.116  10.062  13.780 -0.1104 -0.1069 -0.0196
28535W        W43666   5.160   2.787   1.267 -0.3776  0.1447 -0.2633
28536W        W43667   0.727   4.209  12.206  0.0104 -0.1256  0.3454
28537W        W43668  14.346   0.287   2.406 -0.0459  0.0719 -0.0701
28538W        W43669  17.007   4.128  11.662  0.1457  0.0728 -0.2104
28539W        W43670  12.042   2.749  14.710  0.3075 -0.1351 -0.1814
28540W        W43671  16.704  11.295   2.638 -0.0966  0.1036 -0.4291
28541W        W43672  14.368  16.100  15.631  0.1104 -0.0698 -0.3635
28542W        W43673   1.359  17.068   4.675  0.3696  0.1944 -0.0040
28543W        W43674  14.238   4.342   1.571 -0.1058 -0.1651 -0.0620
28544W        W43675  10.955   6.467  13.245 -0.1889  0.0349  0.2257
28545W        W43676  12.043   8.055   4.100  0.2181  0.0112  0.1625
28546W        W43677   5.021  12.601  14.355 -0.1981  0.1597  0.2283
28547W        W43678   5.118   9.664   3.022  0.0346  0.1503 -0.0280
28548W        W43679  13.727  18.428   3.925  0.0239 -0.0465  0.0972
28549W        W43680   4.059   0.508  10.518  0.0032  0.1788 -0.0649
28550W        W43681   7.802  13.555   5.505 -0.0663  0.0550 -0.0939
28551W        W43682   3.043   8.874   2.582 -0.0797  0.0765 -0.2962
28552W        W43683  13.532   0.770  14.617 -0.0494 -0.1111  0.3460
28553W        W43684  18.450  13.991  11.497 -0.1873  0.1734 -0.1928
28554W        W43685  13.295   5.935   1.925  0.2573  0.1206  0.0069
28555W        W43686   9.585   3.001  14.988 -0.0313 -0.1479  0.1797
28556W        W43687  12.451  10.033   2.402  0.1739  0.1307 -0.0569
28557W        W43688  12.304  10.916  13.726 -0.1798 -0.0067 -0.1151
28558W        W43689   1.569  14.667  15.353 -0.1380  0.1701 -0.3346
28559W        W43690   3.850   2.475  10.780  0.1567  0.3990  0.3401
28560W        W43691   6.555  15.588  11.847  0.0127  0.1758 -0.1234
28561W        W43692   1.141   2.022  10.171  0.0281 -0.0146  0.2568
28562W        W43693  16.733   8.349  14.239  0.3208 -0.1692 -0.1596
28563W        W43694   1.915  10.139   3.395 -0.0007  0.2019  0.1214
28564W        W43695  18.419  14.100  14.606  0.2528 -0.2690 -0.1920
28565W        W43696   7.879   7.671   2.280 -0.0582 -0.2642  0.0188
28566W        W43697  18.477   7.859   5.144  0.0027  0.1669 -0.1418
28567W        W43698  11.720  14.955   4.342 -0.1677  0.2068  0.0280
28568W        W43699   4.333   0.841   0.428 -0.2023 -0.2328 -0.0486
28569W        W43700   0.500   5.959  14.274  0.0878 -0.2347 -0.1534
28570W        W43701   6.421  17.818  11.000 -0.0643 -0.1194 -0.0279
28571W        W43702  14.447   4.414  13.067  0.2138  0.3924 -0.1403
28572W        W43703  11.934   5.365   0.978  0.0754  0.1656  0.0725
28573W        W43704   9.301  11.265  12.522  0.0619 -0.0103  0.1111
28574W        W43705  14.681   4.817  13.740 -0.0573  0.0515 -0.0522
28575W        W43706   4.349   0.625  14.359  0.2177 -0.1156 -0.0745
28576W        W43707  17.735   2.359  14.092  0.4194  0.0232 -0.3778
28577W        W43708   1.972  14.828   0.072  0.0061 -0.4515  0.1774
28578W        W43709  16.208  16.885   5.415  0.1244  0.3004  0.0598
28579W        W43710   3.414  10.992   4.639 -0.0853 -0.1885 -0.0024
28580W        W43711  15.877  13.515   3.897 -0.2567 -0.5477 -0.1540
28581W        W43712  14.835   9.861  14.552 -0.2728 -0.1702 -0.2373
28582W        W43713  16.259   7.623  10.368 -0.3555  0.1853  0.1342
28583W        W43714  17.027  16.870  10.454 -0.1491 -0.0163  0.1932
28584W        W43715   9.188   6.675  11.210 -0.1105  0.2437  0.0820
28585W        W43716   5.510   6.739   0.437 -0.3894 -0.2678  0.3907
28586W        W43717  16.827  16.238   2.497  0.0104 -0.1076 -0.1892
28587W        W43718  15.604   4.126  11.741 -0.3534 -0.0906  0.0488
28588W        W43719   3.257   5.569   0.719  0.0031  0.1450  0.1559
28589W        W43720   8.665  10.187   4.753  0.1551 -0.5450  0.0978
28590W        W43721  17.889   8.333   2.047  0.0379 -0.2516  0.2450
28591W        W43722   6.128  17.773   2.639 -0.0128  0.0548  0.0184
28592W        W43723   0.174  11.051  13.359 -0.2640 -0.1267  0.0792
28593W        W43724   1.393   2.836   0.356  0.0127  0.5793  0.0108
28594W        W43725   0.998   7.633  15.089 -0.0506  0.1631 -0.1621
28595W        W43726   6.584   0.297  11.678  0.0062 -0.1266  0.0002
28596W        W43727   2.177   6.164   4.189 -0.2216  0.0061  0.1040
28597W        W43728   2.858   4.045  14.844 -0.0841 -0.2468 -0.3384
28598W        W43729  12.973   9.652  15.558 -0.1948 -0.2162  0.3403
28599W        W43730  14.886   6.494   1.155  0.0435 -0.1090 -0.0973
28600W        W43731  16.009  18.012   5.260  0.1699  0.0680 -0.0141
28601W        W43732   1.808   9.941   1.386  0.0260  0.0384 -0.0801
28602W        W43733  12.023   7.203  15.638 -0.1016  0.0528 -0.1420
28603W        W43734   0.336   7.422  11.121 -0.0140  0.0953 -0.1303
28604W        W43735   1.132   3.098  14.129 -0.1338  0.1818  0.1436
28605W        W43736   8.987   1.731   2.250 -0.3597  0.0734 -0.4053
28606W        W43737  18.342   2.287   4.218 -0.2118 -0.1307  0.3127
28607W        W43738   8.269  17.234   0.436 -0.0006 -0.1406  0.2216
28608W        W43739  10.290   9.983   3.285 -0.2190  0.2811  0.2648
28609W        W43740   1.022  11.371   0.970  0.0437 -0.1416 -0.1914
28610W        W43741   9.522   4.091  10.203 -0.1043 -0.3310 -0.0343
28611W        W43742  10.703  17.627  14.431  0.1687  0.1696  0.1283
28612W        W43743   9.474  17.803   5.464 -0.0676 -0.1199  0.2103
28613W        W43744   9.326  18.495  11.260  0.2807 -0.1660  0.0982
28614W        W43745   6.609   4.208   2.980 -0.1430  0.2124 -0.3521
28615W        W43746   7.914   8.774  13.438  0.2605  0.1925 -0.3084
28616W        W43747   7.292   7.025  14.210  0.3108 -0.2722  0.3880
28617W        W43748   9.057   4.122   0.770 -0.0637  0.0716 -0.0526
28618W        W43749  13.666  13.562  13.260 -0.0120  0.2288 -0.0974
28619W        W43750  15.283   9.977   3.540  0.1530 -0.1708 -0.1894
28620W        W43751   4.883  13.059  10.882 -0.0633  0.0208  0.1427
28621W        W43752   7.659  10.392  11.172  0.1948 -0.0382  0.1898
28622W        W43753   7.342  10.869  11.198 -0.1402 -0.0748  0.0856
28623W        W43754   2.763   3.774   0.349  0.0417  0.2527 -0.1945
28624W        W43755   7.696   1.854   3.872  0.2240 -0.0170 -0.0538
28625W        W43756   2.426   7.227  15.006  0.1248 -0.0710  0.0179
28626W        W43757   9.725  18.142  10.551  0.2287  0.2234  0.2727
28627W        W43758  18.072  14.977  14.034  0.1271  0.0126 -0.0024
28628W        W43759  15.727   1.238   0.384  0.0650  0.1470  0.4364
28629W        W43760  10.128   7.723   3.858 -0.2790  0.1395 -0.1470
28630W        W43761   5.567  15.063  10.797  0.0856  0.3633 -0.2489
28631W        W43762   2.386   0.288  10.437  0.2456  0.0270  0.2058
28632W        W43763   1.587  13.412   2.662  0.0973  0.0605  0.0640
28633W        W43764  11.690   1.890  11.624  0.0397  0.0975  0.2000
28634W        W43765   1.649   2.754   4.660  0.1743 -0.0225  0.0773
28635W        W43766  14.150  14.732   4.041 -0.0503  0.0706 -0.0799
28636W        W43767  15.158  15.395   3.378 -0.0007  0.1004  0.0142
28637W        W43768  13.023  11.693  15.727 -0.3119  0.0994 -0.2441
28638W        W43769  13.941   4.544   5.165 -0.3598  0.2384  0.3253
28639W        W43770   0.178  13.487  12.055  0.0739  0.2064  0.1156
28640W        W43771  15.029   0.409   2.590 -0.5741  0.0095  0.2566
28641W        W43772  15.900  14.153   1.252 -0.5558  0.0243 -0.0618
28642W        W43773   2.905  16.589  10.138 -0.3823  0.3169  0.3796
28643W        W43774   0.893  14.008   5.213  0.2033 -0.4735  0.1793
28644W        W43775   9.328  17.768   1.861 -0.3203 -0.3351 -0.0109
28645W        W43776  12.241   9.252   0.408  0.0294 -0.0730  0.0465
28646W        W43777  14.851   3.564   1.062  0.2612 -0.2030 -0.1516
28647W        W43778   9.458  12.693  14.421  0.3913  0.2505  0.3689
28648W        W43779  14.718  12.390  12.831  0.0004  0.0953  0.0375
28649W        W43780  12.036   6.433   0.732  0.0937 -0.1073  0.0238
28650W        W43781  15.733  11.594   1.736 -0.2868 -0.0360  0.0768
28651W        W43782   6.664  13.085   2.846  0.0412  0.0148 -0.0007
28652W        W43783   2.219   4.258  14.401  0.2324  0.0203 -0.0212
28653W        W43784  15.529  10.661   0.891 -0.1532  0.2420  0.2536
28654W        W43785   7.342   9.404   2.601  0.1998  0.2482 -0.0820
28655W        W43786   4.633   9.513  14.462  0.0531 -0.2806  0.0115
28656W        W43787   5.958  11.552   2.447 -0.0989 -0.4029 -0.1759
28657W        W43788  11.453   5.073  11.397  0.4161  0.2617  0.4628
28658W        W43789   2.812  11.176  13.101 -0.2336 -0.4095  0.2950
28659W        W43790   0.203  11.478   2.682 -0.0915 -0.1000 -0.0150
28660W        W43791  13.605   4.622  15.515  0.1714 -0.2277  0.0841
28661W        W43792   3.007  11.584  12.862  0.1336 -0.2507 -0.0168
28662W        W43793   0.311  16.803   1.904 -0.2309 -0.2671 -0.1334
28663W        W43794   9.296   8.749  10.623 -0.0596 -0.1653 -0.3180
28664W        W43795  10.548   5.313  10.826 -0.1463  0.1340  0.0679
28665W        W43796  16.735   8.354  12.177 -0.3239  0.0775 -0.0949
28666W        W43797  10.982  14.033   0.172 -0.4391  0.1900  0.1907
28667W        W43798  11.483   9.359   0.108  0.0333  0.1370 -0.0357
28668W        W43799   8.906  11.588   0.581  0.0160 -0.2420 -0.0263
28669W        W43800  11.278  16.696  14.182  0.2635 -0.5606 -0.0698
28670W        W43801  11.010  11.516  11.768  0.1947 -0.0205  0.0947
28671W        W43802  12.842   9.944  14.478  0.0423 -0.1264  0.4625
28672W        W43803  18.137   9.710   5.661  0.2615  0.1582 -0.1830
28673W        W43804  15.906  13.152  15.564  0.1115 -0.1000  0.0582
28674W        W43805   5.885  11.671   4.124 -0.3605  0.0372 -0.1162
28675W        W43806   5.469   8.344  13.875 -0.0306 -0.2191  0.4155
28676W        W43807  13.970   4.653  13.058  0.1693  0.1690  0.0229
28677W        W43808  17.969   4.477  14.119 -0.1040  0.2365 -0.1815
28678W        W43809   0.695  14.732  11.092  0.0074  0.3583  0.4371
28679W        W43810   1.933  10.850  15.176  0.1101 -0.0493 -0.0805
28680W        W43811   4.254   0.592   6.037  0.5796  0.3003  0.0768
28681W        W43812  12.610  11.877  14.549  0.1924 -0.1219  0.3656
28682W        W43813   9.849   0.978  11.990  0.0984  0.0513  0.3135
28683W        W43814   9.623  13.970  12.874  0.1155 -0.0645 -0.3075
28684W        W43815  16.609   0.102   0.725  0.0783  0.0418  0.0454
28685W        W43816  11.199  14.541  15.202 -0.0425 -0.2173  0.4015
28686W        W43817  13.455   7.119  13.137 -0.0536  0.0324  0.0556
28687W        W43818   1.463  17.445   3.106 -0.0871 -0.3153 -0.1391
28688W        W43819   4.824  13.059  12.456  0.2120 -0.0712  0.2684
28689W        W43820   6.588   2.246  12.532  0.1601  0.0582 -0.3861
28690W        W43821  14.052  10.051  10.067 -0.0140 -0.1431 -0.1179
28691W        W43822   3.252  15.938   3.878  0.3729 -0.0739 -0.0514
28692W        W43823  15.119  16.112  10.564  0.0485  0.0503 -0.1609
28693W        W43824  14.352   8.070  12.428  0.2373  0.0258  0.1186
28694W        W43825  17.787  16.427  13.617 -0.0452  0.0200 -0.0959
28695W        W43826   1.463   3.600   3.853  0.0086  0.1868  0.1193
28696W        W43827   2.476   9.766  10.634 -0.1606 -0.1652 -0.2187
28697W        W43828   6.458  11.026  11.670  0.1692 -0.0102  0.0604
28698W        W43829   1.159  11.591  15.152  0.0543  0.2204  0.0364
28699W        W43830  13.165  17.201  14.102  0.1588 -0.1398  0.3592
28700W        W43831  13.425  18.430  14.983  0.1182  0.1902  0.2715
28701W        W43832  13.760   2.371  15.268 -0.0166  0.0305 -0.2407
28702W        W43833   5.337  14.608  14.396 -0.0183 -0.1361  0.2035
28703W        W43834   2.185   9.685   4.240  0.0104 -0.0416  0.0085
28704W        W43835   5.357  11.797  10.671 -0.1007  0.0789 -0.0782
28705W        W43836  14.781   5.723  13.952 -0.1209 -0.0430  0.3217
28706W        W43837  15.589  14.985  15.015  0.1281  0.1165  0.0340
28707W        W43838  18.332   1.986  11.866 -0.0155  0.2136  0.3198
28708W        W43839  13.193   5.008  13.565 -0.4352  0.0392 -0.2383
28709W        W43840  15.042   0.822  15.620 -0.2660 -0.2131 -0.0026
28710W        W43841  13.971  15.532   3.117 -0.0033 -0.0460  0.0333
28711W        W43842  12.497   9.741  15.410 -0.3807  0.0655 -0.1110
28712W        W43843   7.192  10.152  10.465  0.2275 -0.2418 -0.2673
28713W        W43844   2.222  12.370  14.895 -0.1066  0.2992  0.3311
28714W        W43845   5.498   9.753   4.944 -0.1074 -0.2563 -0.2767
28715W        W43846  18.109  15.454   1.964 -0.1658 -0.1368  0.2154
28716W        W43847  12.740   5.840  13.838 -0.2432 -0.0006  0.0313
28717W        W43848  10.842   3.030   4.082  0.2285  0.2207  0.0077
28718W        W43849   6.213  11.034   3.871  0.2484  0.0189  0.3675
28719W        W43850   6.790   0.000  14.824  0.0712  0.1364  0.0825
28720W        W43851   2.950   6.272  11.997  0.1281 -0.1491  0.0789
28721W        W43852   5.167  10.583   5.258  0.0302  0.5015 -0.1649
28722W        W43853   8.388  18.107   9.921  0.0403 -0.0693 -0.3149
28723W        W43854  17.123   0.572  12.096 -0.0470 -0.2173 -0.4430
28724W        W43855   7.270   0.099  13.919  0.2588 -0.0019  0.1290
28725W        W43856   3.777   6.337   3.469  0.1411  0.0341  0.1164
28726W        W43857   5.853  10.453  15.598  0.0307 -0.2546 -0.1192
28727W        W43858  17.107   3.775   0.139  0.6217  0.1308 -0.0414
28728W        W43859  15.686   5.477   0.705  0.1807 -0.0567  0.1572
28729W        W43860   3.228   0.021  12.338  0.0096 -0.4649  0.0127
28730W        W43861   5.590  11.999   0.905 -0.1656 -0.4100  0.0898
28731W        W43862  12.367   4.277   5.098 -0.5306  0.0605 -0.0378
28732W        W43863  13.104  10.663   2.050 -0.0261  0.2746  0.0101
28733W        W43864  18.731  18.101  10.925  0.0473 -0.1242  0.2469
28734W        W43865   5.940  10.266   4.922 -0.0203  0.1079 -0.1308
28735W        W43866   2.011   8.600   1.824 -0.3211  0.1254  0.0231
28736W        W43867  12.120  14.555   2.283 -0.4841  0.2836  0.0764
28737W        W43868   0.365  16.931  11.850 -0.3232 -0.1228  0.0492
28738W        W43869  17.673   4.263  12.741 -0.0284 -0.0014  0.0978
28739W        W43870   9.369   8.223   4.566  0.1025 -0.3074  0.0280
28740W        W43871  12.553   0.965   0.996  0.0732 -0.0283 -0.0477
28741W        W43872   8.993  12.059   1.783 -0.1599  0.3085  0.3315
28742W        W43873   0.615  17.288   1.418 -0.0796 -0.3294 -0.2281
28743W        W43874  16.415  14.722  11.870 -0.0361  0.1796 -0.1249
28744W        W43875   6.789   8.275   2.191  0.1081  0.1590  0.2568
28745W        W43876   7.013  15.906   4.194 -0.3001 -0.1346  0.0060
28746W        W43877   1.177  13.240  15.618 -0.1294  0.1050  0.3361
28747W        W43878  11.181   4.164   2.815 -0.0533  0.0907  0.0886
28748W        W43879   8.946  15.718   4.710 -0.0173  0.1374 -0.1948
28749W        W43880   5.271   9.958  12.136  0.0539 -0.1631  0.0326
28750W        W43881   3.402   1.353   4.101 -0.1695  0.1744 -0.0083
28751W        W43882   4.280   5.251  14.922 -0.0473  0.2003 -0.2057
28752W        W43883   3.992  13.182  12.531 -0.0442  0.1199  0.0004
28753W        W43884   2.605  18.739  11.138  0.0971 -0.0729  0.1026
28754W        W43885   9.324   3.720   2.576 -0.1837 -0.2599 -0.0835
28755W        W43886   3.527   7.445   0.869  0.3115 -0.3590 -0.1429
28756W        W43887   8.890  11.643  15.060 -0.3339  0.0176 -0.3533
28757W        W43888  13.243  14.362   4.509 -0.0251 -0.2955 -0.0213
28758W        W43889   7.682   9.570  15.126  0.4126 -0.1491 -0.0262
28759W        W43890   4.918  11.065  10.915 -0.1461  0.1087  0.3220
28760W        W43891   3.389  11.026  11.681 -0.0341  0.0402 -0.0279
28761W        W43892  17.832  11.210   1.921  0.3274  0.3412 -0.0726
28762W        W43893   2.303  10.627  13.972 -0.2686  0.1731 -0.2456
28763W        W43894  11.629  14.133   5.427 -0.1635  0.1788 -0.2763
28764W        W43895  18.058   3.673  13.624  0.0913  0.0470 -0.0891
28765W        W43896   9.798  11.681  12.469  0.2581 -0.2152  0.1224
28766W        W43897   0.463   1.370  14.103 -0.1517  0.1562 -0.1164
28767W        W43898   1.371  12.870   2.573  0.0881 -0.2319  0.1719
28768W        W43899   2.420   9.069   2.555  0.1711 -0.0924 -0.1114
28769W        W43900   0.985   2.577   0.532 -0.4762 -0.1271  0.2807
28770W        W43901   0.060  12.877  14.045 -0.0049 -0.5147  0.1206
28771W        W43902   6.279   6.188   2.099 -0.0966  0.1674 -0.0587
28772W        W43903  15.176   7.331  12.755  0.0303  0.1150  0.0109
28773W        W43904  10.027  16.237  12.361 -0.0740 -0.0023 -0.0510
28774W        W43905   0.018   4.949  10.348 -0.0187 -0.1147 -0.1318
28775W        W43906  15.838  17.636   1.174  0.2003  0.0032 -0.0589
28776W        W43907   3.651  16.475   4.018 -0.3134 -0.0873  0.0171
28777W        W43908  12.394  18.631   4.339  0.0557 -0.1211 -0.0475
28778W        W43909  17.713   8.398   0.287 -0.1211 -0.0632 -0.0605
28779W        W43910   0.252   0.995   4.376 -0.2721 -0.2411 -0.2147
28780W        W43911   0.029  13.747   5.190 -0.2176  0.0494 -0.2597
28781W        W43912   6.238   4.813  14.990 -0.2511 -0.0811  0.1904
28782W        W43913  15.470   0.514  10.865 -0.0585 -0.1734  0.2171
28783W        W43914  11.154  16.522   1.410 -0.3137 -0.1449 -0.0391
28784W        W43915   9.675  14.976  12.933 -0.0109 -0.1640 -0.4276
28785W        W43916  10.498   9.878   3.950 -0.2013 -0.0479  0.0687
28786W        W43917   6.644  14.910  13.734 -0.0493  0.3196  0.3565
28787W        W43918   7.973   1.914   3.356  0.0764 -0.0871 -0.0451
28788W        W43919   7.963  11.837  13.267  0.1069  0.1094 -0.0667
28789W        W43920  10.964   6.058   2.796 -0.3052  0.0787 -0.2357
28790W        W43921  13.348   4.932   1.321  0.4312  0.0341  0.0590
28791W        W43922   6.204   7.719   4.276  0.2750 -0.0723 -0.1431
28792W        W43923   2.743  13.557  11.447 -0.2517  0.0100 -0.2028
28793W        W43924  14.384  10.493  13.263  0.2974  0.1176 -0.0135
28794W        W43925  13.539   4.841   9.930 -0.0747 -0.0715  0.2143
28795W        W43926  18.671  16.799   5.575 -0.1967  0.1849 -0.0697
28796W        W43927   4.243  10.321  13.124 -0.0287  0.1174  0.0123
28797W        W43928   0.694   6.649  10.073 -0.3322  0.3430 -0.0051
28798W        W43929   1.653  14.823  14.845  0.0075 -0.1507 -0.0572
28799W        W43930   8.020  16.897  11.930 -0.0659  0.1929  0.0275
28800W        W43931  16.160   1.496   2.278  0.0801 -0.1011 -0.2112
28801W        W43932   8.707  13.301  14.321  0.0041 -0.1304  0.1371
28802W        W43933  13.457  15.455   2.615  0.0599  0.1549  0.1934
28803W        W43934  15.819   8.529   4.386  0.0485 -0.0852 -0.5131
28804W        W43935   5.023   2.854   4.815  0.1327 -0.3061  0.0821
28805W        W43936  16.252   6.710   1.993  0.0772 -0.0065  0.0237
28806W        W43937  10.161   8.728  12.277  0.1135  0.0559 -0.3107
28807W        W43938   6.386  12.100  13.491  0.2898 -0.0864 -0.2036
28808W        W43939  12.080   3.649   0.036  0.3106  0.3022 -0.2301
28809W        W43940   1.727  12.290  13.356 -0.1635  0.2186 -0.1124
28810W        W43941  10.457  12.526   5.886 -0.2791  0.0846 -0.0186
28811W        W43942  10.842   6.473  14.649 -0.1937 -0.2932  0.4588
28812W        W43943   5.409   2.323  12.467 -0.0256  0.2145 -0.0606
28813W        W43944  15.478  12.300  13.513  0.0408  0.0540 -0.0252
28814W        W43945  13.803   8.148   0.290 -0.1159 -0.1411  0.1002
28815W        W43946  12.822   6.863   5.112  0.0836  0.2110 -0.3208
28816W        W43947   2.857   2.798   1.774 -0.1385 -0.0497 -0.3708
28817W        W43948   2.354   2.725   1.838 -0.0579 -0.1399 -0.0788
28818W        W43949  13.667   4.244  12.941 -0.0547  0.0163 -0.0582
28819W        W43950   8.007   1.160   4.503  0.3615  0.1557  0.3615
28820W        W43951   1.017  15.112  11.496  0.0685 -0.1189 -0.2326
28821W        W43952  14.630   7.786  10.862 -0.0375 -0.3479 -0.1300
28822W        W43953  10.378  17.450   2.189 -0.2050  0.0905  0.1596
28823W        W43954  12.265  10.877  11.759  0.1824 -0.1398  0.1030
28824W        W43955  15.446  14.305  13.815 -0.0105  0.0609  0.1512
28825W        W43956   0.230   3.069   0.122 -0.0802 -0.0654  0.1436
28826W        W43957  12.619  17.093  13.331  0.0647  0.2328  0.2481
28827W        W43958  17.039   7.708   0.502  0.0567  0.0803  0.0825
28828W        W43959  11.064   3.931   3.550  0.0520 -0.1144 -0.0640
28829W        W43960  18.474   9.851  12.048  0.0563  0.0581  0.3528
28830W        W43961  15.667  14.270   4.917  0.0023  0.0672 -0.1698
28831W        W43962  18.379  17.034  10.001 -0.1771 -0.1197  0.1694
28832W        W43963   3.645   6.371   0.441  0.1712  0.1744 -0.0134
28833W        W43964  10.919  11.769  15.299 -0.1608 -0.1983 -0.0014
28834W        W43965  12.284   1.669  15.289 -0.0761 -0.1305 -0.2832
28835W        W43966   0.023   4.961  13.156  0.1030  0.0567  0.1104
28836W        W43967   4.718  15.389  14.449  0.1540 -0.1097 -0.0691
28837W        W43968   9.820  10.388  11.755 -0.0048  0.2103  0.1702
28838W        W43969  10.104   1.507   3.837 -0.0326 -0.1205 -0.0501
28839W        W43970   0.510  11.095  14.716 -0.0454 -0.1861  0.4025
28840W        W43971   3.910  11.297   3.864 -0.4476 -0.1253 -0.0460
28841W        W43972  10.333  13.159   2.481  0.3043  0.2573  0.0092
28842W        W43973   8.216   4.947   0.769  0.1524 -0.0669  0.2811
28843W        W43974   2.489   6.627  11.372  0.3152 -0.0924  0.0890
28844W        W43975  12.182   8.526  14.901  0.2405 -0.0237  0.1038
28845W        W43976   3.433   5.307  14.369  0.0887 -0.1907  0.1571
28846W        W43977   2.756  11.580   1.898 -0.0616  0.0059 -0.0102
28847W        W43978   2.531  11.440  12.792 -0.0448 -0.2451  0.3965
28848W        W43979  17.080  14.035  12.957  0.1401 -0.0046 -0.1647
28849W        W43980   6.568   8.717  13.323 -0.0908  0.0917  0.3705
28850W        W43981  14.266  12.339  12.315  0.1440 -0.1657  0.2057
28851W        W43982   3.937  14.238   1.312 -0.1195  0.1436  0.1517
28852W        W43983  13.786   2.303  14.617 -0.0788 -0.0301 -0.0563
28853W        W43984   9.084  12.550  14.819  0.1029 -0.1436  0.2735
28854W        W43985   7.815   2.832  14.681  0.2596 -0.3304  0.1134
28855W        W43986   7.535  12.138  13.291 -0.2281 -0.1120 -0.1185
28856W        W43987  10.025   3.757   5.188 -0.2161  0.3821 -0.2620
28857W        W43988   4.946  16.515   9.230 -0.2371 -0.0173  0.1083
28858W        W43989   9.788  18.625   1.088  0.1661 -0.0396  0.1317
28859W        W43990  12.166   7.565   2.633  0.0251  0.5739 -0.2752
28860W        W43991   4.444  16.573  13.070 -0.0524 -0.0135  0.3918
28861W        W43992  17.376   9.108   0.477 -0.0721  0.2078  0.0113
28862W        W43993   6.952  17.555  13.612  0.1626  0.0682 -0.1075
28863W        W43994  11.756  15.343  11.182 -0.1933  0.1150 -0.1567
28864W        W43995  12.976   5.079  11.951 -0.2466 -0.1086 -0.0254
28865W        W43996   0.483   4.026   9.312 -0.0513  0.0807 -0.0259
28866W        W43997   9.696   3.468   2.082  0.2369 -0.0944  0.0509
28867W        W43998  13.165  14.232  12.443  0.0839 -0.2970 -0.2864
28868W        W43999  18.674  15.404   1.525 -0.2411  0.1457 -0.6560
28869W        W44000   5.529  18.174  10.616  0.0202  0.0819 -0.2699
28870W        W44001  11.290   3.471  10.749 -0.1054 -0.0787 -0.0130
28871W        W44002   5.961   2.727   1.591 -0.5477 -0.1287  0.0144
28872W        W44003  17.983   6.244  10.740  0.3204 -0.0482  0.0974
28873W        W44004   9.943   5.492  11.450 -0.4057  0.3019  0.0228
28874W        W44005  14.782  17.848  15.692  0.5394 -0.0155 -0.1543
28875W        W44006   4.789   5.227   0.289 -0.0008  0.1257 -0.1372
28876W        W44007   8.704   1.011   5.342 -0.1362  0.3524 -0.0616
28877W        W44008   0.357   9.146  15.334 -0.0913  0.1747  0.1325
28878W        W44009  11.973   0.673  11.095  0.3274  0.2468  0.0293
28879W        W44010  12.724  15.784  12.534  0.1544  0.3237 -0.1638
28880W        W44011   9.205  13.556  14.944 -0.0385  0.0238 -0.3594
28881W        W44012   2.983  15.251  14.426  0.0020  0.0844 -0.0992
28882W        W44013   5.840   8.350   4.420 -0.1905 -0.2325 -0.1932
28883W        W44014  10.340   4.449   0.652  0.0685  0.0734 -0.1334
28884W        W44015  13.973  17.746   3.444  0.4653 -0.3415  0.4339
28885W        W44016  14.554  14.948  11.795 -0.2435  0.1531 -0.0655
28886W        W44017   5.316   1.888  12.763 -0.1806  0.0665  0.3520
28887W        W44018  13.372   1.770   2.159 -0.0745 -0.0851  0.1002
28888W        W44019  12.518  18.572  12.282 -0.0579  0.0272 -0.3513
28889W        W44020  18.737  18.355  14.957  0.1140  0.1094  0.0937
28890W        W44021   2.009   0.869   3.961 -0.0219  0.0834  0.0668
28891W        W44022   5.815  13.017   0.592 -0.1402 -0.1496  0.0133
28892W        W44023   0.513   3.666  14.749  0.0135  0.2891 -0.0364
28893W        W44024   1.494   8.552  13.334 -0.0303  0.1005 -0.3298
28894W        W44025   8.407  11.635   5.988 -0.2687  0.2362 -0.3240
28895W        W44026  18.444  14.114   2.931 -0.1527 -0.1469  0.0500
28896W        W44027   1.494   0.549   2.687  0.0850 -0.1212  0.2422
28897W        W44028  14.165   4.794   0.058  0.2280  0.1098  0.3972
28898W        W44029   4.404  10.307  12.547 -0.2555  0.1903 -0.0142
28899W        W44030   6.681  13.100  11.555  0.0724  0.0848  0.1876
28900W        W44031  13.215  18.032  11.711 -0.5604 -0.1388  0.1166
28901W        W44032   6.366   1.757  15.610  0.1186  0.1748  0.2891
28902W        W44033   8.273  13.209  14.699  0.2427 -0.0814 -0.2767
28903W        W44034   6.915  15.841   1.887  0.5545  0.2876  0.0399
28904W        W44035  18.459  14.883  13.766 -0.2651 -0.0471  0.1821
28905W        W44036   1.246   7.990   3.579  0.1601  0.5897  0.0416
28906W        W44037   0.985  15.889   1.156  0.1828 -0.2787  0.0114
28907W        W44038  17.049   0.456  11.324  0.0054 -0.0568 -0.4901
28908W        W44039   1.529  14.054  14.137  0.1533  0.2527 -0.0354
28909W        W44040  11.982  10.083   3.847 -0.1045  0.0380 -0.0527
28910W        W44041   3.527   9.616  12.522  0.4122  0.0803  0.1604
28911W        W44042   1.094   4.833  15.057 -0.0124 -0.1015 -0.0377
28912W        W44043   5.366   9.667   2.531  0.4732 -0.3016  0.1962
28913W        W44044   7.275  12.312   5.025  0.0973  0.5194 -0.1018
28914W        W44045   0.619   3.909   4.893 -0.0951 -0.1225 -0.0640
28915W        W44046   3.485   3.218   2.794 -0.0547  0.1541 -0.0615
28916W        W44047   3.420   1.562   2.834 -0.1289  0.0234 -0.0026
28917W        W44048   2.418  17.566  10.966 -0.4265  0.1664  0.0592
28918W        W44049   1.834   9.185  10.707  0.2382  0.2745  0.0402
28919W        W44050   4.568  15.269   9.521  0.2330  0.3196  0.0994
28920W        W44051   4.476  13.658  15.077 -0.0487  0.2509  0.3820
28921W        W44052   0.038   7.201   4.333 -0.0256 -0.0430  0.1259
28922W        W44053   5.119   7.953   3.406 -0.0861  0.0101  0.1644
28923W        W44054  11.049   8.501  13.023 -0.4757 -0.0193  0.0616
28924W        W44055   1.583   8.743  10.551  0.2140 -0.1226 -0.2463
28925W        W44056  17.915  11.571  13.222 -0.0348  0.1089  0.0612
28926W        W44057   2.852  17.959  13.967  0.2272 -0.0237 -0.2231
28927W        W44058  15.257   4.994  14.101 -0.0568 -0.1144  0.2668
28928W        W44059  18.519   5.559   5.192 -0.1356 -0.0234  0.2633
28929W        W44060   3.847   4.225  13.611 -0.3164  0.0832 -0.3017
28930W        W44061   3.011   9.317   3.691  0.0568 -0.1834 -0.0648
28931W        W44062   0.117   9.368   1.819 -0.0029 -0.0184  0.1062
28932W        W44063   7.308   9.311   1.206  0.2227 -0.1530  0.2351
28933W        W44064   3.142  16.812  11.746  0.3887  0.6353  0.0209
28934W        W44065  14.211  16.862  11.603 -0.2630 -0.1090  0.0486
28935W        W44066   7.980   9.734  14.182  0.1267  0.0797 -0.0212
28936W        W44067   4.374   4.161  12.529  0.2983  0.1020 -0.1862
28937W        W44068   8.197   0.817  10.936 -0.2313 -0.3066  0.0070
28938W        W44069  16.937  17.864  11.675 -0.1513 -0.2205 -0.0359
28939W        W44070   2.722   6.684  13.639  0.0323 -0.0294  0.3417
28940W        W44071   0.457   8.477   3.019 -0.0825 -0.1149  0.0449
28941W        W44072  14.045   3.582   0.041 -0.0343 -0.0916 -0.1712
28942W        W44073  12.074  16.106   0.458  0.2594 -0.1247 -0.0334
28943W        W44074   3.757   0.245   2.075 -0.1329  0.3622  0.0625
28944W        W44075  14.936  10.521  13.155 -0.2614 -0.1738  0.1571
28945W        W44076   8.462  16.293   2.790  0.0262  0.4998  0.2390
28946W        W44077   0.881   0.879   0.999  0.0274 -0.0320 -0.2853
28947W        W44078  11.330   3.784  15.237 -0.2311  0.0756  0.1127
28948W        W44079   3.881  11.611  14.843 -0.1560  0.0613  0.0566
28949W        W44080   6.209  14.626  13.456 -0.1018  0.3018  0.0759
28950W        W44081  13.860   6.128   5.448  0.1120 -0.1201 -0.1434
28951W        W44082   1.212   0.734   4.296 -0.1399 -0.0410 -0.1592
28952W        W44083   4.585  17.421   4.822 -0.0841 -0.1243  0.1462
28953W        W44084   1.221   4.751   3.068 -0.0544  0.1332 -0.1229
28954W        W44085   7.978   2.226   3.765 -0.1409  0.0744  0.0751
28955W        W44086  13.664   9.450   0.254 -0.0203 -0.2389  0.0081
28956W        W44087  10.948   8.858   3.296  0.1191 -0.1134  0.2298
28957W        W44088  10.721   1.475   1.780  0.2336 -0.1588 -0.1337
28958W        W44089  15.117   3.427   1.670  0.0628  0.3120 -0.1288
28959W        W44090   0.259  15.889  14.372 -0.0088 -0.1278  0.1148
28960W        W44091   0.527   7.269   1.843 -0.1613 -0.1268 -0.0412
28961W        W44092  18.251  10.651   0.921  0.4307  0.0631 -0.0359
28962W        W44093   7.805  18.467   4.847  0.0710  0.1863  0.1181
28963W        W44094   7.540  10.478   2.653 -0.1106 -0.3189  0.0167
28964W        W44095  11.597   1.106   4.130 -0.2273  0.2612  0.1431
28965W        W44096  11.862   6.160   1.105  0.0448 -0.3149  0.1992
28966W        W44097   4.466   8.566  12.475 -0.0621 -0.0564 -0.0333
28967W        W44098   7.086  10.427  11.030 -0.4323  0.3519  0.2093
28968W        W44099   5.568  14.868  10.357 -0.0421  0.0631 -0.1455
28969W        W44100   3.731  16.130   3.605 -0.1045 -0.0663  0.2180
28970W        W44101  10.221  10.882   4.819  0.0048 -0.4213  0.1355
28971W        W44102   4.570   4.822  10.847 -0.2591 -0.0824 -0.3259
28972W        W44103  10.404   9.609   0.497  0.1160 -0.2322  0.1438
28973W        W44104   7.000  12.035  11.360 -0.0501  0.0294 -0.1291
28974W        W44105   6.280   2.456   3.438 -0.1982 -0.2011  0.1503
28975W        W44106   0.386  16.354  13.229 -0.0254  0.0056  0.2411
28976W        W44107   9.354   4.532   0.018 -0.0519 -0.1978  0.5029
28977W        W44108   8.167   2.140  13.057 -0.1075 -0.1989  0.1823
28978W        W44109  18.671  13.572   0.635  0.0638  0.4273  0.2433
28979W        W44110   0.397   7.238  14.817  0.0499 -0.2545  0.1077
28980W        W44111   6.523   5.442  11.343  0.0256  0.0425  0.1811
28981W        W44112   9.720  12.665  15.338  0.1885  0.0469 -0.1148
28982W        W44113  18.088  14.365  10.887 -0.0523  0.0668  0.2345
28983W        W44114  12.535  10.795  13.286  0.0765 -0.1845  0.0259
28984W        W44115   0.189  13.018  14.554 -0.0636 -0.3026  0.0961
28985W        W44116  15.227   1.248   5.093  0.1665  0.2132  0.2160
28986W        W44117  10.894  17.863   3.604  0.0311 -0.0788 -0.0686
28987W        W44118  16.014   0.272   4.486  0.0608  0.0698  0.0443
28988W        W44119   3.652  14.828  14.088  0.1181  0.0207  0.0294
28989W        W44120   1.647  18.298   4.545  0.0576  0.0088  0.1986
28990W        W44121   4.711  14.621   3.127  0.4803  0.4661 -0.2175
28991W        W44122  11.269  12.474   1.864 -0.0962  0.0220  0.0579
28992W        W44123  10.522   6.369  15.481  0.0985 -0.1284 -0.0345
28993W        W44124   1.294   8.289   0.230 -0.1208 -0.4855  0.1733
28994W        W44125   5.442  14.432   4.374 -0.1818  0.3212 -0.2012
28995W        W44126   1.475   4.601  13.172 -0.0312 -0.0664 -0.0776
28996W        W44127  12.663  12.199  13.080 -0.3455 -0.2793 -0.1008
28997W        W44128   3.433   9.971   3.470 -0.0020  0.0204  0.1426
28998W        W44129  14.116   6.248  15.712  0.3203 -0.2061 -0.0414
28999W        W44130   3.994  17.436   5.405  0.1314 -0.0005 -0.2008
29000W        W44131   0.869   5.602   2.894  0.0212 -0.0708  0.0464
29001W        W44132   9.565   0.874   2.208  0.2591 -0.0700  0.0130
29002W        W44133   8.802   8.240   1.175  0.0557 -0.2327  0.2319
29003W        W44134  10.634   4.388   5.309  0.3023  0.2159 -0.0831
29004W        W44135   3.390  17.393   3.652 -0.1804  0.0836  0.1715
29005W        W44136  12.417   5.427  10.210  0.1078  0.0375  0.0454
29006W        W44137   7.703   4.272   0.738  0.0456 -0.0408  0.0529
29007W        W44138  16.090  11.752  10.464 -0.0284  0.3597  0.0720
29008W        W44139  13.780   1.346   5.053  0.2418 -0.0495 -0.1588
29009W        W44140   9.085  17.101   4.030 -0.2364 -0.2172 -0.2853
29010W        W44141  17.921  10.699  14.047 -0.0181 -0.4847  0.0478
29011W        W44142   7.398  10.577  12.555 -0.0753  0.1970 -0.0171
29012W        W44143   4.036   6.240  10.395  0.2657 -0.0795 -0.0625
29013W        W44144   7.660  17.385   0.648  0.0393 -0.0668 -0.2623
29014W        W44145  13.474  12.559  12.826  0.0606 -0.2084  0.0622
29015W        W44146  14.580   4.453  10.222 -0.0322  0.3610 -0.0717
29016W        W44147  15.880  18.584  15.499  0.0379  0.1027  0.1257
29017W        W44148   1.284  10.878  10.667  0.0506 -0.2281 -0.0839
29018W        W44149   5.321   4.595   3.880 -0.0931 -0.1613  0.0118
29019W        W44150   5.362   1.453  15.575  0.2134 -0.1266  0.0385
29020W        W44151  10.691  14.741  11.839 -0.3366  0.2354  0.1093
29021W        W44152   5.676   5.255   0.548 -0.2129  0.1800 -0.1008
29022W        W44153   9.415   1.631  13.622  0.1099 -0.2140  0.0596
29023W        W44154  14.453  10.839   5.636  0.0237 -0.0469 -0.1349
29024W        W44155  15.606  18.040   1.429  0.1433 -0.2689  0.0739
29025W        W44156  16.247   7.823   1.365  0.0190 -0.2785 -0.0788
29026W        W44157  12.087  17.203  11.881  0.2077 -0.0205 -0.2338
29027W        W44158   8.255   7.494  12.629  0.1236 -0.1240  0.0396
29028W        W44159  11.113   7.870  14.575  0.0768  0.0596  0.2555
29029W        W44160  15.357   4.365  10.088  0.0927  0.0126 -0.0283
29030W        W44161  10.956  12.884   1.880  0.2091 -0.4123  0.1933
29031W        W44162  17.189   3.841   3.750  0.0031 -0.0827 -0.1787
29032W        W44163   1.764   9.242  10.222  0.3698 -0.6066  0.1740
29033W        W44164   5.534   2.604  10.865  0.0116  0.0528 -0.1492
29034W        W44165  13.179   1.085  10.571  0.2322 -0.0052 -0.0686
29035W        W44166   4.120  12.440  13.978 -0.1543 -0.2366 -0.0471
29036W        W44167  10.785   2.005   0.132 -0.2046 -0.1565  0.1973
29037W        W44168   1.017   9.644   0.020 -0.0318 -0.1029  0.3876
29038W        W44169   3.479  11.735  14.366 -0.1540 -0.3732 -0.3293
29039W        W44170  16.729  17.676  13.002  0.1307  0.2228  0.1396
29040W        W44171  10.217   4.471  14.523  0.2232 -0.1601 -0.0530
29041W        W44172   9.845  13.509   0.577  0.0194 -0.1093 -0.0774
29042W        W44173   8.025   9.216  13.662  0.0780 -0.3085 -0.0569
29043W        W44174  11.746   1.991   2.564 -0.2097 -0.2161  0.0584
29044W        W44175  17.139  12.338  13.124 -0.0924 -0.0743  0.1003
29045W        W44176   1.498   0.325   2.061  0.0018  0.4858 -0.2086
29046W        W44177   8.750  17.428   5.564 -0.0655  0.1906 -0.4307
29047W        W44178  11.467  14.687   2.246 -0.0067 -0.0683  0.2279
29048W        W44179  11.886   7.835   4.525  0.0117  0.2367  0.1084
29049W        W44180  12.596   7.433   1.485 -0.1100  0.4368  0.0428
29050W        W44181  15.841  16.140   4.306 -0.3595  0.0617  0.1295
29051W        W44182   8.419  17.468   2.619 -0.0360  0.3393 -0.2176
29052W        W44183   8.066   3.059  12.002 -0.2050  0.2335 -0.0281
29053W        W44184  11.732  12.528   5.119  0.2413  0.1643  0.4820
29054W        W44185  14.811   7.958   3.825 -0.2369  0.0557  0.0139
29055W        W44186   0.188  15.325   2.845 -0.1671  0.1580 -0.1215
29056W        W44187   2.120  10.808   5.098 -0.1599  0.1215 -0.1203
29057W        W44188   9.236  15.953  14.855 -0.2509  0.2812  0.2761
29058W        W44189  10.903   0.825  11.004 -0.0789 -0.1510 -0.0675
29059W        W44190  18.628   1.035   5.365 -0.0103  0.1434  0.0022
29060W        W44191  11.135  15.229  13.212  0.1571  0.2057 -0.3282
29061W        W44192  14.736  17.945   4.820  0.0580  0.0322 -0.2333
29062W        W44193   3.018   0.624   1.985  0.1978  0.0529 -0.2210
29063W        W44194  16.785   6.895  12.818  0.2718 -0.2665 -0.2575
29064W        W44195   9.290  13.478   2.250 -0.1891  0.2797 -0.0042
29065W        W44196  13.815  17.606  13.684 -0.0664 -0.1228  0.0966
29066W        W44197   0.036   3.305  12.684  0.1513 -0.1231  0.1009
29067W        W44198  14.839  16.516  11.834  0.0221 -0.1393 -0.0233
29068W        W44199  13.782   7.253   6.000 -0.2678  0.4263  0.1277
29069W        W44200   3.690   5.930  13.866  0.1400 -0.0489  0.1052
29070W        W44201   9.959   8.213   1.847  0.0964  0.3231 -0.1413
29071W        W44202   1.062  12.845   0.700 -0.1401  0.1647  0.3631
29072W        W44203   9.900   4.598  15.082  0.0810  0.3525  0.2527
29073W        W44204  12.812  12.343  14.386  0.0000 -0.0163 -0.1052
29074W        W44205  16.922   3.034  12.722 -0.1383 -0.0999  0.0922
29075W        W44206   2.835   8.464   2.401  0.4024  0.4366  0.2027
29076W        W44207  14.385   3.457  11.121  0.1154  0.1379  0.0529
29077W        W44208   6.147   0.307  10.705  0.1541 -0.1323 -0.0004
29078W        W44209   5.364   4.408   2.616 -0.1529  0.2561 -0.1870
29079W        W44210   1.738  16.310   3.693  0.2553  0.0080 -0.0782
29080W        W44211  11.379   4.897   3.424  0.0281 -0.0314 -0.1614
29081W        W44212  18.293   3.711  15.288 -0.0731 -0.0331 -0.1182
29082W        W44213   9.542   5.384   3.122  0.2152 -0.0894  0.2460
29083W        W44214   8.685   2.421  13.178 -0.0805  0.0489 -0.1478
29084W        W44215   2.091  15.417   6.060  0.3104 -0.1726  0.0602
29085W        W44216  10.090  13.039  15.303  0.1778  0.1302  0.4181
29086W        W44217   6.039   9.673  15.368 -0.0636  0.1847  0.0890
29087W        W44218  17.871  17.730  12.529 -0.0904 -0.0320 -0.0439
29088W        W44219  11.292  15.159   4.281  0.0531  0.5334  0.0842
29089W        W44220   7.655   3.914   5.399 -0.2194 -0.0062  0.0189
29090W        W44221   1.909  14.294  13.974  0.0657  0.0262 -0.0249
29091W        W44222   5.216   4.370  13.819  0.2886 -0.0270  0.1164
29092W        W44223  10.551  18.535  15.280 -0.0152 -0.0748 -0.2130
29093W        W44224  12.661   7.837  14.656 -0.0111  0.2703 -0.0077
29094W        W44225   7.873   4.972   1.749  0.0465 -0.0242 -0.1742
29095W        W44226  13.667   2.525  10.111  0.1466  0.3436 -0.0786
29096W        W44227   9.177  15.710  11.378  0.3019  0.0423 -0.0631
29097W        W44228  17.781  18.689  11.005  0.2384 -0.1218  0.1702
29098W        W44229   3.246   3.665   2.157  0.1136  0.3447  0.0096
29099W        W44230  18.173   8.761  15.215 -0.1319 -0.0798 -0.0006
29100W        W44231   1.624   4.242   1.782  0.0145  0.0286  0.1272
29101W        W44232   4.948   3.678  11.015 -0.0339 -0.2018  0.1253
29102W        W44233  17.987  12.551   4.397 -0.0906 -0.0424 -0.2119
29103W        W44234   9.374   2.229   4.848 -0.1836  0.0054  0.2585
29104W        W44235   6.858  15.623   5.417 -0.2580  0.2430 -0.1420
29105W        W44236   1.273   0.254   5.315 -0.1261 -0.1571 -0.2676
29106W        W44237   3.913   4.550  14.429  0.1977  0.1271 -0.3300
29107W        W44238   8.892   4.968  14.770  0.0715 -0.1621  0.1463
29108W        W44239  11.548   8.251   5.492  0.1271 -0.0311 -0.1509
29109W        W44240   6.832  13.170  13.143  0.3233 -0.0468  0.3477
29110W        W44241  11.121  16.371  12.229  0.0217 -0.2047 -0.1546
29111W        W44242  12.338  11.942   4.602 -0.3388 -0.0146  0.0794
29112W        W44243  16.472   3.356  14.489  0.0842 -0.1094  0.0752
29113W        W44244   8.814  13.951   5.401  0.1138 -0.0964  0.3120
29114W        W44245  10.926   4.325   2.410 -0.0889 -0.3621  0.0678
29115W        W44246  13.021  18.420  12.763 -0.3035 -0.0702 -0.1821
29116W        W44247  12.120  13.029   2.951  0.1491 -0.2210 -0.5467
29117W        W44248  11.828  11.169   1.962  0.1198 -0.0123  0.0578
29118W        W44249   7.190  15.211   0.699  0.1067 -0.1098 -0.0287
29119W        W44250   7.702   8.806   3.020  0.2069 -0.0971  0.2860
29120W        W44251  14.753  16.355  10.800  0.1683 -0.1031  0.1020
29121W        W44252   9.675   9.392  13.918  0.1719  0.2679  0.1598
29122W        W44253   5.512   0.102   2.321 -0.0001 -0.1447  0.1299
29123W        W44254   8.809   5.290  12.463 -0.2068  0.0535  0.4714
29124W        W44255   7.039   0.191   1.672  0.1260  0.0534  0.2185
29125W        W44256  17.665   0.161   0.698 -0.0168 -0.1937  0.1440
29126W        W44257  10.256  14.962  12.066  0.1450 -0.1267  0.0290
29127W        W44258   9.102   7.410   0.789  0.0010 -0.0864 -0.0064
29128W        W44259   7.797  18.448  14.086  0.1695 -0.3138  0.2443
29129W        W44260   4.682  13.452  14.183 -0.0022 -0.0925 -0.0918
29130W        W44261  10.799   2.700   3.643  0.0621 -0.0075 -0.0472
29131W        W44262   6.490   5.370  13.785  0.1741  0.1953  0.1239
29132W        W44263  12.498  17.449   0.299 -0.0665 -0.0939  0.0273
29133W        W44264   5.684  17.009  10.192  0.0594  0.0491  0.0648
29134W        W44265   8.162   0.371  10.099 -0.0551  0.0474 -0.3058
29135W        W44266  14.859  16.820  12.856  0.2321  0.0618 -0.1541
29136W        W44267  14.876  17.379  10.555 -0.1547  0.2017  0.2947
29137W        W44268   6.286  14.636   0.839 -0.3129 -0.2729 -0.2243
29138W        W44269  17.041  15.326  14.903 -0.3080  0.0715 -0.3967
29139W        W44270   2.471  13.892  15.189  0.0238 -0.3150  0.2780
29140W        W44271  14.841   9.793   2.670  0.2698 -0.1735  0.5015
29141W        W44272   5.421  14.022   2.432  0.2890  0.1570  0.3460
29142W        W44273   1.494   0.079  13.909  0.0386  0.1540  0.4052
29143W        W44274   6.577   9.845  11.067  0.1143 -0.0053 -0.1682
29144W        W44275  14.300   5.524   3.189  0.0364  0.2310 -0.1279
29145W        W44276   0.785   1.594  11.469 -0.1158 -0.0728 -0.0310
29146W        W44277  15.836  11.246  10.919  0.0027 -0.1185 -0.2315
29147W        W44278   6.002   9.637   4.385  0.2847  0.0933 -0.0543
29148W        W44279   8.937  13.021  11.245 -0.3429 -0.0791  0.4074
29149W        W44280   1.472   8.962  10.983 -0.1877  0.1841 -0.0018
29150W        W44281   9.630  15.907  15.649 -0.3240  0.2461 -0.1550
29151W        W44282   2.419  10.511  11.236 -0.3160  0.0784 -0.0423
29152W        W44283  15.592   5.198   4.630 -0.0805 -0.1465  0.4272
29153W        W44284  12.246   1.337   1.122  0.1109  0.1537 -0.2663
29154W        W44285  18.069  11.460   5.173 -0.0686 -0.1629  0.3084
29155W        W44286   6.831   4.942   4.619  0.0673 -0.3397 -0.3400
29156W        W44287  18.635   5.105   2.843  0.3079  0.0386 -0.3578
29157W        W44288   1.822  15.563   2.017  0.1083 -0.1769  0.3683
29158W        W44289   6.399   1.389   0.954 -0.0304  0.1146  0.0079
29159W        W44290   6.990  16.583  12.926  0.2047  0.0623 -0.1953
29160W        W44291  17.606  10.379   4.173 -0.3113  0.0317  0.2747
29161W        W44292   3.678  13.040  13.446 -0.1120 -0.1193  0.0276
29162W        W44293   1.404   5.069   2.290  0.1788  0.0682 -0.0423
29163W        W44294  10.616  13.667  13.547  0.2301  0.0462 -0.0265
29164W        W44295   0.388   3.861   2.718  0.1333 -0.3273 -0.0989
29165W        W44296   2.798   5.185  10.703  0.2025  0.0736  0.1046
29166W        W44297   6.699  16.957  12.685 -0.0283 -0.1102 -0.0146
29167W        W44298   6.866   4.154   3.416 -0.0439 -0.0024  0.1496
29168W        W44299  10.083   9.412  10.185  0.1288  0.0115  0.3095
29169W        W44300  16.363   5.240  13.798  0.2680  0.1586  0.0294
29170W        W44301   8.525  12.129  13.461 -0.0149 -0.2031  0.0743
29171W        W44302   4.196  10.637  10.784  0.0459 -0.3104  0.2514
29172W        W44303   1.852  11.776   5.163 -0.1269  0.1935 -0.0279
29173W        W44304  13.608  11.927  11.153 -0.0548  0.4145 -0.3197
29174W        W44305  15.575  13.238  14.647 -0.0124 -0.0555 -0.1260
29175W        W44306   3.312  10.728   0.951  0.2647 -0.0709  0.1257
29176W        W44307   2.727   6.131   3.141  0.0011  0.0995  0.0542
29177W        W44308   6.902   7.497   5.074  0.1371 -0.0658 -0.1494
29178W        W44309   5.903   2.896  13.771  0.0677 -0.0527  0.1378
29179W        W44310   2.139  14.630  12.707 -0.0264  0.0071 -0.0384
29180W        W44311   4.064   4.846   2.275 -0.2114 -0.4349  0.1069
29181W        W44312  13.992  17.253  11.288 -0.2084  0.2192  0.2739
29182W        W44313   2.402   4.124  11.251 -0.0175 -0.0248  0.0966
29183W        W44314   1.004   7.081  10.991 -0.3821 -0.1144  0.3331
29184W        W44315  15.843   7.973  13.731  0.1373 -0.2109 -0.0383
29185W        W44316   8.977   3.773   3.955 -0.1035  0.0800  0.2597
29186W        W44317   8.511  10.155  12.898  0.0365 -0.4715  0.1289
29187W        W44318   9.956   5.444   4.860  0.0320 -0.0565 -0.1081
29188W        W44319  18.035  11.242   3.531 -0.3572 -0.2656 -0.0667
29189W        W44320  16.000  10.318  13.415  0.0358 -0.0201  0.1537
29190W        W44321  10.627  13.729   4.207 -0.0092  0.3968  0.1985
29191W        W44322  13.851  17.749  13.046 -0.1057  0.1990  0.2282
29192W        W44323  14.573   2.425   4.603  0.0507 -0.1618 -0.2336
29193W        W44324  14.653  11.237  13.854 -0.1025  0.3168  0.1803
29194W        W44325   2.562   6.194  12.415  0.0229  0.1658 -0.3320
29195W        W44326  18.002  12.492  13.121  0.0372  0.1929 -0.2309
29196W        W44327  15.692   5.012   4.051 -0.1315 -0.0879  0.0040
29197W        W44328  15.725  10.824  12.576 -0.1115  0.0652 -0.2317
29198W        W44329   8.600   5.361  15.749  0.1825 -0.1483 -0.2217
29199W        W44330   6.912  12.236   2.720  0.2490  0.1321  0.3550
29200W        W44331  12.164  17.337   1.151  0.0951  0.1769 -0.2310
29201W        W44332   2.618   9.942  12.787  0.1828 -0.0953 -0.0097
29202W        W44333  12.701   8.423  15.693 -0.4379  0.1241  0.0132
29203W        W44334   5.553   7.444   5.055 -0.1376  0.0039 -0.4002
29204W        W44335   3.978   7.645  12.474 -0.3001 -0.1663  0.0224
29205W        W44336  16.401   6.137   0.249  0.0283 -0.0097  0.0220
29206W        W44337   3.392   0.714   3.331 -0.1315 -0.0772 -0.0816
29207W        W44338  13.551  10.379   4.573  0.0190  0.2598 -0.1874
29208W        W44339   6.118   7.701  10.486 -0.3505 -0.3232 -0.4072
29209W        W44340   7.090  11.064   5.075  0.1522  0.1532 -0.1876
29210W        W44341   4.079   9.208   0.241  0.0606  0.3676 -0.2110
29211W        W44342  11.183   5.411  13.661 -0.1187  0.4948  0.0959
29212W        W44343   7.503  10.367   3.448 -0.0222  0.1153  0.0985
29213W        W44344   5.756  17.367   3.569  0.0082 -0.3904 -0.0835
29214W        W44345   3.627   3.433  10.349  0.2722 -0.1876  0.1868
29215W        W44346  17.536   4.829  11.637 -0.0943  0.0295  0.4469
29216W        W44347   8.547  18.439   1.085  0.2068  0.0406 -0.1383
29217W        W44348   5.013   8.577  15.519 -0.0666 -0.1743  0.1542
29218W        W44349   7.452   3.035  15.464 -0.1249 -0.1115 -0.1177
29219W        W44350  14.823   1.949  13.379  0.2171 -0.2509  0.3040
29220W        W44351   5.254  10.605   0.393 -0.2115  0.0240  0.1339
29221W        W44352  10.807  12.351  13.836 -0.1047  0.0335  0.1405
29222W        W44353   7.176  15.205   1.194 -0.1555  0.3338  0.1300
29223W        W44354  11.874   9.164   5.821  0.1674 -0.0523 -0.4848
29224W        W44355   2.627   8.501   3.991  0.1148 -0.0892  0.1461
29225W        W44356   8.803   3.474  14.530  0.2898  0.3393  0.0781
29226W        W44357   0.262  13.346   5.410 -0.2359 -0.3338  0.4041
29227W        W44358  13.831   9.294  13.820  0.0858 -0.2816 -0.1659
29228W        W44359   9.518   0.210  15.752  0.1744  0.0608  0.0523
29229W        W44360  10.597  13.000  14.754 -0.2560 -0.3301 -0.3024
29230W        W44361  15.529   8.278   1.575  0.0083 -0.0611  0.0043
29231W        W44362   0.939   0.141  14.205 -0.3512 -0.1627  0.2404
29232W        W44363  12.501  11.129  10.348  0.4775  0.0727  0.0638
29233W        W44364  15.213  13.239  11.939 -0.2491 -0.1457 -0.0468
29234W        W44365   3.388  12.987   4.244  0.1273  0.0743  0.0479
29235W        W44366  15.799  13.491   2.642  0.1632  0.0245  0.2397
29236W        W44367   8.292  16.365  14.058 -0.1255  0.0737  0.0743
29237W        W44368  17.753  16.921  10.649 -0.0456 -0.2070  0.2483
29238W        W44369   6.152  18.486  11.374 -0.1671 -0.3441 -0.0541
29239W        W44370  10.156   7.417   2.016 -0.1358 -0.0347 -0.4810
29240W        W44371  11.688   5.866  14.373 -0.1594 -0.4226  0.0328
29241W        W44372  10.958   0.391  11.797  0.2173  0.0271  0.1425
29242W        W44373  11.973   2.508  14.272  0.5133 -0.2562 -0.1648
29243W        W44374   0.137   8.850   2.783  0.0187  0.2630  0.0324
29244W        W44375  16.597   7.389  13.791 -0.2116  0.1214 -0.1190
29245W        W44376  17.285   6.479   2.563 -0.1625 -0.1488 -0.1008
29246W        W44377   3.566   1.962   2.485  0.2724 -0.0822  0.1894
29247W        W44378  14.676   3.228  14.757 -0.1789 -0.0999  0.1386
29248W        W44379   1.630   6.017  14.259  0.2234  0.0253  0.0107
29249W        W44380  17.560  12.623  13.918  0.0223  0.4069 -0.1540
29250W        W44381   6.075   2.079   0.184  0.0074  0.2885 -0.2405
29251W        W44382   3.234   0.092  15.743 -0.0092  0.5068 -0.0229
29252W        W44383   7.875  14.301  10.440 -0.1395  0.3638 -0.0362
29253W        W44384  10.426   6.304   2.172 -0.1072 -0.1236 -0.0772
29254W        W44385  16.791   2.993  14.340 -0.1076  0.0314 -0.0602
29255W        W44386   3.355  15.612  11.204 -0.2366 -0.4743 -0.2937
29256W        W44387  17.383   4.407  11.907 -0.1297 -0.1318 -0.0604
29257W        W44388   7.634   5.024  12.893 -0.2019  0.2721  0.2239
29258W        W44389   1.328  15.856  15.581 -0.3425 -0.2818  0.1968
29259W        W44390  11.689   8.886  13.625  0.0134  0.1596 -0.0361
29260W        W44391  15.402  15.084  10.627  0.0804 -0.1533  0.3020
29261W        W44392   6.766   4.530   2.181 -0.0540  0.3109 -0.0186
29262W        W44393  15.519   3.828   0.054 -0.1296 -0.0801  0.1220
29263W        W44394  10.587   2.904  10.169  0.0278  0.0808  0.1020
29264W        W44395  17.462   2.831   5.385 -0.3139  0.2749  0.1121
29265W        W44396  18.303   8.083  14.100  0.0050 -0.1895  0.0266
29266W        W44397   6.239   7.040  14.387 -0.0386  0.1485  0.1299
29267W        W44398  14.418  16.128   0.567 -0.1226 -0.1258  0.0137
29268W        W44399   7.314   7.922   3.136  0.1494  0.4152  0.3510
29269W        W44400  12.885  17.855  12.002 -0.4340  0.0069  0.0442
29270W        W44401  15.463   2.470  11.781  0.0813 -0.2223  0.1209
29271W        W44402   9.614  13.396  14.665  0.0837  0.1334  0.2217
29272W        W44403   6.758  12.272   6.308  0.0672  0.0708  0.0314
29273W        W44404  11.330   9.925   0.910 -0.0839  0.0437  0.0907
29274W        W44405   4.658  10.559  10.939 -0.1188 -0.1689 -0.2180
29275W        W44406   0.615  13.005   3.013 -0.1357 -0.0986  0.1483
29276W        W44407  17.781  16.805   1.375  0.0862  0.0346  0.2910
29277W        W44408  10.095  16.128   0.988 -0.1628  0.1448  0.2664
29278W        W44409   8.443   7.154  14.131  0.4863  0.0202  0.2413
29279W        W44410  18.194   3.432   2.862  0.0075 -0.3168  0.5760
29280W        W44411   5.449   4.271  13.284 -0.0286 -0.2672 -0.0316
29281W        W44412   1.153  12.801   1.598 -0.3416 -0.3190 -0.0843
29282W        W44413  17.249   8.038  12.048 -0.1602  0.4058  0.2267
29283W        W44414  12.820   4.741  12.297 -0.1392 -0.2402  0.1037
29284W        W44415   6.881   1.554  11.920 -0.0229  0.2573  0.0660
29285W        W44416   4.612  17.700   2.871 -0.4068  0.2069  0.1118
29286W        W44417  10.990   1.460   0.143 -0.1330 -0.1656  0.0178
29287W        W44418  17.049  10.648   0.813  0.1815 -0.3191 -0.3268
29288W        W44419  11.578   5.497  11.578  0.0357  0.0523  0.0815
29289W        W44420   9.647   0.755   3.151 -0.0124 -0.1349  0.1083
29290W        W44421   1.583   4.767   2.723  0.2055  0.1410  0.0948
29291W        W44422  13.013  15.270  12.503 -0.2561  0.0424 -0.1479
29292W        W44423  13.799   8.320  12.434  0.1574 -0.1695  0.4504
29293W        W44424  11.309  13.720   3.234  0.3913  0.1699  0.1268
29294W        W44425  18.439  15.767  13.587  0.2636  0.1058 -0.0308
29295W        W44426  15.176   0.271  11.241  0.2475 -0.1226  0.1967
29296W        W44427   1.517  12.354  10.561  0.1045  0.1174  0.1639
29297W        W44428  16.331  11.223  15.045  0.1947 -0.0723  0.0482
29298W        W44429  10.052  13.926   2.014  0.0645 -0.0631 -0.0103
29299W        W44430  12.885   1.748   4.779 -0.1414 -0.0606  0.0607
29300W        W44431   3.949  12.400   0.283  0.2827 -0.0500  0.0998
29301W        W44432  13.182  12.099   4.130  0.2227  0.2693  0.1010
29302W        W44433  15.519  13.523  13.299 -0.1319  0.3272  0.1589
29303W        W44434   3.084   0.687  10.353  0.2481  0.1733 -0.2155
29304W        W44435   1.322   1.463   2.417 -0.0425  0.4056 -0.0100
29305W        W44436  15.206  13.836  11.694  0.0652 -0.2018 -0.0659
29306W        W44437   0.146   0.875  13.532 -0.1286  0.3866  0.0495
29307W        W44438   1.298   7.718   5.515 -0.2059  0.1958 -0.2047
29308W        W44439   5.744  16.938  11.126 -0.1658 -0.0821 -0.0212
29309W        W44440  13.488   1.953  13.662 -0.2420 -0.2828 -0.0709
29310W        W44441   0.209   7.353   0.326  0.1088  0.2151 -0.3819
29311W        W44442  18.290   8.252  10.563 -0.1934 -0.0149  0.2136
29312W        W44443   6.051   6.512   1.060  0.0147  0.2368  0.1158
29313W        W44444  18.193  10.114   0.155  0.1522  0.2014 -0.1445
29314W        W44445  16.913   1.311  10.353  0.1836  0.1149 -0.3844
29315W        W44446  16.167  15.476   1.716 -0.0492 -0.0102 -0.3095
29316W        W44447   1.435  18.663   4.839  0.0644  0.0725  0.2342
29317W        W44448   6.940   7.080  15.094  0.0694 -0.2811 -0.1441
29318W        W44449  16.863  17.998   1.139  0.0232 -0.0616  0.0146
29319W        W44450   0.112   1.120   1.739 -0.2392 -0.1353  0.1630
29320W        W44451  12.743   6.625   0.046 -0.1446  0.1566 -0.3698
29321W        W44452   3.567  13.923   4.150  0.3447 -0.0718  0.3200
29322W        W44453  11.385   0.097  13.362  0.0151  0.0269  0.0996
29323W        W44454  14.172   5.783   0.101 -0.0234 -0.0558  0.1690
29324W        W44455   2.490   3.148  15.303 -0.1019  0.1523  0.1136
29325W        W44456   2.099   9.626  11.339  0.3530  0.0761 -0.0580
29326W        W44457  17.348  18.055   0.897  0.1613  0.0460  0.0732
29327W        W44458   4.789  10.976   2.857 -0.0888  0.2771  0.0909
29328W        W44459  11.769   4.619   4.425  0.1299 -0.0592  0.0608
29329W        W44460   0.468   8.353  14.218 -0.1087 -0.1942 -0.4015
29330W        W44461  12.128  12.361   1.273 -0.1003 -0.2086 -0.2133
29331W        W44462  10.019  18.714   3.585  0.3304 -0.0871  0.1291
29332W        W44463   8.721  18.502   1.981 -0.2745  0.0856  0.1308
29333W        W44464   3.482   5.670  13.505 -0.1196 -0.2323 -0.1728
29334W        W44465   1.970   1.733  15.410  0.4374 -0.0450 -0.1551
29335W        W44466   2.057  16.415  13.648 -0.3029 -0.0145  0.1268
29336W        W44467   5.487  16.323  13.162 -0.2641  0.1116  0.0991
29337W        W44468   4.576  10.261   3.392 -0.0356  0.1613  0.2539
29338W        W44469   8.720  14.284   1.782 -0.1670 -0.1244  0.0519
29339W        W44470   7.485   1.815  12.502 -0.1484 -0.0114 -0.2052
29340W        W44471  12.512   4.609  11.415 -0.0188 -0.0246  0.0714
29341W        W44472   0.654   1.847   0.469 -0.0229 -0.2597 -0.0539
29342W        W44473   3.169  15.793  10.720  0.0994 -0.0008  0.1793
29343W        W44474  18.580   3.498   4.551 -0.0967  0.0447  0.0281
29344W        W44475   6.147  18.232   1.294 -0.0922  0.0526  0.0762
29345W        W44476  13.648  16.269   1.353 -0.0605  0.2621  0.0030
29346W        W44477  11.916   7.621   6.088  0.1543  0.3279 -0.1569
29347W        W44478   2.060   8.793   1.053  0.0935 -0.1029 -0.1328
29348W        W44479  16.136  16.612  14.709 -0.0691  0.0941  0.0891
29349W        W44480   1.276   8.002   4.572  0.0314  0.1058  0.0871
29350W        W44481  15.564   0.169   5.410  0.2370  0.0493  0.3806
29351W        W44482  12.819  12.704   6.193 -0.4775 -0.1688 -0.1476
29352W        W44483   4.788  17.960   0.504 -0.0693 -0.0673  0.0197
29353W        W44484  12.740   4.300   4.533  0.1355  0.1171 -0.0567
29354W        W44485  13.168  11.347   0.415 -0.3794  0.0360  0.0115
29355W        W44486  12.359  11.613  11.243  0.0472 -0.2839 -0.0838
29356W        W44487  17.942  15.031   4.635 -0.0949 -0.0255 -0.4170
29357W        W44488   3.041  17.068   3.510  0.2063  0.3730  0.1590
29358W        W44489  11.740   5.139  12.995  0.2383 -0.3445 -0.0755
29359W        W44490  14.973  13.048   2.324 -0.0202 -0.2479 -0.0873
29360W        W44491   5.742   1.629  12.477 -0.1223  0.0477  0.3130
29361W        W44492   0.681  12.136  10.722 -0.0355  0.3379 -0.1200
29362W        W44493  17.991  16.199  12.500 -0.1557 -0.0578 -0.2542
29363W        W44494   3.249   5.618   4.959  0.1735 -0.1230  0.4130
29364W        W44495  17.977   3.183   5.066  0.2771 -0.0192 -0.1215
29365W        W44496  18.074   9.613   1.652 -0.0346  0.2473  0.2599
29366W        W44497   1.825  15.604  13.056  0.0704 -0.2697  0.4669
29367W        W44498  13.841   0.499   3.130 -0.0486  0.0018 -0.1162
29368W        W44499  14.608   4.788   3.070 -0.0525  0.1093  0.0958
29369W        W44500   6.519   7.706  13.234  0.0253  0.0444  0.1145
29370W        W44501  15.403  15.590   0.863 -0.2152 -0.0937  0.2499
29371W        W44502   6.304  12.959   0.611 -0.1267  0.0557  0.1956
29372W        W44503   9.766   3.348   5.331 -0.0957 -0.1950 -0.0184
29373W        W44504   0.836   8.738  14.114  0.1093  0.1496  0.3080
29374W        W44505  15.213  18.641   2.726  0.1663  0.2086 -0.1206
29375W        W44506   6.889   9.851  12.103 -0.0516 -0.0747 -0.0237
29376W        W44507  13.065  17.371   3.103 -0.1622 -0.2549  0.1491
29377W        W44508   2.175  16.162   4.448  0.3651 -0.0077  0.1639
29378W        W44509   5.347   7.505   3.654  0.0768  0.2893 -0.3277
29379W        W44510   9.622  18.638  13.358  0.0161 -0.0064 -0.0870
29380W        W44511  13.115  15.055  11.564  0.4443  0.2709 -0.1176
29381W        W44512  16.955   1.275   3.887 -0.1754 -0.2176 -0.0937
29382W        W44513  14.802  18.643   2.382 -0.1328  0.1263 -0.0090
29383W        W44514   6.464   2.840  13.833  0.0658 -0.1784  0.2910
29384W        W44515  15.014  16.910   2.419 -0.0437  0.2338  0.1129
29385W        W44516  18.756  11.710  14.011  0.3504  0.2286  0.1032
29386W        W44517   4.796   8.095  10.975 -0.0262  0.3584 -0.5188
29387W        W44518  13.865   1.320   0.374  0.3645  0.3780 -0.0945
29388W        W44519   5.237   5.431   3.924  0.1613  0.1403  0.1631
29389W        W44520   3.511   7.487  11.422  0.0747  0.2336 -0.0375
29390W        W44521  12.946  16.093   3.630 -0.0564 -0.2585  0.3881
29391W        W44522   9.373   1.428   2.514 -0.0900 -0.0179 -0.0311
29392W        W44523  14.781  13.217  13.395  0.1108  0.0776 -0.1692
29393W        W44524  12.107  17.504  12.279 -0.1202 -0.1955 -0.0340
29394W        W44525   5.804  12.766   3.267 -0.3268 -0.1608  0.4440
29395W        W44526   9.225  16.398  15.562 -0.4451  0.0125  0.0613
29396W        W44527   8.489   6.965   1.882  0.0134 -0.2082  0.0340
29397W        W44528  14.631   4.744   0.018  0.1314 -0.3653 -0.1646
29398W        W44529   9.174  16.527   3.287  0.0285  0.1885  0.0014
29399W        W44530  12.423   6.527  14.401 -0.0556 -0.0718 -0.0757
29400W        W44531  12.559  11.211  12.027  0.1790  0.2221 -0.2111
29401W        W44532   4.201   3.466  12.079  0.4112  0.0962  0.0648
29402W        W44533   8.248   6.403   0.071 -0.1370 -0.1585  0.0213
29403W        W44534   9.673   9.422   1.080  0.0814  0.1451 -0.0827
29404W        W44535   6.211  17.958   3.177 -0.1059  0.0756  0.2605
29405W        W44536  15.760   7.924  12.475 -0.0323  0.2619 -0.0965
29406W        W44537   5.520   6.337  10.940 -0.0939 -0.1753 -0.1960
29407W        W44538   2.338   4.823  12.166 -0.2092  0.1396  0.0995
29408W        W44539  12.034   4.195  12.318 -0.0024 -0.1176 -0.2692
29409W        W44540  13.810   7.879   5.018  0.2477  0.0804  0.0508
29410W        W44541   3.442   3.035   4.186  0.1193  0.0705  0.0016
29411W        W44542  12.104  16.454   3.375 -0.1247  0.1668  0.1452
29412W        W44543  17.238  14.261  14.702  0.1953  0.3691  0.0559
29413W        W44544  17.609   8.069  13.645 -0.1515  0.0366  0.0013
29414W        W44545  16.600  12.498   4.412 -0.0836 -0.1096 -0.2843
29415W        W44546   7.744  11.739  11.437  0.0047 -0.2199  0.1656
29416W        W44547  13.866   3.757   2.311  0.1648 -0.0250  0.1151
29417W        W44548  17.270   2.142   4.801  0.3515  0.1557 -0.1429
29418W        W44549   7.310  14.906  15.739 -0.2607 -0.1102  0.1306
29419W        W44550   8.644   0.180  11.977  0.2248 -0.0276 -0.2583
29420W        W44551   6.035   8.612  13.309 -0.3384  0.0905  0.1101
29421W        W44552  10.661   5.301  15.709  0.5924  0.0184 -0.3972
29422W        W44553   7.993  10.513   3.512 -0.1178  0.2273  0.1234
29423W        W44554   9.599  17.842   2.834 -0.3748 -0.2415  0.0107
29424W        W44555  11.855   1.572   5.428 -0.0769 -0.2825  0.3426
29425W        W44556  12.187  15.435   5.101 -0.1919 -0.2505  0.1259
29426W        W44557   3.544   5.259   1.605 -0.1290 -0.1382  0.0992
29427W        W44558   7.708   6.793  11.795 -0.0406 -0.3190  0.3776
29428W        W44559   8.720   0.428  12.459  0.0144 -0.1952  0.0720
29429W        W44560   8.366  18.644  15.137 -0.1518  0.2506 -0.0801
29430W        W44561   4.495   3.459   0.939  0.1845  0.0270  0.2260
29431W        W44562   6.541  13.538  14.028 -0.2376 -0.0465  0.0337
29432W        W44563   0.688   8.620   4.611  0.0112  0.0389  0.2962
29433W        W44564  17.422  10.662  12.632 -0.2118 -0.0796  0.1036
29434W        W44565   7.596  11.044   0.733  0.1455 -0.0138 -0.0806
29435W        W44566  14.383  13.858   3.526 -0.2270  0.3632  0.1866
29436W        W44567  12.767   0.682  15.569 -0.5383 -0.0770  0.1473
29437W        W44568  14.980  17.691   0.925  0.0703  0.2392  0.1872
29438W        W44569  17.717   5.658  15.345  0.1715  0.1989 -0.1116
29439W        W44570   5.325  16.784   2.923  0.0368 -0.2234 -0.3463
29440W        W44571  15.316  13.660   3.304 -0.1828 -0.2383  0.1100
29441W        W44572   6.266   8.489   0.094  0.0222  0.2445 -0.3691
29442W        W44573   4.793  14.469   2.527  0.3188 -0.0193 -0.0731
29443W        W44574   2.228  12.372  14.367 -0.1393 -0.1443 -0.3020
29444W        W44575   0.281   0.568  15.114 -0.0928 -0.0442 -0.1809
29445W        W44576   8.583   2.328   2.796 -0.2204 -0.2857  0.0756
29446W        W44577  11.981   2.562   4.854 -0.0787 -0.0692  0.1330
29447W        W44578  15.534  14.333   1.004 -0.4680  0.2857  0.0300
29448W        W44579  13.258   1.399  14.453  0.2734 -0.2480 -0.2269
29449W        W44580   0.199  17.223   3.732  0.0131 -0.1955 -0.1775
29450W        W44581   5.576   5.696   2.600 -0.0955 -0.1406  0.0005
29451W        W44582   6.369  13.678   5.015  0.1609 -0.0965  0.0297
29452W        W44583  12.021   9.271  14.088  0.1192  0.2926 -0.0904
29453W        W44584  17.838   3.776   4.238  0.0065 -0.1787 -0.0079
29454W        W44585   5.084  17.429  14.380 -0.1183  0.2288  0.1740
29455W        W44586  13.760   1.194  12.047  0.0256 -0.0143  0.2301
29456W        W44587  18.257  10.505   5.319  0.0183 -0.2008  0.1849
29457W        W44588  12.981  13.306   1.023  0.1214 -0.3557 -0.2098
29458W        W44589   1.787   9.328   2.332 -0.1921 -0.0502 -0.1951
29459W        W44590   4.441  18.285  10.280  0.0073 -0.1676  0.0565
29460W        W44591  12.421   4.512  14.274 -0.0302  0.0181 -0.0931
29461W        W44592  14.732   9.277   2.595 -0.1214  0.2711  0.0586
29462W        W44593   7.124   2.445   3.397  0.2924  0.2473 -0.2314
29463W        W44594   5.916   9.529  11.745 -0.2490  0.2632  0.2615
29464W        W44595   2.541   4.127  15.279  0.1096 -0.0608  0.0804
29465W        W44596  16.839   3.422   5.438  0.3404  0.1789 -0.0996
29466W        W44597  14.765  11.478  10.208 -0.0880 -0.0174 -0.1007
29467W        W44598  10.319   3.692  14.033 -0.2359 -0.2166  0.1617
29468W        W44599   4.186  13.626  13.396  0.0340  0.1815  0.1094
29469W        W44600   2.062  12.485  12.121 -0.1740  0.0640 -0.1081
29470W        W44601  11.062  16.868   0.955 -0.0624 -0.0472 -0.2476
29471W        W44602  18.217  15.283  13.551 -0.0810 -0.0157 -0.1081
29472W        W44603  11.944   8.922  12.727  0.1604 -0.1237 -0.2044
29473W        W44604  11.872  12.413   2.071  0.0814  0.0532 -0.1329
29474W        W44605   4.532   1.189   1.535  0.0229 -0.1996  0.0570
29475W        W44606   8.680   2.611   5.055  0.1430  0.0382 -0.0264
29476W        W44607   0.242  16.288   4.162 -0.0502  0.4225  0.0028
29477W        W44608  10.440   6.479  13.334 -0.1335  0.0751  0.1589
29478W        W44609  16.831   5.783   1.782 -0.1711  0.1758  0.0276
29479W        W44610   5.114   8.121  13.423 -0.0033  0.0641 -0.2603
29480W        W44611   1.723  18.746  15.532 -0.1040  0.0689  0.3294
29481W        W44612  10.845   8.213  14.895 -0.1016  0.2555  0.1300
29482W        W44613  10.684  17.432   3.222 -0.0988 -0.3805  0.2251
29483W        W44614  14.923   3.391  10.255  0.1439  0.2592  0.1779
29484W        W44615   6.306  16.368   0.695 -0.2905  0.0738 -0.1042
29485W        W44616   5.273   2.964   4.389  0.1438 -0.1509  0.4178
29486W        W44617   0.640   3.064   2.969 -0.1380  0.0214  0.2198
29487W        W44618  14.273  11.973   5.448  0.3928 -0.0664  0.0537
29488W        W44619   5.281  18.407  11.714  0.2717 -0.2078 -0.0926
29489W        W44620  11.807   3.758  11.512  0.0428  0.2223  0.0996
29490W        W44621   4.809   3.432  10.451  0.0560  0.1411  0.1436
29491W        W44622  13.249   2.269  14.360  0.1765  0.0485  0.0550
29492W        W44623  15.182   7.317   3.273 -0.1857 -0.2624 -0.3911
29493W        W44624  18.190   2.033   3.288 -0.1529 -0.0320 -0.2259
29494W        W44625   6.044  17.442  13.910 -0.1368  0.4366  0.2591
29495W        W44626   6.630   9.265   2.290  0.0969  0.0573  0.1770
29496W        W44627  17.868  14.414  11.835  0.0150 -0.1483 -0.0058
29497W        W44628  12.647   1.773   2.295 -0.0681 -0.3047  0.0829
29498W        W44629   9.646   7.006  10.922 -0.1749  0.0012  0.2422
29499W        W44630  11.681  11.085  12.470 -0.1724  0.0933 -0.0093
29500W        W44631  11.013   1.419   5.850  0.0459  0.1095  0.2877
29501W        W44632   4.802   5.422  12.488 -0.0045 -0.1418  0.0031
29502W        W44633  13.386  12.032   2.525  0.1637  0.1271 -0.1107
29503W        W44634   3.552  16.235  11.719 -0.1076  0.0724  0.0557
29504W        W44635   9.534   7.286  15.085  0.1882 -0.2607 -0.1003
29505W        W44636   7.032   4.304   2.549  0.1313  0.1407  0.0816
29506W        W44637   7.138  14.357  12.308  0.1585  0.0802 -0.2127
29507W        W44638   1.432   4.998  12.530  0.1298  0.1874  0.0114
29508W        W44639   6.804  15.884   3.711 -0.1564 -0.0053 -0.1185
29509W        W44640   9.390  14.200  13.638 -0.1790 -0.2159 -0.1245
29510W        W44641  17.418  17.476  12.616  0.4221  0.2038  0.6857
29511W        W44642   7.440   7.449   5.259  0.0034 -0.0127 -0.0326
29512W        W44643  14.750  14.429   2.220  0.2561 -0.1479  0.2036
29513W        W44644   9.753   2.175  10.560 -0.1870  0.0868 -0.2990
29514W        W44645  16.623  14.186  11.692 -0.0281 -0.1434 -0.0486
29515W        W44646   4.844   2.815   1.692  0.0780 -0.0128  0.3620
29516W        W44647  15.258  18.284  11.685  0.2125  0.3148  0.3279
29517W        W44648  14.765  15.058   2.426  0.1898  0.1690 -0.2495
29518W        W44649  12.675   0.931   5.395  0.0647  0.2490 -0.0277
29519W        W44650  10.481   3.669   4.924  0.2460  0.1964  0.0429
29520W        W44651   0.168   0.630   2.173 -0.1519  0.2906 -0.2297
29521W        W44652   0.610  17.400   3.386  0.1239  0.1014 -0.1484
29522W        W44653   1.456  18.624   1.642  0.0272 -0.0198  0.2787
29523W        W44654  14.663  18.342   2.850  0.0143 -0.1213  0.4796
29524W        W44655  10.697   1.482  14.020 -0.1890  0.0582  0.2429
29525W        W44656  10.610   9.047  14.809  0.1126  0.4600 -0.0382
29526W        W44657  18.330   7.134   4.450 -0.2194  0.1707 -0.2756
29527W        W44658   5.633   6.210  12.024 -0.2886  0.0527  0.1386
29528W        W44659  12.972  18.352  12.265  0.2309  0.0222 -0.0026
29529W        W44660  11.384   7.440   1.172  0.0275  0.2376  0.3844
29530W        W44661  11.284   4.831  12.908 -0.2984 -0.0108 -0.1997
29531W        W44662  16.496  15.402  14.968 -0.1421 -0.1420 -0.1162
29532W        W44663   9.237   2.960   1.553 -0.0808 -0.0997  0.3203
29533W        W44664  11.026   6.735  15.131  0.0727 -0.1981  0.0973
29534W        W44665   8.164  14.828   2.242 -0.1465 -0.0571 -0.0945
29535W        W44666   1.012   8.578   2.976  0.2199 -0.2897 -0.0763
29536W        W44667  16.425   5.905  12.928 -0.1370 -0.0894 -0.2661
29537W        W44668   8.906   5.451   0.356 -0.1334 -0.2886 -0.1421
29538W        W44669   6.133  16.282  14.220 -0.2910  0.2408 -0.5691
29539W        W44670  17.240  15.737  14.245  0.1382  0.0440  0.0116
29540W        W44671   4.738  11.351  11.376  0.0916 -0.3245  0.0526
29541W        W44672   7.748   1.775   4.482 -0.3129 -0.2221  0.3842
29542W        W44673   8.165  14.562   0.210 -0.0232  0.0085 -0.1279
29543W        W44674  16.660   8.544   2.249 -0.1483  0.1031 -0.0178
29544W        W44675   0.779   6.409   2.584  0.0689 -0.0365  0.3372
29545W        W44676  13.531   9.627   2.781  0.0711 -0.0484  0.2275
29546W        W44677   3.962   1.428  14.489  0.1710 -0.1506 -0.1126
29547W        W44678   4.683   7.793   3.594  0.0952  0.0261 -0.1985
29548W        W44679   5.831  11.921  15.580 -0.1811 -0.3582  0.2130
29549W        W44680   9.753   2.459   4.424 -0.0108 -0.1841 -0.1478
29550W        W44681   2.648   0.005  14.604  0.0700 -0.0556  0.0808
29551W        W44682   3.915   4.002   4.718 -0.0408  0.0303  0.1367
29552W        W44683   8.038   5.547  14.558  0.1708  0.0712  0.1133
29553W        W44684  17.361  15.566   5.087 -0.0688 -0.1229  0.4428
29554W        W44685  16.316  14.753   0.644  0.0442  0.1663 -0.2904
29555W        W44686  11.097  17.387   0.924  0.0037 -0.0346  0.0502
29556W        W44687  13.007  12.364   3.770 -0.1424  0.0166 -0.0031
29557W        W44688  13.160   9.128   4.681 -0.1771  0.2093 -0.0449
29558W        W44689  10.650  10.661   0.977 -0.1637 -0.0808 -0.0584
29559W        W44690  13.976  10.994   5.542 -0.5352  0.1338  0.1284
29560W        W44691   1.979  16.645   5.204  0.1687 -0.1184  0.1635
29561W        W44692  13.242  15.761   3.940  0.0375  0.2255 -0.0219
29562W        W44693   5.361   8.244   4.415 -0.2061  0.1375 -0.2341
29563W        W44694  15.531   7.785  14.804  0.0849 -0.0733  0.3198
29564W        W44695  18.623  18.205   1.451  0.3223 -0.2699 -0.3208
29565W        W44696   4.534  18.496  11.722  0.1677 -0.0026  0.3514
29566W        W44697  12.366   0.600  13.261  0.1426 -0.0666 -0.0401
29567W        W44698   6.880  13.670   5.088  0.0371 -0.1097  0.2233
29568W        W44699  18.569   6.375  14.468 -0.1211  0.0290  0.2514
29569W        W44700   9.872   4.423  11.943 -0.2269 -0.1586 -0.0910
29570W        W44701   1.230  11.462   2.550  0.2472  0.0870 -0.1852
29571W        W44702   8.954  12.065  14.841 -0.0604 -0.0111 -0.1154
29572W        W44703   4.408  15.612   1.580 -0.2903 -0.2841 -0.1273
29573W        W44704   8.876  16.160   0.196 -0.3520  0.0043  0.3889
29574W        W44705   5.012   3.488   0.940 -0.1002  0.0181 -0.0110
29575W        W44706  18.254   6.841  15.286  0.0474 -0.1999 -0.2953
29576W        W44707   4.925  17.576   1.347 -0.3044 -0.1885 -0.1003
29577W        W44708   2.582   3.482   1.187 -0.0995  0.0855 -0.1645
29578W        W44709   6.417   0.970  12.971  0.0099 -0.0924  0.1658
29579W        W44710   8.610   4.152   1.095  0.0937 -0.0210 -0.1850
29580W        W44711  10.919  17.224  12.620  0.1224  0.2069  0.1048
29581W        W44712   7.538  12.741   2.815 -0.3260  0.1110  0.1443
29582W        W44713   0.525  16.613   4.403 -0.0360  0.2722 -0.0413
29583W        W44714  18.566   5.149   9.534 -0.1782  0.2224  0.4228
29584W        W44715  10.387   5.429  13.522  0.3773 -0.1340 -0.0668
29585W        W44716  15.169  10.430  15.437 -0.2113 -0.0325 -0.1495
29586W        W44717   4.938   2.144   0.769  0.2331  0.1167 -0.0343
29587W        W44718  16.967   6.968  14.449 -0.2454  0.0939 -0.0097
29588W        W44719  11.829   1.393   0.648  0.2408 -0.1848 -0.0964
29589W        W44720   1.291  16.201  13.256 -0.0900 -0.3691  0.0628
29590W        W44721   5.101  17.997  10.477  0.1268  0.1368 -0.0792
29591W        W44722  14.406   5.876   0.512 -0.0432 -0.1369  0.2494
29592W        W44723   4.122   6.606   2.003  0.1543  0.4127  0.3823
29593W        W44724  17.851  12.290  13.707 -0.1406  0.0780  0.2886
29594W        W44725   9.033   3.966  14.270 -0.0431  0.1143  0.0173
29595W        W44726   5.805   9.811  14.555  0.0847 -0.0075  0.2021
29596W        W44727  17.253   1.720  10.352 -0.0260 -0.0540  0.0334
29597W        W44728   6.028  13.550   4.394 -0.0887 -0.2784 -0.2753
29598W        W44729  16.094  11.130   5.858 -0.1572 -0.0636 -0.1656
29599W        W44730   9.842   7.339  13.305 -0.2622 -0.1125 -0.2105
29600W        W44731   8.654   8.016   2.907 -0.1604 -0.1699 -0.2111
29601W        W44732   8.497   7.628  11.666  0.2159  0.0632  0.0643
29602W        W44733  13.968   2.482   6.190  0.2296  0.1785 -0.3784
29603W        W44734  13.187   9.252  15.000  0.0377  0.1526  0.2715
29604W        W44735   0.081   4.882  12.509 -0.1837  0.1292  0.0752
29605W        W44736  13.321  10.811  12.774  0.1056  0.1106  0.3418
29606W        W44737  16.327   4.359  10.377 -0.1196 -0.1837  0.1208
29607W        W44738  17.209  16.039   5.710 -0.0531  0.2619 -0.1829
29608W        W44739  12.661   0.164   0.985  0.2486  0.0810  0.0861
29609W        W44740   7.687  16.291   5.148 -0.1355  0.2152  0.0275
29610W        W44741  17.219  16.518  14.328 -0.2686  0.2421 -0.4484
29611W        W44742   4.881   7.539  14.867  0.0287 -0.1970 -0.0324
29612W        W44743   7.604  13.344  10.151 -0.0442 -0.3977  0.0161
29613W        W44744   5.515   4.822   0.840 -0.1662  0.0041 -0.0599
29614W        W44745   3.790   3.288  12.448 -0.3630  0.2706  0.1859
29615W        W44746  18.290   3.757   3.788  0.1591  0.0931 -0.0726
29616W        W44747   8.714  13.049  13.770  0.0072 -0.0966  0.1884
29617W        W44748   8.228  12.690   2.197  0.1120  0.0374 -0.2018
29618W        W44749  12.552   6.767  11.524  0.0029  0.0705 -0.1166
29619W        W44750  17.679   6.891   1.193  0.0729  0.1699  0.0744
29620W        W44751   5.795  14.023  11.003  0.1341 -0.0675 -0.1139
29621W        W44752  17.215   5.613   2.120  0.2128  0.2507  0.1167
29622W        W44753  14.674  16.762  13.276 -0.0533  0.3459  0.1252
29623W        W44754  16.936   9.935  12.168 -0.0713  0.0398  0.1915
29624W        W44755   1.406   1.840  14.058 -0.3543  0.1109  0.3134
29625W        W44756  14.127   6.774   0.062  0.0876  0.1488  0.0077
29626W        W44757  15.541   5.612  11.509  0.0789 -0.0307 -0.0767
29627W        W44758  12.179   0.395  12.827 -0.0084  0.0560 -0.0915
29628W        W44759  13.711   8.654  14.455  0.0495 -0.2690  0.1794
29629W        W44760  11.880  15.746   2.784 -0.1589 -0.3939 -0.3757
29630W        W44761   4.646  10.138   0.287 -0.1076 -0.2177  0.3652
29631W        W44762   2.754   9.046   0.480  0.1467  0.0358 -0.1016
29632W        W44763   8.602  17.241   0.907  0.1772  0.1546  0.1037
29633W        W44764  17.351  16.451   3.443  0.2303  0.0693 -0.0929
29634W        W44765   3.906   7.552  11.030 -0.0861 -0.0960 -0.3577
29635W        W44766   8.460   5.907   2.240  0.1543  0.0382  0.0934
29636W        W44767  11.335  13.174   4.485 -0.0918 -0.1986 -0.1686
29637W        W44768   2.391   3.364  14.312  0.0601 -0.0798  0.1198
29638W        W44769   5.982   6.644   4.345  0.2660 -0.2896 -0.0172
29639W        W44770   2.992   9.445   1.556 -0.0390 -0.0671  0.3293
29640W        W44771  15.982  16.246   1.986  0.1493 -0.1528 -0.1458
29641W        W44772   0.633  15.020   4.406 -0.0391 -0.0299 -0.0060
29642W        W44773  10.666   2.494  14.374 -0.0470 -0.0374 -0.1518
29643W        W44774  18.193  11.248   3.014 -0.0898 -0.4278 -0.0119
29644W        W44775  17.213   0.026   2.317  0.0461 -0.1672 -0.0113
29645W        W44776  16.822   8.671   2.871 -0.0772 -0.2248  0.0523
29646W        W44777   8.905  13.380   5.582  0.1580 -0.0119 -0.0483
29647W        W44778   0.735  15.067  14.245  0.5434 -0.0253  0.2193
29648W        W44779  17.117   0.403   3.579  0.1660 -0.2102 -0.0795
29649W        W44780  13.233  16.896   2.986  0.1518 -0.3358  0.2139
29650W        W44781   2.191   1.364   3.371  0.1996  0.2560 -0.1793
29651W        W44782  16.574  12.749  15.548  0.0100 -0.3770 -0.0526
29652W        W44783   0.823  12.204   1.514 -0.0572  0.1512  0.1839
29653W        W44784  10.612   3.432   1.468 -0.0632 -0.0019  0.1081
29654W        W44785  16.157   7.852  11.364  0.2577 -0.2170  0.2038
29655W        W44786   7.638   4.304   0.013  0.1427 -0.3266 -0.0454
29656W        W44787   9.182  17.787   4.588  0.2342  0.0199 -0.0141
29657W        W44788  16.081  15.993  12.324 -0.1149  0.0541  0.3906
29658W        W44789  15.602  12.765   2.979 -0.0702 -0.1875 -0.0053
29659W        W44790   3.375  11.336   9.405  0.0938 -0.0962  0.2264
29660W        W44791  16.642   8.030  10.485  0.0059 -0.2689  0.0648
29661W        W44792  16.201  17.382   1.414  0.3709 -0.0256 -0.0587
29662W        W44793  11.733   5.572   2.834 -0.0356  0.1336 -0.2504
29663W        W44794  17.008   1.201   4.989  0.2366 -0.0506 -0.0167
29664W        W44795  14.433  11.220   2.359  0.2224  0.1608  0.0893
29665W        W44796   9.327   9.812  13.143  0.0529  0.0518 -0.2565
29666W        W44797   2.977   5.163   2.889  0.1826  0.0900  0.0102
29667W        W44798   8.174  10.980   5.292  0.0265  0.1732  0.3621
29668W        W44799   9.682  12.557   0.485 -0.0129 -0.2411 -0.2299
29669W        W44800   1.076   7.068   1.418 -0.1799 -0.1794  0.0868
29670W        W44801  10.076   9.026  12.739 -0.1940  0.1140  0.1362
29671W        W44802   8.628   8.236  13.892 -0.3412 -0.0592  0.0420
29672W        W44803  17.898   6.058   3.759 -0.0158 -0.1175 -0.0890
29673W        W44804   3.923   7.020  12.245  0.1284 -0.0316  0.0406
29674W        W44805  16.436  15.693  12.106 -0.0302 -0.0054  0.0561
29675W        W44806   9.815   4.575  11.484  0.0784  0.0514  0.0845
29676W        W44807   6.774  12.963   3.315 -0.0158  0.2055 -0.0035
29677W        W44808  18.234  16.965   3.195 -0.0487  0.2793 -0.3260
29678W        W44809  17.692   6.318  13.290 -0.0943  0.2192 -0.4733
29679W        W44810   4.022  11.292  11.113 -0.2057 -0.1229 -0.0731
29680W        W44811   2.824   9.704  14.478  0.1238 -0.1127 -0.0002
29681W        W44812  16.618  12.792   5.671 -0.0825  0.3903  0.4972
29682W        W44813  18.359  17.746   2.565 -0.1433  0.0403  0.1887
29683W        W44814   4.645   7.603  13.923  0.0560  0.1175 -0.2535
29684W        W44815   6.271   0.303   3.486  0.3046  0.0834 -0.2719
29685W        W44816   2.438   0.956   3.773 -0.0177  0.0898 -0.2366
29686W        W44817   8.815   5.796  15.318 -0.0578  0.1086  0.1071
29687W        W44818   2.839   6.131   2.034  0.0432  0.0202 -0.3128
29688W        W44819   5.386   2.802   3.436 -0.1993 -0.1652  0.0464
29689W        W44820   8.547   4.630   4.010  0.0558  0.1536  0.2971
29690W        W44821  17.285   8.608  15.076 -0.0191  0.1411  0.0713
29691W        W44822  10.910   5.743   3.854  0.0140  0.1041 -0.0392
29692W        W44823   9.381  15.835  10.411  0.3551 -0.1071  0.0067
29693W        W44824   2.884  18.035  11.349  0.0659 -0.0669 -0.0127
29694W        W44825   5.479   3.680  11.049  0.2661  0.0141  0.1401
29695W        W44826  17.473   5.912   5.488  0.1764 -0.0315 -0.1414
29696W        W44827  16.627   6.808   4.633  0.0182 -0.2464 -0.6659
29697W        W44828   8.863  18.003  13.514 -0.5117  0.0131 -0.2603
29698W        W44829  13.306  12.098   5.371 -0.3005 -0.0031  0.0214
29699W        W44830  12.463  17.610   1.627 -0.1748 -0.1599  0.1218
29700W        W44831  15.970   7.325  15.621  0.0234 -0.2247  0.3469
29701W        W44832  10.763  16.300  15.576 -0.0027  0.1714 -0.0205
29702W        W44833   4.455  13.283  13.693  0.1083 -0.0349 -0.4224
29703W        W44834  15.693  18.675   5.862  0.1348  0.2169  0.1309
29704W        W44835  12.671  12.334   2.390  0.0070 -0.3140  0.0460
29705W        W44836   3.284  17.933  12.622 -0.3399  0.0764  0.1261
29706W        W44837   2.592   8.629   0.235  0.0448 -0.0484  0.0351
29707W        W44838   8.684   3.828  12.199  0.0137 -0.2646  0.4372
29708W        W44839   3.203  17.434  15.147 -0.4363 -0.0119 -0.0887
29709W        W44840  13.323  15.460  14.228  0.3022  0.4259  0.1190
29710W        W44841  15.717   1.256  14.384 -0.0948  0.0725 -0.0879
29711W        W44842  14.129   4.801   3.814  0.2425  0.0569 -0.1182
29712W        W44843  16.802  16.994   3.079 -0.2034 -0.2519  0.0318
29713W        W44844  16.210  16.510  14.106  0.0309  0.3063 -0.3498
29714W        W44845   6.531  10.153  12.075 -0.1962 -0.0748 -0.2686
29715W        W44846   3.811  12.121   0.769 -0.2068  0.2356 -0.2157
29716W        W44847  12.080  18.435  12.689  0.2061  0.1694 -0.0326
29717W        W44848   6.644   7.747   3.978  0.1654 -0.1298  0.0092
29718W        W44849   7.300  15.722  13.280 -0.1414 -0.0202 -0.2935
29719W        W44850   8.724  11.221  15.460  0.1454  0.2132 -0.0291
29720W        W44851   5.739   7.947   4.171 -0.4665  0.2675 -0.0166
29721W        W44852   2.790   4.858  14.831 -0.3825  0.0740 -0.0168
29722W        W44853  14.478   7.658  14.978 -0.2698 -0.1035  0.1732
29723W        W44854  11.001   2.646  11.087 -0.0332 -0.0557  0.0679
29724W        W44855   6.130   7.058   2.086 -0.3547 -0.0385  0.1031
29725W        W44856  13.730   6.711  11.122  0.3101  0.1928  0.2647
29726W        W44857  18.455   9.222   0.340 -0.0923 -0.0213  0.0932
29727W        W44858   2.849   3.266   2.162  0.0291 -0.0973 -0.0749
29728W        W44859   4.029   6.290   1.505 -0.3369 -0.0546 -0.3357
29729W        W44860   0.390  14.559  12.262 -0.1105  0.2028 -0.1712
29730W        W44861  10.369  15.998   3.408 -0.2233 -0.1694  0.2356
29731W        W44862   9.309  18.520  15.551  0.1337 -0.1209  0.0915
29732W        W44863  11.472   1.413  15.459  0.0866  0.1536  0.3035
29733W        W44864  14.950   9.608  11.425  0.0916  0.0912 -0.0658
29734W        W44865  11.380   2.020  13.772  0.1731  0.1886  0.0597
29735W        W44866  15.517   5.131  13.643  0.2732  0.0946 -0.0109
29736W        W44867   0.906  18.407  14.463  0.0701 -0.0799 -0.3569
29737W        W44868  18.601  18.287  11.415  0.2487  0.0250 -0.0230
29738W        W44869  13.074   6.093  12.570  0.2059 -0.1131  0.1378
29739W        W44870  11.439   1.247   4.693 -0.0718  0.1447  0.1594
29740W        W44871  12.737   3.669  11.756  0.0491  0.1997  0.2989
29741W        W44872   3.446   5.703   1.251  0.1775  0.2295  0.2187
29742W        W44873   5.221   3.494  13.719  0.2065 -0.0444  0.0737
29743W        W44874   9.314  16.609  15.052  0.0196  0.2949 -0.0964
29744W        W44875  12.584  11.454  15.661 -0.4215 -0.2339  0.0917
29745W        W44876   6.176  10.567   0.243  0.2949 -0.2892  0.2822
29746W        W44877  14.797   3.373   0.114  0.2674 -0.1501  0.0315
29747W        W44878   1.935   5.757  12.177 -0.4116 -0.4858  0.1046
29748W        W44879   0.826  18.198  11.590 -0.1509 -0.2275  0.1487
29749W        W44880  10.096   3.955   3.006  0.0299  0.1171  0.0184
29750W        W44881   3.162   7.360  10.361  0.2481 -0.2199 -0.0630
29751W        W44882  16.546   1.119   4.240  0.1666 -0.3238 -0.2147
29752W        W44883   9.597   8.006   0.959  0.2112 -0.0099 -0.1749
29753W        W44884   5.573  11.524   0.672 -0.2049  0.3579 -0.2278
29754W        W44885  11.922   2.203   5.203  0.3274  0.3620  0.1653
29755W        W44886   0.801   9.247  10.564 -0.0069 -0.0686 -0.3272
29756W        W44887  18.066   9.539  13.700  0.2067 -0.1544  0.0626
29757W        W44888  12.311   0.204  11.888 -0.0933 -0.0203 -0.0151
29758W        W44889   4.721  11.573   4.649 -0.3021  0.1167 -0.0109
29759W        W44890  12.733   7.572  14.207  0.2394 -0.1067 -0.0508
29760W        W44891   6.343   0.658   2.137 -0.1305 -0.0885 -0.3207
29761W        W44892   3.186   1.918  11.520 -0.3040  0.0196 -0.0499
29762W        W44893  10.176   5.019   2.891  0.2134 -0.1367  0.1238
29763W        W44894   1.434   2.331   2.270 -0.0707  0.4069  0.0549
29764W        W44895  15.152   5.598  11.891 -0.0037  0.0107  0.2321
29765W        W44896  12.709   4.380  12.622 -0.5084  0.0470 -0.6986
29766W        W44897   2.072  15.311  10.738  0.1376  0.1254  0.0636
29767W        W44898  18.091   2.568  14.978 -0.1952  0.2544  0.0334
29768W        W44899   3.501   2.096   2.974 -0.0288  0.1713 -0.0693
29769W        W44900  13.710  16.471   4.415 -0.2747  0.1523 -0.2141
29770W        W44901   2.546   3.550  14.759  0.2003 -0.2633 -0.1700
29771W        W44902   4.754   1.495  14.817  0.0239 -0.1329 -0.2250
29772W        W44903  10.971   4.176  15.380 -0.0810  0.1094  0.2923
29773W        W44904  13.025  12.400   2.695 -0.2917  0.0133 -0.0825
29774W        W44905   4.960   7.087  10.989  0.1503 -0.1195  0.1550
29775W        W44906  15.059  10.534   4.810  0.1494  0.0475  0.0242
29776W        W44907  17.910  14.527   1.570 -0.1053 -0.0574 -0.1258
29777W        W44908   9.746  16.808  15.527 -0.2865  0.0425  0.0468
29778W        W44909  14.267  15.299  15.342 -0.2417  0.0358 -0.1085
29779W        W44910  15.210  14.667   0.938 -0.2191  0.0389 -0.1147
29780W        W44911  17.250   1.815   0.716 -0.0068 -0.2201 -0.1019
29781W        W44912   6.153   8.164   1.543 -0.0665 -0.0075  0.0602
29782W        W44913   2.994   4.900  12.021 -0.4807 -0.0372 -0.0222
29783W        W44914   8.451  11.140  13.127  0.1612  0.0536  0.2987
29784W        W44915   2.349  12.955   3.572  0.1798 -0.2548  0.0740
29785W        W44916  13.509   7.483  15.225  0.0441 -0.2535 -0.0977
29786W        W44917   6.909   9.699   3.982 -0.0690  0.2413  0.1067
29787W        W44918   1.070   7.866   0.223  0.2621  0.2740 -0.1436
29788W        W44919   8.755  11.554   5.612  0.1142 -0.2389 -0.1077
29789W        W44920   4.488  17.956  11.576 -0.1031 -0.4111 -0.2485
29790W        W44921   7.594   0.078  15.724  0.2995 -0.2028 -0.0515
29791W        W44922  17.004   7.948  12.474  0.2045 -0.1810 -0.1203
29792W        W44923  16.279   6.683  15.237  0.2890  0.0712  0.0047
29793W        W44924   2.461  18.291  12.300 -0.1914  0.2617  0.0637
29794W        W44925  15.043   9.601   3.674  0.1435 -0.0731 -0.2633
29795W        W44926   6.881   2.039   4.136 -0.1066 -0.0937 -0.2668
29796W        W44927  17.654  18.507  13.674 -0.0402 -0.0647  0.2104
29797W        W44928  13.921  16.007  14.169 -0.0530 -0.1104 -0.2422
29798W        W44929  18.359   5.512   0.134  0.1339  0.1244 -0.3236
29799W        W44930  10.596  11.554  14.956 -0.2476 -0.0101  0.3411
29800W        W44931  17.204  11.666   4.509  0.1771 -0.0810 -0.0317
29801W        W44932  14.495   1.458   3.967 -0.3358  0.2702  0.4130
29802W        W44933   9.746   0.312   2.171  0.1160  0.0289 -0.2034
29803W        W44934   0.760   5.020  14.241  0.1238  0.4053  0.1534
29804W        W44935  10.668  11.854   2.803 -0.0066 -0.0390 -0.1948
29805W        W44936   1.650   9.204   5.846  0.2161 -0.0906 -0.3058
29806W        W44937   1.929  13.174  12.901 -0.0288  0.3539  0.1710
29807W        W44938   2.179  10.801  13.503 -0.0227  0.0495 -0.0151
29808W        W44939   1.738   6.058   1.615 -0.2972 -0.1344  0.0233
29809W        W44940  10.689   8.313   5.481  0.3116 -0.0115 -0.3700
29810W        W44941   7.819   8.180  15.480 -0.2022 -0.0743  0.2920
29811W        W44942  14.095  11.613  12.868 -0.2789  0.0676  0.2672
29812W        W44943  16.151  13.177   3.665 -0.0226  0.0012  0.0760
29813W        W44944   2.820  10.375   5.341 -0.1525 -0.1878 -0.1646
29814W        W44945  12.650  18.134  10.549  0.0123 -0.0107  0.1649
29815W        W44946  13.356  17.701  13.862  0.1861 -0.0453 -0.3351
29816W        W44947   7.470   2.665  12.652  0.2391  0.1565  0.1773
29817W        W44948   6.039  18.090  14.971 -0.4325  0.2005 -0.0276
29818W        W44949  17.279  18.163   5.278 -0.0995 -0.2068 -0.2118
29819W        W44950   4.116   8.960  14.659 -0.2265  0.1379 -0.3521
29820W        W44951  17.500   0.523   5.169  0.1063  0.2985  0.2433
29821W        W44952  17.879   4.137   3.315 -0.1644  0.0126  0.2830
29822W        W44953   1.745  10.571  14.676 -0.3040  0.0945  0.1228
29823W        W44954  16.517   4.840  12.068 -0.0169 -0.1392 -0.2722
29824W        W44955  14.556   4.191   3.845 -0.0294  0.0270  0.3054
29825W        W44956   6.696  10.330  10.654 -0.1220  0.1852  0.1906
29826W        W44957  11.699  14.204  13.756 -0.2834 -0.3376 -0.3352
29827W        W44958   3.214  12.451  13.951  0.1135  0.1914  0.2401
29828W        W44959  17.792  15.383   5.111 -0.1181  0.0384 -0.2815
29829W        W44960  16.015   3.080  13.515  0.1365  0.0835  0.1883
29830W        W44961  11.396  11.718  13.387  0.0446 -0.3303 -0.0226
29831W        W44962  12.240   7.715   5.731  0.2572  0.2877  0.1671
29832W        W44963  12.703   0.487   1.422 -0.1129 -0.1177  0.0600
29833W        W44964  10.161   7.582  11.998  0.1916  0.1141 -0.1269
29834W        W44965   5.159   5.624  15.726  0.0822 -0.2881 -0.0747
29835W        W44966   9.646   7.675  13.718  0.1629 -0.2312  0.1658
29836W        W44967   9.527   2.015   0.897  0.1951 -0.0258  0.3139
29837W        W44968  15.014   1.520  12.584  0.2213  0.0919 -0.0181
29838W        W44969   0.311   2.205  10.009  0.0019  0.0553  0.2694
29839W        W44970  16.698  16.920  14.828 -0.3247  0.1073 -0.0566
29840W        W44971   3.354   4.448  10.509  0.1365 -0.0080  0.1621
29841W        W44972   7.757   8.553   3.437  0.0067  0.1749 -0.0491
29842W        W44973   3.310   8.713  12.955 -0.2046 -0.0545 -0.3345
29843W        W44974  17.994  15.468   1.396 -0.0442  0.0024 -0.0662
29844W        W44975   4.928  16.076   3.024  0.0824 -0.1811  0.1526
29845W        W44976   3.119   5.731  11.757 -0.1349 -0.2851  0.0126
29846W        W44977   6.718  11.997  15.554 -0.0910 -0.0351 -0.3305
29847W        W44978   6.174   8.766   1.538  0.1966 -0.0021  0.1321
29848W        W44979   8.906  15.842   2.226 -0.4229 -0.0712 -0.4598
29849W        W44980  15.259   3.476   0.328  0.0814  0.1725  0.3337
29850W        W44981   9.700   4.149  15.332 -0.0479 -0.1584 -0.0994
29851W        W44982  15.181  17.263   1.032 -0.3435  0.2031  0.0794
29852W        W44983   8.535  17.135   9.778 -0.1064  0.3713  0.1075
29853W        W44984   3.421  13.555   5.771 -0.1208 -0.0290 -0.1136
29854W        W44985  10.507  11.418  13.757  0.0566 -0.1729  0.0785
29855W        W44986  11.947  12.582   0.208  0.0048 -0.5671  0.1480
29856W        W44987  16.164   1.579   2.856  0.2937  0.0115 -0.0956
29857W        W44988  12.532   2.477  13.286 -0.1433  0.0671  0.1084
29858W        W44989  16.522   7.441   3.522  0.1531 -0.0313  0.0065
29859W        W44990  11.066  10.019   3.906  0.2824  0.1647  0.0668
29860W        W44991   4.946   0.965   1.871  0.0510 -0.2743  0.1496
29861W        W44992  10.572   6.023   1.442 -0.0634  0.2560  0.0701
29862W        W44993  17.132  10.098  10.663  0.0267  0.1287 -0.1038
29863W        W44994   7.737   7.234  12.552 -0.4235 -0.0258 -0.2486
29864W        W44995  11.094   4.482   5.207 -0.0994  0.1654  0.2493
29865W        W44996   7.155  13.241  15.045 -0.0073  0.0889  0.2955
29866W        W44997   0.203  10.733  13.754 -0.0387  0.3295 -0.1711
29867W        W44998   3.727  13.789  14.710  0.0557  0.0816  0.0791
29868W        W44999  14.966  10.777  11.959  0.1308  0.0389 -0.1376
29869W        W45000   6.214  10.226   3.520  0.0313 -0.0685 -0.0935
29870W        W45001  14.541   2.439   2.789 -0.1707  0.0948  0.4085
29871W        W45002   5.292  15.578  12.250  0.0634 -0.2625 -0.0748
29872W        W45003   2.874  18.555   1.787 -0.2021  0.1055  0.3016
29873W        W45004   1.203   0.352   1.525  0.1317 -0.1668  0.1237
29874W        W45005   5.094   0.715   2.490 -0.2058  0.0357 -0.1926
29875W        W45006  12.343   3.566   5.709  0.1019 -0.2315 -0.1966
29876W        W45007  10.511  16.245   3.003 -0.0965  0.0925  0.0421
29877W        W45008  12.685  17.210  10.626 -0.0677 -0.1232 -0.1061
29878W        W45009   7.819   0.009   1.904  0.2501 -0.3111 -0.0454
29879W        W45010  15.633   4.605  11.079  0.1188 -0.0844 -0.0224
29880W        W45011   3.682   4.196  13.118  0.0863  0.2419  0.0955
29881W        W45012  18.202   6.727   1.892  0.0391 -0.0430  0.0821
29882W        W45013   9.524   5.235   3.620  0.0877  0.0941 -0.0195
29883W        W45014  16.668   0.952  12.848 -0.1107 -0.3526 -0.0822
29884W        W45015  18.020   1.003   4.620 -0.1020 -0.2414  0.0883
29885W        W45016  14.195  17.921  14.969  0.0637 -0.2422 -0.2019
29886W        W45017  15.013   6.478   0.177  0.0626 -0.1449 -0.1285
29887W        W45018   1.922   3.022   3.132  0.0621  0.2460 -0.1065
29888W        W45019   9.729  11.046   0.622 -0.1025 -0.0339  0.2045
29889W        W45020  17.647  18.731  12.683 -0.0831  0.0149 -0.0735
29890W        W45021  13.640  13.606  12.007  0.2751  0.1314 -0.0105
29891W        W45022  15.485  16.478   4.392 -0.0244  0.0472  0.2308
29892W        W45023   3.501   2.913  13.819 -0.2310  0.0156 -0.2894
29893W        W45024  17.400  17.730   2.739  0.0388  0.2224 -0.2947
29894W        W45025   9.248  17.432  14.789 -0.1568 -0.1472  0.1253
29895W        W45026  16.026  15.587  15.171 -0.0381 -0.0138  0.0111
29896W        W45027   3.838   7.900  11.558  0.0574  0.2214  0.1044
29897W        W45028  14.878   0.418  14.829  0.0776  0.0046 -0.0328
29898W        W45029  17.744  17.872  13.027  0.4584 -0.0386 -0.2909
29899W        W45030   1.988  10.240  12.046 -0.1629 -0.0582  0.1553
29900W        W45031   3.808  10.630  13.254 -0.1059 -0.0136 -0.1845
29901W        W45032   2.525   3.516  13.768  0.1724 -0.3237 -0.1123
29902W        W45033   9.507  17.071  15.089 -0.1185 -0.1082  0.0387
29903W        W45034  17.763   6.016   0.898 -0.2178 -0.1049 -0.2609
29904W        W45035  13.052  17.803   5.423 -0.1609 -0.0789  0.0855
29905W        W45036   3.390  16.452   4.857  0.1300 -0.0163  0.0534
29906W        W45037  18.330   3.141   6.003  0.0566 -0.0109 -0.0785
29907W        W45038  18.526   2.572  12.535 -0.0503 -0.1171 -0.1564
29908W        W45039   4.107  14.529  11.930 -0.1689 -0.0966  0.0937
29909W        W45040   8.452  12.066  12.386 -0.0561  0.1637  0.1636
29910W        W45041  16.115   3.175  11.983  0.2773  0.0710  0.0621
29911W        W45042   7.178  14.849   3.583  0.4937  0.1404 -0.0414
29912W        W45043  14.914  16.978   5.561  0.2321  0.3720  0.0241
29913W        W45044  15.767   7.541  10.598  0.0126  0.4760  0.4425
29914W        W45045   4.110   9.210  11.346 -0.2882 -0.0352 -0.2731
29915W        W45046   3.134   0.977   0.635 -0.3358  0.1940 -0.1992
29916W        W45047   3.258   0.461  12.032 -0.1914 -0.0589  0.1780
29917W        W45048  17.569   0.862  14.390 -0.0293 -0.3569 -0.2040
29918W        W45049   2.215  15.728  11.682  0.3425  0.0438 -0.0857
29919W        W45050   0.596   1.572  15.321 -0.2441  0.0549  0.2259
29920W        W45051  11.908   1.118  12.476  0.1909 -0.1866 -0.2471
29921W        W45052   1.496  11.436   4.789 -0.0916 -0.2004 -0.4047
29922W        W45053   1.645   7.764  10.877  0.2810  0.2790  0.0358
29923W        W45054   5.330   2.319   0.461  0.1429  0.1767 -0.1226
29924W        W45055   3.124  14.962   3.859 -0.0192 -0.0415 -0.0151
29925W        W45056   8.452   3.287  11.354 -0.0612 -0.0296  0.2077
29926W        W45057   4.779  10.639  13.620 -0.0502 -0.2468  0.0339
29927W        W45058  18.393  15.622   0.412 -0.0467  0.1557  0.0035
29928W        W45059   1.169  17.181   3.908 -0.1014  0.2124  0.3299
29929W        W45060   5.601   4.832  15.641 -0.2594 -0.0250 -0.1744
29930W        W45061  16.688   2.584   4.760  0.2163 -0.1860  0.2834
29931W        W45062  18.462  17.223   5.652  0.0341  0.3177  0.2944
29932W        W45063  17.127  15.553   1.433  0.2220  0.1425  0.1906
29933W        W45064  14.512  11.139   0.163 -0.0512  0.4265 -0.1607
29934W        W45065   2.129   6.918  13.119 -0.0218 -0.2956  0.1766
29935W        W45066  16.717  12.545   1.121 -0.0561 -0.0483 -0.1765
29936W        W45067  11.039  14.053   5.519  0.2532  0.0308 -0.1839
29937W        W45068   2.834  17.054   4.083 -0.2657  0.2043 -0.0591
29938W        W45069   2.767   0.676  13.192 -0.0050 -0.2046 -0.1154
29939W        W45070   2.625  15.557   3.349 -0.1546  0.2176 -0.1771
29940W        W45071   3.955  15.369  12.226 -0.0124  0.1024 -0.0769
29941W        W45072  16.261  14.725   2.139  0.1894 -0.2350 -0.1352
29942W        W45073   6.097  17.955  11.327  0.1069 -0.2783  0.1309
29943W        W45074   2.153  18.460  10.994  0.2772  0.0777 -0.1394
29944W        W45075  15.736   4.819   1.138 -0.1266 -0.3759 -0.1382
29945W        W45076   4.347   9.344   5.422  0.0935 -0.3282  0.1019
29946W        W45077  12.899  14.170  14.170 -0.0402 -0.2156 -0.2586
29947W        W45078   2.537  12.223  13.977  0.0983 -0.0304  0.5120
29948W        W45079  15.035   2.799   5.588  0.4462 -0.0923  0.0480
29949W        W45080  17.867   9.980  11.011  0.0108 -0.0365  0.0372
29950W        W45081   5.804  17.317  14.357 -0.1827  0.0935 -0.0402
29951W        W45082   4.548  15.384   5.622 -0.2581 -0.1283  0.0451
29952W        W45083   5.220  16.858  14.516  0.0507 -0.0298 -0.0981
29953W        W45084  15.058  14.447  14.859 -0.0885 -0.1792  0.0389
29954W        W45085   1.569  17.995   2.556 -0.1197  0.1173  0.5834
29955W        W45086   7.462  15.344   0.253  0.1411  0.1873 -0.1594
29956W        W45087  13.782   5.248  10.882  0.0212 -0.0457  0.2236
29957W        W45088   9.059  10.087  14.391  0.2703  0.2531 -0.0431
29958W        W45089   2.666  16.115  12.940  0.3580 -0.3445 -0.1113
29959W        W45090   4.383  16.070  12.809  0.3173  0.1995 -0.0334
29960W        W45091  12.096  11.643  14.767 -0.1827  0.0821 -0.3428
29961W        W45092  13.813  10.915  13.254  0.1138  0.0460 -0.0485
29962W        W45093   8.873  10.620   5.554 -0.1763 -0.0793 -0.0304
29963W        W45094   4.490   8.806   5.142 -0.2130  0.1847  0.0914
29964W        W45095  11.328  12.493  14.235 -0.3719 -0.2152 -0.2711
29965W        W45096  11.781  10.955   4.085  0.0323 -0.4130  0.1253
29966W        W45097   8.110   8.433   3.735  0.3580  0.1124 -0.0876
29967W        W45098   0.964   0.456  13.758 -0.0671 -0.1891  0.1155
29968W        W45099   7.424   5.192   1.883  0.2731  0.0480  0.1254
29969W        W45100  15.342   7.168   2.148 -0.3771  0.0704  0.0005
29970W        W45101   1.482   4.019  10.005  0.2448  0.1414  0.3362
29971W        W45102   7.860  11.367  13.077  0.2917  0.4000  0.1988
29972W        W45103   2.392   3.844   2.949  0.1890  0.1904  0.0606
29973W        W45104  10.655  16.804   1.599  0.2202  0.1297 -0.3707
29974W        W45105   8.936   1.951   4.471 -0.2035  0.2802  0.1788
29975W        W45106  15.374  17.363  14.760 -0.0087 -0.2257 -0.0094
29976W        W45107   4.899  12.682   1.728 -0.0615  0.2330  0.1872
29977W        W45108   0.579  16.146  12.107  0.0438 -0.0555  0.0621
29978W        W45109  12.092   4.260  12.851 -0.0444 -0.3701  0.3759
29979W        W45110   6.825  18.368   3.495 -0.0597 -0.0064  0.0414
29980W        W45111   7.719   6.071  10.081  0.5459 -0.0796  0.0647
29981W        W45112  11.252   3.284  15.734 -0.0527  0.0464 -0.1727
29982W        W45113  13.789   8.667   3.368  0.0159 -0.0253 -0.0767
29983W        W45114   4.326   4.047  10.165 -0.3216 -0.1850  0.0231
29984W        W45115   0.103  15.660   0.251 -0.0287 -0.0513  0.2742
29985W        W45116   6.763   7.593  12.145  0.1787  0.2950 -0.2274
29986W        W45117   2.855  12.744   0.261 -0.1625  0.0664  0.2176
29987W        W45118   9.588   8.703   4.591  0.0657  0.1390 -0.0011
29988W        W45119   2.083   5.733  11.676  0.0151 -0.2794 -0.2118
29989W        W45120   9.754  15.788  15.005 -0.0310  0.1325  0.1568
29990W        W45121   9.164  16.682  13.575 -0.0383 -0.1638 -0.1397
29991W        W45122   4.861  13.400  11.233 -0.1251 -0.0259  0.1627
29992W        W45123  13.296   9.222  12.271 -0.3200 -0.1443 -0.2875
29993W        W45124  15.439   6.271  10.719  0.1058 -0.1661  0.3851
29994W        W45125   5.671  10.579   3.243  0.0524 -0.2728 -0.1212
29995W        W45126  14.682   8.269   0.700  0.1961 -0.4706  0.1074
29996W        W45127   5.875  18.745  13.752  0.0008 -0.2523 -0.1680
29997W        W45128   7.585  11.812  12.774  0.0841  0.2510  0.0020
29998W        W45129  16.592   0.973   4.739  0.0577  0.2102 -0.2875
29999W        W45130   2.169   5.085   4.206 -0.0450  0.0259 -0.2660
30000W        W45131   2.098   6.080  14.463 -0.3909  0.0418  0.2078
30001W        W45132  12.913   0.180  12.538 -0.3845  0.0296  0.1117
30002W        W45133  10.164   9.041   0.328 -0.0132  0.2396 -0.0142
30003W        W45134  11.701   1.478  14.624 -0.0093  0.4258  0.1791
30004W        W45135   4.071  15.800  10.547  0.1136 -0.1926 -0.1205
30005W        W45136   8.205  10.359   0.774  0.1759 -0.0802  0.0802
30006W        W45137   5.430   0.480   1.904  0.1726 -0.0220  0.0632
30007W        W45138  15.718  12.868   5.355  0.0688  0.2508  0.2444
30008W        W45139  12.023  11.401   1.127 -0.5595 -0.0157 -0.3525
30009W        W45140   7.668  13.204   3.050 -0.0106  0.0014  0.0967
30010W        W45141  15.996  17.935  13.887  0.1014  0.0745 -0.1762
30011W        W45142  14.939  16.335   3.181 -0.2056  0.1529  0.1231
30012W        W45143   7.049   5.240  10.157  0.1110  0.0465  0.0456
30013W        W45144  11.043   6.350   4.083 -0.0395 -0.1930  0.2481
30014W        W45145   4.848   9.048  12.568 -0.2877  0.0773 -0.4048
30015W        W45146   8.073  18.483  15.575  0.4563  0.1022  0.0250
30016W        W45147   8.813   5.160  14.278  0.0761 -0.0976 -0.2029
30017W        W45148  16.120   3.502   0.921 -0.1720  0.2530 -0.3683
30018W        W45149  16.140  16.918   4.903 -0.1410 -0.0933  0.1333
30019W        W45150  18.519   1.079   5.870  0.1222 -0.0181  0.1341
30020W        W45151  17.294  14.426  13.022  0.0446  0.0310  0.0879
30021W        W45152  17.714  11.676  10.409  0.1287 -0.1567 -0.0337
30022W        W45153   2.354  14.738  12.248 -0.0387  0.1311 -0.0895
30023W        W45154   5.057   4.566  12.354  0.0356  0.1746 -0.0695
30024W        W45155   0.677   0.374   1.162  0.4923 -0.1870 -0.2166
30025W        W45156  14.192   0.385  11.929 -0.1968  0.1055 -0.1416
30026W        W45157   4.889   0.389  13.482 -0.1019  0.3632  0.0401
30027W        W45158   7.827   6.466   4.453 -0.1872  0.0707 -0.1196
30028W        W45159  18.345  10.019  12.877 -0.3208 -0.5319  0.2294
30029W        W45160  18.141   0.429   3.799 -0.4044 -0.2765  0.0014
30030W        W45161  17.647  14.248   1.860  0.1182 -0.0504  0.0646
30031W        W45162   0.643   6.291   4.427 -0.1572  0.0698 -0.0892
30032W        W45163  13.476   7.472   5.620 -0.0148  0.1043 -0.0955
30033W        W45164  13.839  15.369  13.220 -0.2702 -0.4678  0.4656
30034W        W45165  15.744   4.250  13.105  0.0383  0.0556  0.1931
30035W        W45166  17.739  16.751   3.259  0.1755  0.2606 -0.2090
30036W        W45167   2.526   1.230   4.219  0.1652 -0.2758  0.1422
30037W        W45168   4.585  11.231  13.435  0.0618 -0.0966  0.1760
30038W        W45169   7.167  17.396  13.200  0.0316  0.0558 -0.1723
30039W        W45170  14.719   3.518   9.805  0.0034 -0.3617 -0.1511
30040W        W45171  13.970   8.298   3.880  0.0445  0.1472  0.3208
30041W        W45172  12.821   5.503  10.623 -0.3124 -0.2595 -0.0891
30042W        W45173   1.656  11.928   1.484  0.1352  0.1438  0.2105
30043W        W45174  14.337   4.159  11.712 -0.0360 -0.4586  0.0659
30044W        W45175   8.819  10.033  13.810  0.2071 -0.1343 -0.0720
30045W        W45176  15.296   2.376   1.338  0.0995  0.0586  0.0546
30046W        W45177   9.566   8.871   3.488 -0.1062 -0.2870  0.2973
30047W        W45178  17.993  14.873  12.046 -0.1774 -0.2273  0.0885
30048W        W45179   9.944   5.270   2.488  0.2581 -0.1552  0.1149
30049W        W45180   3.482   5.341   4.442 -0.3612 -0.0529 -0.1998
30050W        W45181  17.189   0.766   2.147  0.0512 -0.3521  0.0264
30051W        W45182   6.811   2.393   1.774  0.4250  0.3759  0.1828
30052W        W45183  14.366  13.729  14.174 -0.0600 -0.0020  0.0105
30053W        W45184   9.778   5.480   5.944 -0.2488 -0.0806  0.1114
30054W        W45185  11.919  13.155   0.961  0.0713 -0.1988  0.1725
30055W        W45186   6.075  13.088   4.698  0.0808  0.4288 -0.0957
30056W        W45187   8.753   6.626  14.826 -0.2575  0.0750  0.1876
30057W        W45188  18.284  13.770   0.346  0.3444 -0.0489 -0.2964
30058W        W45189  14.627   5.082  12.341  0.3084  0.0912 -0.3174
30059W        W45190   4.085  12.089  10.292 -0.0527  0.1338  0.0437
30060W        W45191  13.549   2.166  11.888  0.3234 -0.2754  0.0894
30061W        W45192   3.247   7.861   0.702 -0.0357 -0.2297 -0.0511
30062W        W45193  14.147   9.714  11.155  0.0236  0.2131  0.0643
30063W        W45194   6.854  16.670   0.273  0.1546  0.2600  0.2305
30064W        W45195  10.758  12.411  11.534  0.0865  0.1363 -0.0718
30065W        W45196  16.292  12.495   2.121 -0.0204 -0.1626  0.0692
30066W        W45197  11.133  10.933  11.126 -0.1610 -0.3661 -0.0648
30067W        W45198   5.837  10.714   0.586  0.1130  0.1836 -0.1193
30068W        W45199   8.310   8.903   5.692  0.2155  0.0892  0.3712
30069W        W45200   4.517   1.900   0.953 -0.1196 -0.2033 -0.0329
30070W        W45201   6.996  17.818   1.742 -0.0347  0.2167  0.0048
30071W        W45202  11.917   3.310  14.813 -0.2949  0.2564 -0.0461
30072W        W45203  11.380  14.015  14.274 -0.1144  0.1248  0.2341
30073W        W45204   5.102  16.087   3.962  0.2704  0.1713  0.1376
30074W        W45205   0.040  17.371   2.629 -0.2245  0.0508 -0.2113
30075W        W45206   3.899  15.663   4.920  0.3000  0.0193  0.0328
30076W        W45207  13.732   5.602  12.877  0.0667  0.1714 -0.1020
30077W        W45208   0.132   9.615   1.352  0.0297 -0.0339 -0.1626
30078W        W45209   0.853  13.354   3.307 -0.1154 -0.2967 -0.2856
30079W        W45210  14.806   5.924   3.478 -0.0685  0.2047  0.0375
30080W        W45211   0.412   6.398  13.355 -0.3737 -0.0342 -0.1951
30081W        W45212  12.009   8.647  12.321  0.2801  0.0936 -0.0867
30082W        W45213   0.163   0.391  14.528  0.0384 -0.4386 -0.2708
30083W        W45214   0.754   0.310   4.337 -0.0154  0.2009  0.0837
30084W        W45215  12.738  13.281   0.553  0.1385  0.2522  0.1996
30085W        W45216   4.281  14.355   4.967 -0.2249  0.3637  0.1104
30086W        W45217  13.142   4.476   2.806  0.1670  0.0258 -0.0108
30087W        W45218  10.858  16.642   2.868  0.3179  0.3206 -0.2019
30088W        W45219  10.720  14.399   5.354  0.1434  0.1527  0.0015
30089W        W45220  14.682  15.726  15.469  0.4594  0.0746  0.0437
30090W        W45221  13.420  11.248   3.613 -0.0298 -0.1102  0.2318
30091W        W45222   1.051  16.083  11.917  0.0424 -0.2455  0.1358
30092W        W45223   8.711   8.753  14.628  0.2073  0.1740 -0.0573
30093W        W45224  13.124   8.122   4.303 -0.2874 -0.1797  0.3015
30094W        W45225  12.668  14.897  12.865  0.0974  0.4438  0.0536
30095W        W45226   3.782   8.880  15.092  0.0677 -0.1248 -0.1181
30096W        W45227   0.455   2.626   0.729  0.0960  0.1728  0.0957
30097W        W45228   5.703  10.223   5.372  0.1529 -0.0938  0.0296
30098W        W45229  12.415  11.049   5.353 -0.0668 -0.1769 -0.1299
30099W        W45230   1.840   6.462  10.277  0.0940 -0.1530  0.1409
30100W        W45231  18.562   8.543   2.226  0.2925  0.0466  0.1519
30101W        W45232   0.189   8.900   3.363  0.1690 -0.0386 -0.2267
30102W        W45233   8.240  12.775   4.062  0.1038  0.0602  0.0133
30103W        W45234  17.963  11.436  15.241 -0.1937 -0.0474  0.0801
30104W        W45235  14.748   3.986  11.002  0.0793  0.1361  0.0343
30105W        W45236  12.419  11.707  12.262 -0.0188 -0.0537 -0.0330
30106W        W45237   7.544  18.366  15.410  0.0494  0.1035  0.0846
30107W        W45238   3.873  14.333  13.907 -0.0704 -0.4556 -0.2567
30108W        W45239   5.102   6.124   3.489 -0.2726  0.1853  0.0873
30109W        W45240  14.842   4.242   2.555 -0.1270 -0.1931 -0.0255
30110W        W45241   2.372  15.956   5.490  0.2840 -0.0606  0.1283
30111W        W45242  17.220  13.703  15.489  0.2436 -0.0320 -0.0403
30112W        W45243  15.176  13.092  13.820  0.1698  0.3735 -0.0610
30113W        W45244   6.734   1.394   2.742 -0.0548  0.1251 -0.0928
30114W        W45245   6.598   6.067   4.432 -0.1423  0.0881 -0.0365
30115W        W45246  11.359  11.652   3.320  0.4071 -0.1763 -0.2706
30116W        W45247   9.665   1.261  12.641  0.2366  0.1582  0.1265
30117W        W45248   0.855  10.115   5.234 -0.0810  0.2775  0.1174
30118W        W45249   9.282  18.494  15.062 -0.0517  0.2797 -0.1116
30119W        W45250  15.350   0.452  12.270  0.1599 -0.2602 -0.0698
30120W        W45251  18.260  11.447  11.418 -0.2505 -0.3104  0.2486
30121W        W45252   8.673   7.348   3.517  0.1167  0.0047  0.1842
30122W        W45253   9.464  10.759   0.329 -0.1120 -0.0829 -0.2676
30123W        W45254   1.315   2.789   2.428  0.0989 -0.0180 -0.1065
30124W        W45255  14.655   5.287  14.758 -0.0268  0.0314 -0.1455
30125W        W45256   5.262   8.823  13.725  0.0930 -0.3072  0.3170
30126W        W45257   6.166   1.236   2.746  0.1840  0.1605  0.0310
30127W        W45258   4.889   1.438  13.993  0.1975 -0.1102 -0.0919
30128W        W45259   2.355  11.083  11.674  0.2622 -0.0193  0.1298
30129W        W45260  18.531  14.141  11.008  0.0033  0.0424 -0.3606
30130W        W45261  10.430  14.910  14.465 -0.3981 -0.1579 -0.1825
30131W        W45262  16.095   0.147  15.175  0.0805  0.0063  0.3908
30132W        W45263  13.739   1.166  10.701 -0.2396  0.0262  0.0917
30133W        W45264  15.440   9.083   2.249 -0.1460  0.2710 -0.2928
30134W        W45265   2.006  14.361   2.175 -0.1759 -0.1111  0.3307
30135W        W45266  18.515   6.859   4.062 -0.0779 -0.0251  0.1029
30136W        W45267  16.512  16.848   4.004  0.1496  0.0207 -0.1125
30137W        W45268   2.810  10.079   4.791 -0.2185 -0.3178 -0.1036
30138W        W45269  14.729   6.515   5.792 -0.0434 -0.1070  0.0551
30139W        W45270  14.990   6.094   1.491 -0.1810 -0.1472 -0.4064
30140W        W45271  16.647  13.306   3.666 -0.2711 -0.0025 -0.2684
30141W        W45272   9.929   3.635  10.807  0.2227  0.1023 -0.0984
30142W        W45273  17.736   7.098  10.187  0.0018  0.0580 -0.2393
30143W        W45274   7.590  15.726  15.585  0.2644  0.1914  0.2368
30144W        W45275  11.694  17.271   1.973  0.0103 -0.1118  0.2144
30145W        W45276   1.315   1.317  10.666  0.1981  0.1914  0.3630
30146W        W45277  16.670   6.180  12.329 -0.1839 -0.3091 -0.0864
30147W        W45278  17.889  11.408  12.749  0.2673  0.4156  0.3253
30148W        W45279  15.328   5.596  12.575  0.0149  0.1722 -0.0535
30149W        W45280   2.114  16.892   2.065  0.0833 -0.1259  0.0298
30150W        W45281  18.119  18.075  11.545  0.0239 -0.1712  0.0151
30151W        W45282   7.395   2.540  11.488 -0.1625 -0.1568  0.0408
30152W        W45283   2.815  14.772   2.258 -0.2175  0.1231  0.0459
30153W        W45284   4.707   1.110   4.092 -0.0388 -0.3647 -0.2609
30154W        W45285  12.063   6.691   2.632 -0.2590 -0.1767 -0.0112
30155W        W45286  16.138  13.076   2.645 -0.2866  0.2909 -0.2202
30156W        W45287   6.605  15.599  12.359  0.0032  0.2707 -0.3280
30157W        W45288   5.045   5.466  13.480 -0.1097  0.1910 -0.3035
30158W        W45289   1.868   3.839  15.055 -0.0303  0.1192 -0.1751
30159W        W45290   1.116  15.462   5.379 -0.2853  0.0494  0.0627
30160W        W45291   9.187  18.443   3.820 -0.1458 -0.0227 -0.3108
30161W        W45292  10.840  17.910  12.889  0.2977  0.3700 -0.0714
30162W        W45293  12.965   8.767  15.326 -0.1742 -0.2672  0.2513
30163W        W45294   1.621   9.670  10.436 -0.2520 -0.0169 -0.1418
30164W        W45295  11.999   8.229  12.609  0.5351 -0.0166  0.0387
30165W        W45296  12.552   1.871  12.330 -0.3211  0.0539 -0.1008
30166W        W45297   8.592   1.328   3.110 -0.1660  0.0594  0.1311
30167W        W45298   2.698  17.715  15.060 -0.0558 -0.0846  0.2979
30168W        W45299  18.589  16.754   1.122  0.2126 -0.0410 -0.0851
30169W        W45300   4.104   7.120   1.893  0.3530  0.0746  0.1473
30170W        W45301   8.238  17.341   5.586 -0.2625  0.2790 -0.2979
30171W        W45302  14.954   9.465   0.615  0.1138  0.1256 -0.0715
30172W        W45303   9.002  14.833  14.452  0.2515 -0.0257  0.2360
30173W        W45304  15.078  11.532   4.973 -0.0838 -0.1588 -0.0669
30174W        W45305   4.522   3.912   3.806 -0.0229 -0.0039  0.0958
30175W        W45306   0.431   0.281  11.985  0.4391 -0.0968 -0.0014
30176W        W45307   7.139   0.617   1.931 -0.2067  0.0912  0.1169
30177W        W45308  14.649  14.002  12.238 -0.1697  0.1434  0.1428
30178W        W45309   3.983   2.712   1.797 -0.3713  0.0526 -0.2439
30179W        W45310   1.959   2.859  12.374 -0.0313  0.2123 -0.1396
30180W        W45311   8.471  16.976  11.945  0.1287  0.0570  0.2591
30181W        W45312  14.670   2.004   0.564 -0.3577 -0.0092  0.1128
30182W        W45313   1.720  11.797   0.230 -0.1640  0.3929 -0.1742
30183W        W45314  15.856   1.201  11.637  0.3010 -0.3174 -0.2305
30184W        W45315  18.196  18.609  13.538 -0.0295  0.0931 -0.1678
30185W        W45316  14.119   2.219   2.566  0.0283  0.1965 -0.1363
30186W        W45317   7.777   1.317   3.600  0.2858 -0.0681 -0.0006
30187W        W45318   7.787   6.056   4.030 -0.0464 -0.2377  0.1828
30188W        W45319  10.856  16.529  13.669  0.1112 -0.0182 -0.2913
30189W        W45320   3.691  12.826   4.661 -0.1279  0.0693 -0.2112
30190W        W45321   0.081  11.918  11.248 -0.3492  0.5120  0.0226
30191W        W45322   2.104  10.045   3.907 -0.0002 -0.0489 -0.1265
30192W        W45323   9.474  11.338  13.509  0.1383 -0.1077  0.3109
30193W        W45324  16.533  16.842  15.329 -0.1157 -0.1852  0.2787
30194W        W45325  16.938   4.361  14.285 -0.3569  0.4552  0.4697
30195W        W45326   7.195  10.036  15.547 -0.0540 -0.0977 -0.2260
30196W        W45327   6.413  18.054   0.272  0.0115 -0.0716 -0.1398
30197W        W45328   9.867   9.504   5.770  0.2875  0.0281  0.0782
30198W        W45329   7.020   3.850   0.628  0.3486 -0.0983 -0.2332
30199W        W45330   2.896  14.433   5.665 -0.2213  0.2921  0.1085
30200W        W45331  10.206   7.355  11.560 -0.0531 -0.0271 -0.1898
30201W        W45332   8.044   4.178   9.760  0.1081 -0.0921  0.2039
30202W        W45333  14.812  10.140   5.229 -0.0338 -0.1151 -0.2482
30203W        W45334   9.524  17.780  15.644 -0.2418  0.2663  0.1166
30204W        W45335  14.238   3.287   3.252 -0.1260 -0.2884  0.1704
30205W        W45336  15.609   4.535  12.146  0.1048  0.0692 -0.1106
30206W        W45337  17.398  14.682   1.578  0.0384  0.0949 -0.4183
30207W        W45338   7.966  16.890   3.303 -0.0881  0.0499 -0.4852
30208W        W45339   5.529   3.196   0.453  0.1795  0.2389  0.0073
30209W        W45340  13.419   2.147  14.928  0.3243 -0.0381  0.0691
30210W        W45341   0.968  15.302  13.895  0.3691 -0.0677  0.3893
30211W        W45342   8.635  18.429   5.345 -0.2357 -0.0190  0.0132
30212W        W45343   6.208  12.849  15.186 -0.0343  0.1243 -0.1803
30213W        W45344  15.994   2.980   4.210 -0.0909  0.1055  0.1136
30214W        W45345   1.438  12.054   0.946  0.1335 -0.1676  0.1714
30215W        W45346   7.398  12.448   3.564  0.2435  0.0245  0.0631
30216W        W45347  14.200   7.137   4.647  0.0017 -0.0506  0.0347
30217W        W45348   2.685  14.460   0.851 -0.2130 -0.0827  0.2617
30218W        W45349  17.182   9.026  12.494 -0.1443  0.0580 -0.1678
30219W        W45350  15.353  16.029   0.219 -0.1394  0.1274  0.0808
30220W        W45351   5.230  16.383   3.306 -0.0101 -0.0804 -0.0329
30221W        W45352   6.531   4.995   1.473  0.0506  0.1913  0.2021
30222W        W45353   2.774  16.686   3.376  0.1770  0.3006  0.1805
30223W        W45354   5.882   6.662  14.269 -0.1360  0.0345  0.3296
30224W        W45355   5.078  13.126   3.352  0.1669  0.1530  0.0761
30225W        W45356   3.146  11.504  13.496 -0.0241 -0.1491 -0.2565
30226W        W45357  15.039  11.984   2.406 -0.0951  0.0134 -0.0156
30227W        W45358  17.251   7.562  12.248 -0.1700 -0.1481  0.1087
30228W        W45359   4.402   1.044   2.066 -0.2527  0.0786 -0.0658
30229W        W45360   0.560  10.679   0.020  0.1074  0.0775  0.1207
30230W        W45361   5.929   5.828  11.792  0.3319  0.2342 -0.0057
30231W        W45362   4.391   0.900  12.203 -0.0910 -0.2677 -0.2609
30232W        W45363   4.258  16.868  15.754  0.2516 -0.3246  0.0413
30233W        W45364   8.651  11.166   0.539 -0.0244 -0.1111 -0.1070
30234W        W45365  11.193   5.000   5.129  0.3550 -0.0880 -0.2486
30235W        W45366  15.124   3.880  11.489 -0.0561  0.0486  0.6940
30236W        W45367   3.774  17.835  15.665 -0.0643  0.2437 -0.2407
30237W        W45368  17.705  17.047   4.284  0.0202  0.1132  0.0218
30238W        W45369   4.973  13.052  14.580 -0.2201 -0.0297  0.1425
30239W        W45370   7.626  14.360  10.918  0.1518 -0.2401 -0.0530
30240W        W45371   7.722  14.932  14.264  0.2004 -0.0847 -0.0484
30241W        W45372  16.735   1.640  10.705 -0.3449  0.0653  0.0863
30242W        W45373  16.864   6.980  15.022  0.1397 -0.1575 -0.2700
30243W        W45374  10.683  15.269  12.229 -0.1606  0.0322 -0.2001
30244W        W45375  17.744  11.995   0.107 -0.1213 -0.1953  0.1242
30245W        W45376  17.263  14.499  15.759  0.0713 -0.0320 -0.1041
30246W        W45377   3.946   6.716  10.376  0.0248 -0.2430 -0.0722
30247W        W45378  16.997   3.097   2.647  0.0344 -0.1645 -0.3250
30248W        W45379   5.304   1.365  12.637  0.3540 -0.3428  0.0711
30249W        W45380   9.506  11.570   0.685 -0.1443 -0.3596 -0.0332
30250W        W45381  10.868  17.205  14.885  0.4606 -0.0868  0.0483
30251W        W45382  14.991   6.867   5.070  0.1129  0.4900  0.0848
30252W        W45383  15.908  10.019  12.159 -0.0875  0.0646  0.0891
30253W        W45384   0.016   9.170   0.777  0.0374  0.5294 -0.2589
30254W        W45385  17.751   2.142   2.225 -0.0336  0.1578 -0.0330
30255W        W45386  14.663  13.787  12.692  0.0198  0.1689 -0.1822
30256W        W45387  11.144  11.181   3.152  0.3550  0.0629  0.2091
30257W        W45388   2.104   7.917   9.780 -0.1816 -0.1422 -0.3208
30258W        W45389  15.656   2.554   1.640 -0.1733 -0.1125  0.0562
30259W        W45390   6.944   3.139  14.650  0.4919  0.0986 -0.0882
30260W        W45391  17.158  14.741   4.436  0.2864 -0.3114  0.0111
30261W        W45392  13.948   3.632  12.870 -0.2670 -0.3601 -0.0823
30262W        W45393   6.723   6.676   5.284 -0.0407 -0.1002 -0.1986
30263W        W45394   1.882   4.332   3.759  0.0857 -0.1294  0.0809
30264W        W45395  12.969   8.896   0.119 -0.2920 -0.5233  0.1593
30265W        W45396   7.267   5.095   4.803 -0.2888  0.0461  0.2706
30266W        W45397  13.936  10.953   4.383 -0.0735  0.2209  0.0328
30267W        W45398  10.158  13.847  15.606 -0.0654  0.4648  0.1444
30268W        W45399  12.333  11.858   1.017  0.0894 -0.1716 -0.0393
30269W        W45400  11.224  13.004   0.270  0.0985 -0.0729 -0.0642
30270W        W45401  10.063   8.826  11.247  0.0085  0.0117  0.1021
30271W        W45402  18.603  11.548   2.340 -0.1524 -0.1471 -0.0980
30272W        W45403  17.487  17.114  13.714 -0.2417  0.0047 -0.2786
30273W        W45404   9.902   3.053  13.257  0.1022 -0.0821  0.1339
30274W        W45405   9.565  18.633  12.453  0.2013  0.1564  0.0672
30275W        W45406   7.620  14.372  15.321 -0.1260 -0.1971 -0.0540
30276W        W45407   2.172   8.875   0.153  0.3857  0.1136 -0.1003
30277W        W45408  12.626   1.956  15.536 -0.2120 -0.1822  0.0301
30278W        W45409  17.868   6.774  13.318  0.2751  0.2107 -0.1963
30279W        W45410   4.475  12.039   3.090  0.1576  0.1954  0.1270
30280W        W45411  13.137  12.361  12.390 -0.2027 -0.1689 -0.1065
30281W        W45412   4.512  10.339   5.917  0.0519 -0.3799 -0.1846
30282W        W45413   8.193   5.846   5.201 -0.5104 -0.2397  0.2326
30283W        W45414   8.395  18.371   0.271  0.0378 -0.0628  0.3409
30284W        W45415  10.599  11.789   5.406  0.4775 -0.0503  0.0551
30285W        W45416   4.277   3.693   4.357 -0.3103 -0.2189  0.1909
30286W        W45417   1.731   2.614   4.158  0.3031 -0.0097  0.2151
30287W        W45418  13.375   9.099  14.429 -0.3085  0.1399  0.1172
30288W        W45419  12.354  13.204   4.587 -0.1822 -0.0572  0.4403
30289W        W45420   2.133  17.703  13.570 -0.0888  0.3260 -0.3815
30290W        W45421  12.062   4.373  13.373  0.0492  0.1898  0.1048
30291W        W45422   6.863  11.446   0.228 -0.0247  0.0221 -0.1048
30292W        W45423  11.075   2.763   3.017  0.0296  0.0797  0.1350
30293W        W45424  13.974  11.759  10.395  0.1230  0.0895  0.5653
30294W        W45425  13.680   8.470  15.447  0.1438 -0.1567 -0.1819
30295W        W45426   5.478  17.478  10.292  0.1972 -0.1149  0.1904
30296W        W45427   1.696  17.498   0.262 -0.1851  0.3067 -0.1023
30297W        W45428   6.139   2.279  11.866 -0.1484  0.0650 -0.4140
30298W        W45429  16.988   8.439   3.336  0.1117  0.2406 -0.2389
30299W        W45430  10.415   6.544  11.997  0.1323 -0.0233  0.0687
30300W        W45431   2.410  18.148  13.849 -0.1244  0.2002 -0.0558
30301W        W45432  16.339   6.315  11.096  0.4824 -0.2547 -0.1167
30302W        W45433   7.706  12.774  14.400 -0.2850  0.2375 -0.2893
30303W        W45434   2.630   2.324   3.153 -0.0040 -0.0641 -0.2831
30304W        W45435   2.958  14.975   3.327 -0.3184 -0.1387  0.1366
30305W        W45436   6.014  15.507   0.199 -0.0902 -0.2062  0.1329
30306W        W45437   3.115   4.697  14.006 -0.0051 -0.3433 -0.0810
30307W        W45438  16.063  16.998  15.136 -0.3225  0.0179 -0.3849
30308W        W45439  15.580   3.704  12.341 -0.0280  0.0070  0.3838
30309W        W45440   6.086  17.442  11.016  0.0452 -0.1701 -0.1759
30310W        W45441  13.655   2.717   3.936 -0.0524 -0.1565 -0.0114
30311W        W45442   6.401   0.650   0.177 -0.0638 -0.2435  0.1507
30312W        W45443   8.343   5.823   4.210  0.1955 -0.1180  0.6563
30313W        W45444   9.251  17.039  11.758  0.0427 -0.1147 -0.1714
30314W        W45445  18.183  17.754  13.300 -0.2300 -0.1080  0.1351
30315W        W45446   7.913  18.333   4.355 -0.0440 -0.1318 -0.0577
30316W        W45447   0.445  15.262  14.650 -0.0486 -0.1756 -0.0278
30317W        W45448   2.690  15.219  15.445  0.2038  0.3265  0.0470
30318W        W45449  16.880  17.556  12.043 -0.2279  0.1077 -0.1032
30319W        W45450   2.982  13.219   1.113 -0.1680 -0.0811  0.1134
30320W        W45451  15.857  11.037   0.553  0.1507  0.1198 -0.1136
30321W        W45452   0.700  13.289  12.406  0.4682  0.0298 -0.0241
30322W        W45453   3.532   4.167  11.344  0.1779 -0.2133  0.0012
30323W        W45454  15.232   0.947  11.764  0.3431 -0.0355  0.0082
30324W        W45455   1.249   8.633  11.767  0.0978  0.3793  0.0349
30325W        W45456  18.252  17.072   2.064  0.2920 -0.0245  0.3067
30326W        W45457  13.801   2.131   3.147 -0.0584 -0.0287  0.0737
30327W        W45458   7.151   1.890   3.716  0.0434  0.1609  0.1481
30328W        W45459   8.558  13.186   1.380  0.2824  0.2263  0.1974
30329W        W45460  15.006   8.970  15.548 -0.0375  0.1977  0.0768
30330W        W45461  14.645  15.446   0.911  0.0919 -0.3721 -0.1211
30331W        W45462   7.678   0.668   2.141  0.1432  0.0200  0.2001
30332W        W45463  10.893   0.315   4.739 -0.0971 -0.2900  0.2363
30333W        W45464   5.721  10.232   3.654 -0.0350  0.2268 -0.0757
30334W        W45465   3.169  10.378  14.263  0.0135 -0.2656 -0.0977
30335W        W45466  17.911   8.754   4.428  0.2409  0.0396  0.0797
30336W        W45467   5.975   1.551  14.548  0.1627  0.1277 -0.0876
30337W        W45468  14.495   8.017   3.249  0.0121 -0.0612  0.1174
30338W        W45469  16.933  15.939   0.056  0.0216 -0.2449  0.1367
30339W        W45470  16.538   1.706  11.212 -0.3036  0.1749  0.0164
30340W        W45471   1.557   3.407  12.094  0.4261  0.0110 -0.1412
30341W        W45472  17.763  16.030  13.059  0.1520  0.1194 -0.1083
30342W        W45473  18.556  16.303   5.527 -0.2650  0.0955  0.1931
30343W        W45474  16.352   4.532   5.597  0.1543  0.2668  0.1359
30344W        W45475  15.903   3.116  12.969  0.4767 -0.1237 -0.0161
30345W        W45476   4.693   3.688  12.264  0.2676 -0.0216 -0.1937
30346W        W45477  18.053   6.699  14.620 -0.0391  0.3410  0.3485
30347W        W45478  15.380  12.966   2.052 -0.0131  0.1296 -0.2301
30348W        W45479  16.471   4.312  12.349  0.0481 -0.2440  0.0898
30349W        W45480   8.851   3.978   3.417 -0.2634  0.2307  0.2778
30350W        W45481  17.862   4.455  13.148 -0.2611  0.0715  0.2114
30351W        W45482   1.500  10.972  10.202  0.1957 -0.1753  0.2173
30352W        W45483  18.135   0.989   1.687 -0.2864 -0.0078  0.1459
30353W        W45484  11.759  16.086   0.886  0.0227 -0.1393 -0.0815
30354W        W45485  13.003   4.664   1.063  0.1741 -0.2061  0.6003
30355W        W45486   1.873  18.223  12.177  0.0153  0.0185 -0.1878
30356W        W45487  15.819   2.161  13.468  0.0270 -0.1187  0.0219
30357W        W45488   8.434   6.163  15.341 -0.0490  0.1067 -0.0007
30358W        W45489  16.748   4.203  11.072  0.3577  0.0464  0.3748
30359W        W45490   5.310  14.995  12.368 -0.1347  0.1096 -0.1603
30360W        W45491   9.202  17.624  11.008 -0.0956  0.1015 -0.0862
30361W        W45492   0.581  13.266  12.929 -0.0855 -0.2135 -0.1121
30362W        W45493   3.716   7.531   0.435 -0.0652  0.3360  0.1527
30363W        W45494  15.333  15.844   2.761  0.2072  0.0991 -0.0505
30364W        W45495  11.262  11.260  14.643 -0.2031  0.0820  0.1626
30365W        W45496   0.719   8.069  11.315 -0.1008 -0.2439  0.1285
30366W        W45497   1.911  12.119  11.786 -0.5438 -0.2725  0.0586
30367W        W45498  10.658  13.336  11.162  0.1499  0.3926 -0.0812
30368W        W45499   8.596  14.067   4.405 -0.0175  0.0601 -0.1328
30369W        W45500  14.098  11.631   0.909 -0.2147  0.0170 -0.0025
30370W        W45501   7.319  13.579  15.434 -0.0027  0.1534 -0.1190
30371W        W45502   0.855  12.705  11.136  0.2621  0.1011  0.0168
30372W        W45503   0.621  13.855  13.774 -0.0058  0.1880 -0.0414
30373W        W45504  14.447   5.328   0.844  0.2088  0.0914 -0.2156
30374W        W45505   4.104   6.734  14.282 -0.1846  0.1790 -0.2197
30375W        W45506  14.634  15.210   5.469  0.1187 -0.0938  0.1108
30376W        W45507  12.121  12.218  12.941  0.0658 -0.0969  0.3892
30377W        W45508  18.618  17.683  14.252  0.2373 -0.1427  0.0111
30378W        W45509  15.651   0.019   3.048 -0.1442 -0.0899  0.1371
30379W        W45510  17.975   7.095   9.718  0.4068 -0.1023 -0.1087
30380W        W45511   2.184   4.650  14.027 -0.1434 -0.3671  0.0137
30381W        W45512  15.846  15.146  14.557 -0.0870 -0.2048 -0.3792
30382W        W45513  16.954   5.962   1.293  0.0009  0.1226  0.2436
30383W        W45514   5.542  14.200  10.481  0.2640 -0.0280 -0.1099
30384W        W45515   3.060   7.392   2.929  0.0559  0.3423  0.0348
30385W        W45516   5.097  12.051  15.323  0.1979 -0.1393 -0.3080
30386W        W45517   3.975   6.036  15.237 -0.3412 -0.1191 -0.1275
30387W        W45518   9.236   4.655  14.901 -0.0458 -0.1731 -0.0491
30388W        W45519  11.236   8.400   5.878  0.0151 -0.0062  0.1306
30389W        W45520  17.083   4.166  13.422  0.1176 -0.2031 -0.0941
30390W        W45521   6.407   5.890   5.426 -0.1804  0.1326 -0.3667
30391W        W45522   4.613   9.875  12.339 -0.2389  0.4670 -0.0241
30392W        W45523   7.126   5.567  14.168 -0.0644 -0.0106  0.0097
30393W        W45524  12.808   9.753   3.760  0.1468 -0.1148 -0.5495
30394W        W45525  16.212   1.479  12.865 -0.0426  0.0006  0.1559
30395W        W45526   8.392   9.344   3.906 -0.1645 -0.3005  0.0036
30396W        W45527   0.313   8.789  10.717 -0.0039  0.0384  0.2877
30397W        W45528   7.990   8.722   0.760  0.0544 -0.1391  0.1880
30398W        W45529  17.244  11.743   5.103  0.2707  0.0363  0.2680
30399W        W45530  16.276   8.510  10.169  0.2927  0.4569  0.3322
30400W        W45531  12.706   7.922   5.479  0.3159  0.3522 -0.0083
30401W        W45532  10.926   0.295  10.912  0.0289  0.0825  0.1482
30402W        W45533  10.037   6.003  10.383  0.1486  0.1290  0.0814
30403W        W45534  12.270   8.897   2.535  0.0116  0.1566  0.1099
30404W        W45535   5.169   2.745   5.410 -0.3271  0.1950  0.0126
30405W        W45536  16.035   1.629  11.246  0.2410  0.1699 -0.0829
30406W        W45537   9.374  16.527  12.892 -0.1977  0.0841 -0.0415
30407W        W45538   4.804   6.404  14.029  0.1961  0.0126  0.2126
30408W        W45539  13.223   0.604  11.373 -0.1146 -0.0424  0.1658
30409W        W45540   0.088   4.897   1.270 -0.1532 -0.0379  0.2096
30410W        W45541  12.997   3.367  12.101 -0.0590  0.1913  0.1639
30411W        W45542  15.088  16.741   4.580  0.0189  0.1613 -0.1860
30412W        W45543  14.943   9.990   3.963 -0.3636 -0.0080  0.1014
30413W        W45544  15.135   6.012   9.994 -0.0927 -0.0563  0.1553
30414W        W45545   8.503   0.548   0.680  0.0540  0.2652 -0.0103
30415W        W45546   3.846   5.442  12.184 -0.1034 -0.1749  0.4071
30416W        W45547   4.929  18.479  12.122 -0.3461  0.0880 -0.0736
30417W        W45548   0.044  13.396   1.641  0.1597 -0.2842 -0.3717
30418W        W45549  14.731  15.499   5.832  0.2056  0.0821 -0.0804
30419W        W45550  17.677  16.928   4.925 -0.0675 -0.0165 -0.1149
30420W        W45551   2.982   7.270   0.538  0.0104 -0.0224  0.0278
30421W        W45552   2.830  14.507  10.531 -0.2650  0.1063  0.0244
30422W        W45553  15.121  14.938   3.747  0.1198 -0.1799 -0.3315
30423W        W45554  14.087  15.591  14.574 -0.3045  0.0503  0.3099
30424W        W45555   8.934   6.748  14.289  0.0443 -0.2707  0.0272
30425W        W45556   0.029   6.287   0.013 -0.1113 -0.0129  0.2165
30426W        W45557  11.352  18.725  12.685 -0.0782 -0.0472  0.2237
30427W        W45558  14.120  17.809   5.656 -0.1972 -0.1374  0.1121
30428W        W45559   7.586  17.528   2.513  0.2955  0.1978  0.0056
30429W        W45560   4.082  13.308  11.143 -0.2533 -0.1178  0.1999
30430W        W45561  13.629  15.447  13.712  0.1496 -0.2378 -0.0786
30431W        W45562  18.675  10.540   2.620  0.0066  0.1334 -0.2718
30432W        W45563   0.729   4.865   1.101 -0.0521 -0.0723  0.0996
30433W        W45564   3.629   0.860  11.167 -0.0310 -0.1567 -0.2102
30434W        W45565  16.246  12.382  13.154 -0.2317  0.1215  0.0523
30435W        W45566  12.979   3.847   2.712  0.0379  0.0180  0.0148
30436W        W45567   2.632   3.835   2.032 -0.0573 -0.0150 -0.2846
30437W        W45568  18.432  18.102  13.562  0.2689 -0.0740  0.1653
30438W        W45569   9.817   6.606  14.443 -0.2259  0.2408  0.0221
30439W        W45570   1.680   0.303   1.622 -0.0806 -0.1576 -0.1823
30440W        W45571  14.051   1.634  14.482  0.1901 -0.0686 -0.0689
30441W        W45572  11.277   9.110  12.782  0.0049  0.1945 -0.0455
30442W        W45573   3.512   2.490   0.275 -0.1338 -0.0506  0.3775
30443W        W45574   9.711  12.088  12.054  0.3216 -0.1846 -0.1339
30444W        W45575  18.651   6.450  13.271 -0.0308 -0.0453  0.2733
30445W        W45576  13.567  18.158  15.402  0.1281 -0.0930  0.0596
30446W        W45577  17.998  10.289   2.317 -0.0602  0.1849  0.1999
30447W        W45578  10.376   3.879   1.514 -0.1375 -0.2724  0.1664
30448W        W45579  15.493  14.785  11.988  0.0967  0.0831  0.0287
30449W        W45580   0.842   8.038   1.650  0.0138 -0.0090 -0.0915
30450W        W45581  17.229  17.792  12.996 -0.0684 -0.0694  0.2105
30451W        W45582  12.540   6.277  14.836 -0.0824  0.1325  0.2652
30452W        W45583   3.044   5.968   1.045 -0.1802  0.1040  0.5406
30453W        W45584  15.343   4.476   3.326  0.2533 -0.0331 -0.0456
30454W        W45585   5.775  15.481  15.473  0.1497  0.0132  0.1364
30455W        W45586  15.413  13.351   9.906  0.1194 -0.0760 -0.1450
30456W        W45587   5.002   4.908   5.336  0.1551 -0.1784 -0.3300
30457W        W45588   8.079   9.562   4.252  0.0370 -0.1575  0.1294
30458W        W45589  15.077   7.547   3.860  0.0275 -0.1392  0.1254
30459W        W45590  12.154   7.709  15.395 -0.2196  0.0788 -0.0093
30460W        W45591  14.860  13.880   4.053  0.1807 -0.3351  0.2600
30461W        W45592  14.243   1.297   2.102 -0.1796  0.0106  0.0006
30462W        W45593  12.708  12.443  15.471  0.0028 -0.1455 -0.3898
30463W        W45594  14.648   7.932  14.527  0.0399  0.4360  0.2371
30464W        W45595  11.934  16.015  12.195 -0.0348  0.2585  0.1468
30465W        W45596   4.836   8.572  12.794 -0.1316 -0.6195 -0.3430
30466W        W45597  17.383   7.238  11.787  0.2099 -0.1448  0.0549
30467W        W45598   6.148   3.068   2.461 -0.2647 -0.0307 -0.0145
30468W        W45599  12.254  14.545   2.740 -0.3592  0.3612  0.0140
30469W        W45600   1.240   0.608  15.682 -0.0588  0.2536 -0.0383
30470W        W45601  17.002   3.800  14.724  0.2914  0.2134  0.1849
30471W        W45602   0.456   4.281  13.944 -0.1834  0.0048  0.0811
30472W        W45603   4.522   0.339   5.064  0.0033  0.0752  0.0851
30473W        W45604  13.961   7.006   1.496 -0.0439  0.0186 -0.1736
30474W        W45605   1.932  10.391  11.569 -0.0303  0.2232 -0.2674
30475W        W45606   0.151  17.226  10.978 -0.0943  0.3931 -0.0569
30476W        W45607   9.139  18.742  10.068 -0.2861 -0.1003 -0.1318
30477W        W45608  13.565   1.105  12.979 -0.3155 -0.0800 -0.1562
30478W        W45609  11.472  18.126   2.325 -0.1081 -0.3400 -0.3233
30479W        W45610   9.696   0.358  12.596 -0.0683 -0.0259  0.1320
30480W        W45611   8.809   1.757   9.572 -0.0091  0.0951  0.2625
30481W        W45612   7.470   4.804  13.753  0.0047  0.1131  0.3824
30482W        W45613   2.653  15.628  11.992  0.2748 -0.2337 -0.0868
30483W        W45614   0.985  12.647   9.939 -0.0739  0.2809  0.4020
30484W        W45615  18.388   8.531   4.444  0.1052 -0.0623  0.0599
30485W        W45616  17.574  14.186  11.447  0.0132  0.0074  0.0369
30486W        W45617  13.932   7.091   3.269  0.3170 -0.0780 -0.0761
30487W        W45618   9.998  12.491   4.139  0.4643 -0.0465  0.2161
30488W        W45619  11.294   4.745   4.355  0.2701 -0.2337 -0.1024
30489W        W45620  11.568   2.953  14.672  0.0478  0.0870  0.2894
30490W        W45621  16.978  13.587   2.220  0.0712  0.1080 -0.1858
30491W        W45622  13.773  15.921  11.834 -0.1423 -0.5680  0.2355
30492W        W45623  13.785   3.992  10.025 -0.2193 -0.0754  0.2463
30493W        W45624   2.667   2.536   2.710 -0.1123  0.3251  0.0582
30494W        W45625   0.988  16.957   2.555  0.2960 -0.3722 -0.1848
30495W        W45626  10.010   7.403  15.660 -0.0119 -0.1204 -0.1843
30496W        W45627  13.155  16.439   4.012 -0.0028 -0.2633 -0.1375
30497W        W45628  11.811   3.256  13.750 -0.0022  0.2715 -0.1821
30498W        W45629   1.569   8.045  11.803  0.1394  0.2509  0.0299
30499W        W45630  12.357   4.265  15.163 -0.0090 -0.2296 -0.1196
30500W        W45631   4.793   8.717  15.057 -0.2125 -0.4469 -0.1217
30501W        W45632   6.091  11.922  12.214 -0.0949  0.1269 -0.1084
30502W        W45633   9.885   2.067   1.838 -0.0994 -0.3094  0.0353
30503W        W45634   5.028   1.060  10.463  0.0246 -0.3105 -0.0182
30504W        W45635  12.969  12.304  11.863  0.0154 -0.3246  0.1736
30505W        W45636   9.564  18.120   4.603 -0.1146  0.0066 -0.1565
30506W        W45637   7.148   3.719   1.090 -0.0386  0.2248  0.2971
30507W        W45638   4.375  12.896  12.617 -0.0841  0.2047  0.0285
30508W        W45639  14.219   3.822   5.579  0.0466 -0.3538 -0.3835
30509W        W45640   2.130   3.341   1.426  0.2751 -0.0923  0.0387
30510W        W45641   9.430  13.878   0.819 -0.0734 -0.0817 -0.0980
30511W        W45642   2.286   9.652  12.477  0.2479 -0.1791 -0.1367
30512W        W45643   6.454   9.569   1.149  0.1013  0.2454 -0.0980
30513W        W45644  15.212   4.264  13.085 -0.3221  0.3092 -0.0574
30514W        W45645   3.967  17.176   2.483 -0.1941  0.1919 -0.2380
30515W        W45646   9.722   8.803   2.459  0.0734 -0.2492  0.2506
30516W        W45647   8.465   7.489   0.064  0.0810 -0.0052 -0.0322
30517W        W45648   7.312   0.219   2.211  0.1597 -0.1026 -0.0672
30518W        W45649   5.675   4.555   5.621 -0.1863 -0.4735  0.3052
30519W        W45650  16.880  17.164  11.177 -0.1783  0.2738  0.3079
30520W        W45651   9.458   4.597   4.732 -0.1786 -0.0209 -0.1129
30521W        W45652  15.995   4.585   5.212 -0.1296  0.3480 -0.2189
30522W        W45653  12.922   7.580   0.060  0.2766  0.0708 -0.3172
30523W        W45654   3.431  14.270  12.933 -0.1993 -0.3044  0.0259
30524W        W45655   9.312   5.601  12.468 -0.0717 -0.0571  0.0567
30525W        W45656   7.702  10.895  14.772 -0.2818  0.1831  0.3449
30526W        W45657  16.801   1.679   3.500 -0.2086  0.4494  0.0391
30527W        W45658  13.898   5.985   4.480  0.0535  0.2700 -0.1594
30528W        W45659   9.531  13.455   6.498  0.0790  0.4011  0.2423
30529W        W45660  18.077   2.705  11.222 -0.2826  0.2368  0.1584
30530W        W45661   4.888  17.243   2.336 -0.1068 -0.1898  0.1949
30531W        W45662   4.180   7.027  10.823 -0.2190 -0.1114  0.3407
30532W        W45663  10.315   4.163  13.855 -0.1174 -0.1444  0.0083
30533W        W45664   6.557  15.662   4.041 -0.1463  0.0652 -0.0533
30534W        W45665   8.660   5.653   3.303  0.3202  0.1045  0.0207
30535W        W45666   5.562   6.576   0.931  0.1941  0.0255 -0.1560
30536W        W45667   4.390   0.233   0.702 -0.1651 -0.1223 -0.0156
30537W        W45668   9.135   7.716   1.782 -0.2580 -0.0227 -0.0662
30538W        W45669   7.072   5.907   2.314  0.0151  0.1650  0.0441
30539W        W45670   5.108  13.233   4.610  0.1373 -0.1291 -0.0411
30540W        W45671   5.676   1.358  14.188  0.0780 -0.1135 -0.0593
30541W        W45672   7.177  14.408   4.011  0.1051 -0.2703  0.4101
30542W        W45673   0.360   3.847   0.892  0.0307 -0.1543 -0.0871
30543W        W45674   3.449  12.391   0.989 -0.0920 -0.3150  0.1861
30544W        W45675   3.553   6.926  13.593 -0.1861 -0.0719 -0.2945
30545W        W45676   3.220   2.277  13.418  0.0795  0.0133  0.0905
30546W        W45677  12.093   7.813   1.769  0.0810  0.1806 -0.1242
30547W        W45678   6.276   0.745   2.866  0.2035 -0.0945 -0.1350
30548W        W45679  13.349   8.200  14.616 -0.0473  0.1224  0.1587
30549W        W45680   6.081  11.095   2.323 -0.1234  0.0293 -0.3572
30550W        W45681   8.404  17.039   2.220 -0.0590 -0.4127 -0.0516
30551W        W45682   9.373   3.383   3.908  0.2343 -0.0353  0.0300
30552W        W45683   7.674  18.259   1.276  0.1489 -0.0803 -0.1149
30553W        W45684  18.171   7.483   3.540 -0.0536 -0.0811  0.1111
30554W        W45685   3.378   9.944   2.849  0.1542 -0.1187 -0.0680
30555W        W45686   1.727  14.656  14.267  0.0674 -0.4486  0.1553
30556W        W45687  11.860   2.652  15.630 -0.3241  0.2054  0.1903
30557W        W45688   9.432   5.350   0.214 -0.1393  0.1596 -0.3023
30558W        W45689   9.379  16.168   0.246 -0.2347  0.2517  0.2774
30559W        W45690  14.668  15.849  13.022  0.2864  0.2101  0.0154
30560W        W45691  11.163  16.284   2.494  0.1148  0.0486 -0.0952
30561W        W45692  15.740   8.677   2.026  0.0163 -0.2331 -0.1937
30562W        W45693   4.856   6.619  10.465 -0.2047 -0.1241 -0.0021
30563W        W45694  15.949  11.397   1.131 -0.0450 -0.0988 -0.1215
30564W        W45695  10.390   3.473  10.840 -0.0186 -0.1671 -0.0758
30565W        W45696   6.279  13.423   9.989 -0.1320  0.4981 -0.0437
30566W        W45697   4.391   9.650   4.361 -0.0297  0.0194  0.0398
30567W        W45698   3.979   3.582   3.937  0.3856 -0.0637  0.0320
30568W        W45699  18.032   9.218   1.366  0.0359  0.0382 -0.1210
30569W        W45700   8.265   3.707  14.892 -0.0544  0.3969  0.0223
30570W        W45701   9.183   8.204   6.114  0.1446  0.2333 -0.1586
30571W        W45702   0.215   7.723   4.249 -0.0087 -0.1146 -0.2086
30572W        W45703  11.131  11.493   0.683  0.3192  0.3084 -0.2146
30573W        W45704  16.840  16.228   5.444  0.1711 -0.0639 -0.2364
30574W        W45705  14.924   7.516  14.261 -0.0416 -0.1075  0.2547
30575W        W45706   4.670   4.834  11.320  0.2218  0.3833 -0.2282
30576W        W45707   9.149   7.921   0.715  0.0824  0.1498  0.1679
30577W        W45708   0.720  18.137   2.931  0.2479  0.1397 -0.0426
30578W        W45709   7.486  11.467  15.474 -0.0538  0.1180 -0.1289
30579W        W45710  12.267  12.180  14.302  0.2682 -0.2028 -0.0088
30580W        W45711  17.869   0.207  11.797 -0.1481 -0.1378 -0.0225
30581W        W45712   8.826   8.818  10.746  0.0930 -0.0323 -0.0884
30582W        W45713   0.627  11.951   2.975 -0.4381  0.0303 -0.2520
30583W        W45714  17.258  10.367  12.051  0.1778  0.1250  0.0561
30584W        W45715   6.795   0.581   0.456  0.2089 -0.0072 -0.2622
30585W        W45716   2.151  16.561  15.765  0.3142 -0.0242  0.0136
30586W        W45717  17.729   7.529  13.563  0.1834 -0.3982 -0.4753
30587W        W45718  11.661  17.075  10.927 -0.1544 -0.2650 -0.3217
30588W        W45719  16.625  11.376  13.185  0.1945 -0.0703 -0.1454
30589W        W45720   1.138   8.504  14.946  0.1854 -0.1907 -0.2274
30590W        W45721  12.415   9.709   2.822 -0.1617 -0.5369 -0.0765
30591W        W45722   8.075  16.627   5.304 -0.1706  0.0659 -0.0785
30592W        W45723   9.915   8.866   5.337  0.1129  0.0765 -0.1783
30593W        W45724  18.061   6.028   1.379  0.5381  0.2454 -0.0871
30594W        W45725  15.600  11.998  10.493  0.3188 -0.0583 -0.0591
30595W        W45726   5.716   4.205   4.445  0.1575 -0.0798  0.1558
30596W        W45727  18.707  16.302   0.861  0.0769  0.0662  0.1295
30597W        W45728   4.746  16.906   0.755 -0.0222 -0.0821 -0.0255
30598W        W45729  14.688   1.614  13.020  0.1282  0.0164 -0.0931
30599W        W45730  13.882  17.713  10.611  0.1382  0.4305 -0.0341
30600W        W45731  15.018   3.641   6.105  0.1869  0.2240 -0.1038
30601W        W45732   8.460  10.267   0.303  0.0112 -0.2093 -0.0520
30602W        W45733  17.859   3.161  11.406 -0.0907  0.4045 -0.1945
30603W        W45734  12.399   0.891   3.149  0.1423  0.3335 -0.1530
30604W        W45735   5.253  15.694   4.242 -0.1049 -0.0649  0.0275
30605W        W45736   9.928   9.423   5.231  0.1430 -0.1620  0.4200
30606W        W45737   2.886  15.053   4.529 -0.0068  0.0622 -0.0928
30607W        W45738   4.746  18.655   3.239 -0.2755  0.1595  0.0055
30608W        W45739  17.099   7.555  13.219  0.3650 -0.0261  0.1639
30609W        W45740  16.612   1.764  12.149  0.0549 -0.0240  0.0249
30610W        W45741  10.410   3.279   3.984  0.0812  0.0724  0.1845
30611W        W45742   3.684   1.589   9.554 -0.1192  0.0241  0.1863
30612W        W45743  10.653  10.088  11.782 -0.0215 -0.0394  0.1074
30613W        W45744  14.488  17.275   6.674 -0.0196  0.2012 -0.1747
30614W        W45745   8.132   0.277  12.815  0.0164  0.0275 -0.0887
30615W        W45746   2.675   9.317  12.510  0.0196 -0.1518  0.0623
30616W        W45747   8.082   1.685  10.819 -0.1771 -0.0936  0.0806
30617W        W45748   4.711   0.667  10.654  0.0705  0.3316 -0.2356
30618W        W45749   2.485  16.869  10.139  0.3606  0.1094 -0.3497
30619W        W45750   0.871  13.761   1.003 -0.0558  0.0700 -0.1939
30620W        W45751   7.293  13.178  14.456 -0.0765 -0.1256 -0.1832
30621W        W45752   6.106  12.362  15.376 -0.1838  0.0643  0.1084
30622W        W45753   1.036  16.443   3.351 -0.1064  0.0054 -0.4306
30623W        W45754  16.054  10.140   3.944  0.2513 -0.0526  0.1620
30624W        W45755  15.598  12.733   4.371  0.4402  0.1124 -0.0833
30625W        W45756  16.854   1.393   3.082 -0.1664 -0.0546 -0.0612
30626W        W45757  14.418  16.241  13.266 -0.0916 -0.0526  0.1254
30627W        W45758  12.712  17.006   3.078 -0.1571  0.0706  0.3258
30628W        W45759   9.017   7.113  14.973 -0.0158  0.2086 -0.0346
30629W        W45760  18.277   5.733  13.290 -0.3742 -0.1690 -0.0784
30630W        W45761  15.590   7.324   3.633 -0.0111  0.1098 -0.1825
30631W        W45762   2.258  14.282  10.062 -0.1661  0.0734  0.1076
30632W        W45763   5.373   8.483   6.038 -0.1146  0.3467 -0.1703
30633W        W45764  18.137  15.379   3.531  0.2286  0.2577 -0.1051
30634W        W45765   7.648   4.327  11.718 -0.3384  0.0669  0.0325
30635W        W45766  17.530   3.836   0.545  0.0113 -0.2037  0.1928
30636W        W45767   0.449  11.967   0.674 -0.0252  0.4862 -0.0154
30637W        W45768   0.118   5.756  10.824 -0.2723 -0.0064 -0.0369
30638W        W45769   7.279   1.148  14.714 -0.1409  0.1137 -0.4764
30639W        W45770   4.723   8.028  10.132  0.1478 -0.1751  0.2143
30640W        W45771   5.806   5.910   5.369  0.1042  0.0062 -0.0563
30641W        W45772  11.312  13.820  10.374 -0.1644  0.3523 -0.1569
30642W        W45773  13.651  11.885   0.614  0.1008 -0.3420  0.0205
30643W        W45774   2.201  11.986   1.716 -0.2222 -0.0616 -0.0292
30644W        W45775  18.556  12.532   4.333 -0.0335  0.0302 -0.1943
30645W        W45776   8.824   8.755  15.709 -0.2278 -0.0604  0.1446
30646W        W45777  11.208   1.908   3.845  0.0517 -0.2146  0.1534
30647W        W45778   1.394   7.249   3.460  0.0691 -0.1377 -0.0099
30648W        W45779   2.578   3.123  11.133  0.2004  0.0154 -0.0452
30649W        W45780   6.433   7.963  14.441 -0.1575  0.4490 -0.0642
30650W        W45781   1.268   1.043  12.420 -0.1197  0.0534 -0.1314
30651W        W45782  11.212   2.115   2.582 -0.1658  0.0027  0.5133
30652W        W45783   5.248  17.746   1.691 -0.3897 -0.1325 -0.0755
30653W        W45784   3.274   6.931   4.234  0.0437  0.2182  0.0242
30654W        W45785   9.627  13.152  10.635 -0.4030  0.1721  0.1303
30655W        W45786  15.480  18.428   5.257  0.0522 -0.1177 -0.1028
30656W        W45787  12.188   2.255   2.845 -0.0297  0.1175  0.1692
30657W        W45788  15.412   8.286  12.570  0.3161  0.0351 -0.1213
30658W        W45789   3.349  16.750  14.370  0.1559 -0.1771  0.3814
30659W        W45790   9.037  14.043   2.154 -0.1411  0.2133 -0.0731
30660W        W45791  13.012   7.709  12.813 -0.0368  0.1157 -0.1460
30661W        W45792   3.045  15.067  10.306  0.1149 -0.1504  0.2007
30662W        W45793  12.415  13.033  11.547  0.1212 -0.3091 -0.0073
30663W        W45794   0.755   3.523  14.345  0.2778  0.2152  0.2108
30664W        W45795  17.977   0.387  12.451  0.0681 -0.6202  0.0252
30665W        W45796  10.633   3.200   0.897  0.2125 -0.4336  0.1024
30666W        W45797   8.816   9.445   3.693  0.2772  0.0425 -0.0446
30667W        W45798   5.115   2.125  14.532  0.1157 -0.4032  0.1243
30668W        W45799   3.009  12.223   0.388  0.4588 -0.3128  0.1406
30669W        W45800  13.206   4.255  13.007 -0.2817 -0.0225 -0.1804
30670W        W45801   1.393  11.468  10.387 -0.2866 -0.2005  0.0241
30671W        W45802  10.852  18.704   1.299 -0.0567  0.2179 -0.0265
30672W        W45803   9.083   5.204  13.483 -0.4852 -0.0152 -0.0948
30673W        W45804   8.851   5.676   2.058 -0.0217 -0.0877 -0.0574
30674W        W45805  11.883  12.301   4.619  0.0240  0.0226 -0.3284
30675W        W45806  14.523  15.853   5.563  0.2291 -0.0401  0.3024
30676W        W45807   2.015  10.423   1.303  0.0013 -0.2692 -0.0731
30677W        W45808  11.584  16.045  12.971  0.1955 -0.2615 -0.1336
30678W        W45809  11.796   3.575  11.008 -0.0026 -0.0298  0.6268
30679W        W45810  11.519   2.680  12.238  0.2663  0.4768 -0.0088
30680W        W45811   3.746  10.042   4.833 -0.0934 -0.1266 -0.2949
30681W        W45812   2.578  10.509  12.240  0.0809  0.0297 -0.1457
30682W        W45813   4.805  17.198   3.711 -0.0326 -0.2580 -0.0462
30683W        W45814  18.493   0.264   5.460  0.0526 -0.2930 -0.2162
30684W        W45815   5.827  12.948  15.627  0.6531  0.1307  0.3120
30685W        W45816   4.047   6.882   4.597  0.2800  0.0469 -0.3196
30686W        W45817  13.907  10.999   1.621  0.2354  0.4098  0.1656
30687W        W45818  15.527   2.756   2.101  0.1495  0.2645 -0.0864
30688W        W45819  14.204  13.973   1.856 -0.2863  0.0267  0.0588
30689W        W45820   3.308   1.693  15.403  0.0414 -0.3100 -0.4162
30690W        W45821  17.540   0.368  12.973 -0.0438  0.0829 -0.2599
30691W        W45822   7.437  11.666   1.399  0.1270  0.1878  0.3089
30692W        W45823  16.182   9.272   2.689  0.1149  0.2524 -0.3087
30693W        W45824  15.417   7.100  10.506  0.1125  0.0941  0.0116
30694W        W45825  13.909   1.209   2.439  0.2181 -0.3049  0.1447
30695W        W45826   7.685   3.882  11.905 -0.1665  0.1155 -0.1208
30696W        W45827   4.285  12.370  13.483  0.2057  0.0425 -0.2544
30697W        W45828  10.403   1.276   3.520 -0.2343  0.1017  0.1201
30698W        W45829   4.029   3.566  14.306 -0.0026 -0.1984 -0.0511
30699W        W45830   9.204  13.655   4.791 -0.0599  0.4210 -0.1731
30700W        W45831  10.367   0.977  12.221 -0.0129 -0.0462 -0.3414
30701W        W45832   3.913   3.828  12.301  0.2191  0.1137 -0.1407
30702W        W45833   2.847  15.945  13.789 -0.2983 -0.1430 -0.3110
30703W        W45834   0.754  16.674  13.708  0.0615  0.1741  0.2857
30704W        W45835  11.651  17.309   1.066  0.0515  0.1509 -0.4473
30705W        W45836  10.629  17.615   2.767 -0.3630  0.3247 -0.0329
30706W        W45837   4.383  11.004  15.708 -0.2665 -0.0506 -0.1247
30707W        W45838  11.551   1.999  12.805 -0.1713  0.0789 -0.1951
30708W        W45839   5.116   5.770  11.205 -0.3503  0.2602  0.2183
30709W        W45840   4.973  15.887  11.088  0.1060  0.1455  0.1479
30710W        W45841  15.867   2.275   4.836  0.0310  0.1452  0.1625
30711W        W45842   1.943   6.821  12.683 -0.1105 -0.0592 -0.1766
30712W        W45843   7.477   9.195  14.898  0.2338 -0.0179  0.4194
30713W        W45844   2.759  11.931   1.584 -0.1525  0.2071  0.3849
30714W        W45845  14.449  10.646  10.559  0.0647  0.2615 -0.3482
30715W        W45846  10.303   4.453  11.306 -0.2071  0.0016  0.0078
30716W        W45847  16.825   2.845  11.194  0.3380 -0.3277 -0.0813
30717W        W45848  13.911   2.890  12.431 -0.1268  0.1478  0.0650
30718W        W45849   5.661  13.791  13.837 -0.3000  0.1226  0.1864
30719W        W45850  16.002   8.275   1.282 -0.0697 -0.1569  0.0449
30720W        W45851   0.573   1.304   6.034  0.2290 -0.0626 -0.0387
30721W        W45852   8.997   1.474  14.355 -0.1218 -0.2118  0.4235
30722W        W45853   9.043   9.105  12.466 -0.1546  0.1090  0.1246
30723W        W45854  14.795  12.145  15.615  0.0473 -0.1191 -0.0072
30724W        W45855  14.156   6.160   5.880  0.1422  0.1338 -0.5234
30725W        W45856  14.566   2.624   2.312  0.3330 -0.1773 -0.3023
30726W        W45857   9.891   1.455  11.719 -0.1679 -0.1081  0.1814
30727W        W45858  11.336  15.270   3.202 -0.2889 -0.0585  0.0676
30728W        W45859  15.159   4.750  13.578 -0.3307 -0.2026 -0.1290
30729W        W45860   4.218  17.790  11.186 -0.2693  0.1383 -0.0305
30730W        W45861   3.413   0.303  10.324 -0.0956 -0.2984 -0.0182
30731W        W45862  12.882  10.422   4.915  0.0447 -0.1061 -0.0422
30732W        W45863  16.767   5.185  13.537 -0.0992  0.3018 -0.2934
30733W        W45864   0.672   0.019   3.312 -0.1411  0.1654 -0.0523
30734W        W45865   1.406  12.395   2.190 -0.3340  0.0737 -0.4264
30735W        W45866   2.702   5.349   4.085  0.2971 -0.1344  0.2349
30736W        W45867  13.733   1.841   3.581  0.1079 -0.0745 -0.1649
30737W        W45868   1.538   3.060   3.947  0.3471  0.0648  0.0224
30738W        W45869  11.507   4.255  12.810  0.0379 -0.1541  0.2596
30739W        W45870   6.585   8.205   3.775  0.2288 -0.0328 -0.2464
30740W        W45871  17.005  10.301  14.068  0.0998 -0.0012 -0.2725
30741W        W45872   4.967   4.280   4.790  0.0440  0.0695  0.0200
30742W        W45873   2.880   4.868   0.028  0.0298 -0.1390 -0.0341
30743W        W45874  13.730  14.412  14.073  0.2121  0.1614  0.1694
30744W        W45875   2.954   8.920   5.215 -0.1424 -0.1976  0.3583
30745W        W45876  17.566   2.608   1.265  0.0869  0.0051 -0.4484
30746W        W45877  14.647  16.357   1.463  0.2591  0.0297 -0.0700
30747W        W45878  16.239  12.967   0.088 -0.2628 -0.0722 -0.2033
30748W        W45879   4.619   1.306  11.786 -0.2552 -0.2496  0.0352
30749W        W45880   9.450  16.950  14.479  0.0416  0.1589 -0.1149
30750W        W45881  14.303   6.888  13.345 -0.2181  0.3200  0.0409
30751W        W45882   6.904   2.403  11.413  0.1750 -0.7757 -0.1186
30752W        W45883   1.743   7.622   9.939  0.0990 -0.1303  0.2768
30753W        W45884   6.182   1.809   0.625  0.2705 -0.0925  0.1219
30754W        W45885   5.678  12.231   2.302  0.0013  0.0447 -0.3590
30755W        W45886   6.742  11.075   1.608 -0.0206 -0.0499 -0.2461
30756W        W45887  11.221  10.558  12.790  0.2359 -0.1666  0.3598
30757W        W45888   5.076   8.237  14.457  0.1474 -0.0882  0.0235
30758W        W45889  13.204   2.336  15.659 -0.1492  0.1290 -0.1592
30759W        W45890   2.509  15.185   2.362 -0.2722 -0.0156  0.3359
30760W        W45891  18.188  14.640   3.628 -0.0179 -0.1192 -0.3462
30761W        W45892  15.146   5.741   3.792 -0.1971 -0.0481 -0.1418
30762W        W45893  16.243   9.083   0.964 -0.0599 -0.0896  0.1697
30763W        W45894   2.381   9.433  10.950 -0.3189 -0.0602 -0.0702
30764W        W45895  16.495   1.549   4.797  0.0100  0.2107  0.2030
30765W        W45896   6.200  14.555   1.942 -0.1828 -0.1136  0.1138
30766W        W45897   1.985   3.925   0.019 -0.2365  0.0980  0.2403
30767W        W45898   3.272   4.741   0.842 -0.0425  0.1256 -0.0517
30768W        W45899  12.189   7.122   3.827  0.1314 -0.0574 -0.1564
30769W        W45900   3.280   5.728  14.095  0.0509 -0.1780 -0.0824
30770W        W45901   8.789   6.040   4.161  0.0615  0.2008  0.2081
30771W        W45902   9.698   4.441   3.168 -0.0676 -0.2915  0.0203
30772W        W45903   2.228  11.208   3.183 -0.4707 -0.0704 -0.0441
30773W        W45904  15.625  18.705   6.364  0.0363 -0.1795  0.1304
30774W        W45905   0.203   7.879  14.720 -0.2671  0.0241 -0.3763
30775W        W45906  12.211   7.748   1.116 -0.1976 -0.1294  0.3205
30776W        W45907  16.224   8.759   0.551 -0.3748  0.1531 -0.2126
30777W        W45908  16.069  15.809  11.318 -0.0909 -0.1830 -0.0427
30778W        W45909  18.269   1.048  14.830 -0.0055 -0.6623  0.2338
30779W        W45910  15.987   2.837  14.624 -0.3927  0.1349 -0.1038
30780W        W45911   6.731   6.455  11.888  0.0668 -0.0599 -0.1635
30781W        W45912  13.357   1.188   0.547 -0.1440 -0.3332  0.1664
30782W        W45913  11.882   9.134   1.067  0.3752  0.2404  0.1479
30783W        W45914  16.964   4.672   4.766 -0.1638 -0.2380 -0.2413
30784W        W45915   6.348   8.879  14.770 -0.4932 -0.0697 -0.3380
30785W        W45916   9.313   8.860   5.458  0.0811  0.0805 -0.2388
30786W        W45917   9.482  17.856   0.816 -0.1822 -0.0869 -0.1717
30787W        W45918   5.818  15.729   3.353 -0.2954  0.0268 -0.0618
30788W        W45919   7.832  17.564   0.238 -0.2115 -0.0426  0.0339
30789W        W45920  18.175  11.765  12.435 -0.0481 -0.0888 -0.3694
30790W        W45921   0.674  16.648  14.945  0.0342  0.1015 -0.2833
30791W        W45922   1.384   8.521  15.446 -0.3566  0.0602  0.2990
30792W        W45923   9.227   2.933  14.501 -0.1534  0.0279 -0.0796
30793W        W45924  14.767  16.882  10.772  0.1102 -0.0604 -0.1694
30794W        W45925   4.487   4.404   3.969  0.2058 -0.3064 -0.1907
30795W        W45926  16.583   0.760  14.346 -0.1093 -0.3137  0.1133
30796W        W45927   5.095   7.959  10.466  0.1055 -0.1755  0.1272
30797W        W45928  12.016   0.249   0.060 -0.2445  0.0106 -0.1450
30798W        W45929  15.798   5.117  14.060  0.1445  0.0647 -0.2000
30799W        W45930  14.795  16.339  12.987 -0.3502  0.1885 -0.0371
30800W        W45931  12.074   2.742   5.362  0.0085 -0.1209  0.2480
30801W        W45932   8.640  16.831   0.579  0.2313 -0.0001 -0.1892
30802W        W45933  11.846   0.923   4.574 -0.3428 -0.2730 -0.0836
30803W        W45934  18.639   4.064   4.027  0.3577 -0.1486  0.0247
30804W        W45935   3.414   9.698   0.202 -0.0477  0.3092 -0.2762
30805W        W45936   5.526  10.463  10.271  0.3090  0.0182  0.1540
30806W        W45937  14.722   4.241  12.023 -0.3838 -0.3127  0.1851
30807W        W45938  12.893   6.347  10.192  0.2060  0.1538 -0.2891
30808W        W45939   9.310   2.831  13.035  0.1022 -0.1726 -0.0428
30809W        W45940   0.997  10.288  15.143 -0.0356  0.0305 -0.0465
30810W        W45941   3.412   6.565  13.062 -0.1998 -0.1190 -0.1112
30811W        W45942   2.021   4.423   0.308  0.0353 -0.0403  0.2191
30812W        W45943   8.165  12.905   6.153  0.0843  0.0945  0.0083
30813W        W45944  11.278  14.512   0.305  0.1583  0.0104 -0.1062
30814W        W45945  16.999   2.968   5.574 -0.0099  0.0514 -0.2527
30815W        W45946   5.074   5.226  14.196 -0.0418  0.4281  0.1912
30816W        W45947   3.565  16.696  13.948  0.3159  0.2195  0.3975
30817W        W45948   4.495  16.003   3.384 -0.1440 -0.1331 -0.1147
30818W        W45949  15.469   1.986   5.032 -0.1229  0.3446  0.1079
30819W        W45950  18.672   5.948  11.259 -0.2120 -0.2918 -0.0147
30820W        W45951   6.931   4.193  14.074  0.2879  0.0091 -0.2106
30821W        W45952   7.261   2.591  13.067  0.0651 -0.0088 -0.0968
30822W        W45953  15.681   1.965  11.480 -0.0117  0.1045  0.2007
30823W        W45954  15.388   2.262   6.093 -0.1547  0.0401 -0.1149
30824W        W45955  17.691  14.607  12.255  0.2890 -0.2555 -0.3130
30825W        W45956  10.274   0.935  11.682  0.2666 -0.1166  0.1276
30826W        W45957   8.472   9.593  14.426 -0.1177  0.3019  0.4864
30827W        W45958   0.575  12.484  12.941 -0.0280 -0.1078  0.0473
30828W        W45959  16.331   0.311  12.030  0.1813  0.0179 -0.0971
30829W        W45960  13.439   5.551   2.842  0.1396  0.0837  0.0100
30830W        W45961   0.213  15.754  13.555 -0.2383 -0.2620 -0.0304
30831W        W45962   6.486   9.352  12.033  0.1928  0.1287 -0.2902
30832W        W45963  14.441  10.376   3.898 -0.0315  0.0608 -0.3101
30833W        W45964  14.217  12.977   0.692  0.1608  0.1076  0.0679
30834W        W45965   1.818   7.942   4.630 -0.1032  0.1827 -0.4393
30835W        W45966   0.863  18.278   1.049 -0.4038 -0.1272 -0.0243
30836W        W45967  18.315  11.822  11.112 -0.4365  0.1604 -0.0829
30837W        W45968  15.879  18.054  15.081  0.0997  0.1129 -0.0474
30838W        W45969  15.628   4.610   0.316  0.3854 -0.2498 -0.0131
30839W        W45970  14.117   7.977   2.877  0.0499 -0.0433  0.1133
30840W        W45971   4.929   4.097  13.484  0.1681  0.0314  0.0775
30841W        W45972  13.903  15.889   2.737  0.2025 -0.4124  0.1418
30842W        W45973   2.381   9.306  13.969  0.0052  0.1970 -0.2371
30843W        W45974   5.392   6.213  12.687 -0.2387 -0.0336  0.2296
30844W        W45975  13.090   1.738   5.225 -0.0820  0.1524 -0.3124
30845W        W45976   4.489  17.552  10.831  0.2735  0.0016  0.1237
30846W        W45977  17.987   8.741  10.675 -0.0254 -0.1057  0.1181
30847W        W45978   0.439  11.557  12.666 -0.3206  0.1045 -0.0887
30848W        W45979   8.921  17.287  14.405  0.5084 -0.0739  0.1928
30849W        W45980   3.498  13.660   2.614 -0.3274  0.4317 -0.1167
30850W        W45981   4.312  11.364  14.910  0.0297  0.0411  0.2402
30851W        W45982   6.768   3.689  13.362 -0.0567 -0.2712  0.0424
30852W        W45983  13.721  13.464   1.730  0.0721 -0.0676 -0.0380
30853W        W45984   6.113  13.754  13.566 -0.0978  0.0537  0.1637
30854W        W45985   5.638  14.191  15.587  0.2754 -0.0470  0.0081
30855W        W45986   3.087  12.194   3.976 -0.1441 -0.1463 -0.1168
30856W        W45987   0.321   4.514  14.856 -0.2510  0.0070 -0.3701
30857W        W45988   4.011  17.367   4.900 -0.1498 -0.1466 -0.0329
30858W        W45989   3.316  11.347   3.133 -0.0163 -0.0348  0.1418
30859W        W45990   1.092   4.856   1.530  0.1319  0.0653  0.1842
30860W        W45991   1.280   7.885  12.200 -0.0636  0.0484 -0.0339
30861W        W45992   6.759   3.719   3.216 -0.2690 -0.6056  0.1228
30862W        W45993  13.546   5.884  10.647  0.0453 -0.1633  0.1369
30863W        W45994   8.687  16.438   3.182  0.2540 -0.0307 -0.3927
30864W        W45995  14.361  17.850   4.284  0.1635 -0.0586 -0.2065
30865W        W45996   3.264   2.718  14.906 -0.0741  0.1346 -0.1201
30866W        W45997   9.208   6.723   4.154 -0.1846  0.1877  0.0279
30867W        W45998  11.548   9.482  13.424  0.1953 -0.1941 -0.0610
30868W        W45999  17.438   2.145  12.893  0.3737 -0.1173 -0.1935
30869W        W46000  11.550  14.392   4.698  0.1049  0.1279  0.0750
30870W        W46001  17.615   8.108   1.601 -0.0347  0.2202 -0.0696
30871W        W46002   0.415  17.195  11.381 -0.1051  0.2385 -0.0029
30872W        W46003  18.316  17.148  12.565  0.0617 -0.3818 -0.2384
30873W        W46004  18.032   4.531  15.126 -0.2820  0.0293  0.2775
30874W        W46005   2.479   0.674  15.276 -0.0499  0.0232 -0.4770
30875W        W46006   6.871  17.236  14.039  0.1026  0.3548  0.2733
30876W        W46007   1.309   5.741  15.095  0.3362  0.2326  0.0197
30877W        W46008  17.006  16.498  14.791  0.2012 -0.0234  0.0028
30878W        W46009   5.179  14.419  13.054 -0.2463 -0.0764 -0.1678
30879W        W46010  18.037  14.700  13.584 -0.1074  0.2116  0.0254
30880W        W46011   2.070   2.168  15.714 -0.2261 -0.0695  0.3134
30881W        W46012   3.632  16.533  15.262 -0.1627  0.1370 -0.2479
30882W        W46013   5.511  14.147  12.272  0.0226 -0.1801  0.1650
30883W        W46014   5.278  14.261  15.053  0.1187  0.1633 -0.1991
30884W        W46015   0.916   4.242  13.660  0.2805  0.2030 -0.0194
30885W        W46016  18.196  15.694   2.431 -0.0712 -0.1642  0.0881
30886W        W46017   7.521  10.668   5.138 -0.1528 -0.0716 -0.1773
30887W        W46018  11.846  14.870   9.795  0.0962  0.0626  0.1917
30888W        W46019  12.774   7.857   4.014  0.0162  0.0134  0.1601
30889W        W46020  14.558   7.752   1.007 -0.2117  0.0455  0.2855
30890W        W46021   2.803   9.960   3.320 -0.0037 -0.0181 -0.2738
30891W        W46022   6.642   5.994  12.676  0.2818  0.0708  0.1536
30892W        W46023  13.803  13.320  11.433 -0.0835  0.0378 -0.0401
30893W        W46024   8.122  18.316   5.229  0.2035  0.2511  0.1073
30894W        W46025  13.035  17.716   6.279  0.1412  0.2309 -0.2126
30895W        W46026   2.237  18.430   9.635 -0.0471  0.0108  0.1602
30896W        W46027  18.375   6.001   0.084 -0.0947  0.1864  0.0122
30897W        W46028   8.288   4.591   3.455  0.0894  0.2490 -0.2058
30898W        W46029   8.995   9.206   5.216  0.2794  0.2057  0.0457
30899W        W46030  15.242   9.476  11.999 -0.4958 -0.3327 -0.1405
30900W        W46031  17.327  16.674   1.206 -0.1252  0.2354  0.1802
30901W        W46032  17.329   8.161   2.094  0.0433  0.2446 -0.2742
30902W        W46033  17.096  16.622   5.252 -0.2447  0.1046 -0.1529
30903W        W46034   2.161  16.532  12.120  0.0858 -0.2833 -0.3470
30904W        W46035   5.035  11.021  13.431  0.1369 -0.4356  0.0860
30905W        W46036   3.898  17.449   0.754 -0.2552  0.2290 -0.1733
30906W        W46037   5.756   7.140   1.728  0.0089 -0.0022  0.0857
30907W        W46038  12.589   0.127   2.192 -0.1053  0.0845 -0.1133
30908W        W46039   7.976   1.172   2.755 -0.1159 -0.1610 -0.0120
30909W        W46040  12.878   9.163  14.437 -0.0440  0.1433  0.1999
30910W        W46041   8.746  15.740  14.952  0.2051 -0.3615 -0.1750
30911W        W46042  15.266  11.804   4.116  0.4466  0.2115 -0.2338
30912W        W46043   0.538  17.170  13.640  0.0314  0.0593  0.0473
30913W        W46044   3.061   3.638  14.713  0.0776 -0.0107  0.2833
30914W        W46045   9.717  11.501  13.894 -0.3469  0.1934 -0.4047
30915W        W46046  13.053   0.999  13.815 -0.5529  0.1838 -0.0586
30916W        W46047   4.250   6.369   2.440 -0.0110 -0.1490  0.2303
30917W        W46048  11.497  12.848   5.396  0.1590 -0.0297 -0.0561
30918W        W46049   5.518  12.596   3.618 -0.0295 -0.0229 -0.1090
30919W        W46050  16.473  13.565   1.961 -0.1102 -0.2939  0.4796
30920W        W46051   3.279  18.323  11.606  0.0084 -0.1167 -0.1096
30921W        W46052  14.224  12.118  13.703 -0.1049  0.0801 -0.3393
30922W        W46053   0.634  15.179   0.801  0.0912 -0.0400 -0.0151
30923W        W46054  16.351  11.119   0.297 -0.0767  0.1322 -0.2012
30924W        W46055  11.670   4.135   5.916 -0.1990  0.2279 -0.2302
30925W        W46056   6.416   5.329  15.218  0.3063 -0.1984 -0.0003
30926W        W46057  16.548  12.715  12.741  0.0716 -0.1376 -0.0112
30927W        W46058  16.858   4.826  14.653 -0.0049 -0.0204 -0.1432
30928W        W46059   9.432   2.305   0.445 -0.0183  0.0447  0.1285
30929W        W46060   0.527  10.186  13.087 -0.1325 -0.2337 -0.0830
30930W        W46061  17.212  11.302   5.403  0.1382 -0.0990  0.0092
30931W        W46062   2.368   7.277   1.638  0.1759 -0.0120  0.1775
30932W        W46063   8.889   4.247   4.154 -0.0117 -0.0150  0.0307
30933W        W46064  13.028  13.783  11.193 -0.2761  0.0148 -0.2246
30934W        W46065   3.819  15.424   1.772 -0.1078 -0.0430 -0.3115
30935W        W46066   9.356  10.691   3.177  0.2866  0.0133 -0.0455
30936W        W46067   5.597   1.457  11.399  0.0473 -0.1629 -0.0400
30937W        W46068   3.153  17.910   0.637 -0.1207 -0.0132  0.2066
30938W        W46069   7.805   9.735  12.361 -0.0487 -0.0981  0.2415
30939W        W46070   1.681   0.534  15.450 -0.2098 -0.1660  0.0414
30940W        W46071   5.593   3.047   1.604 -0.0024 -0.0066  0.1044
30941W        W46072  14.602   4.849   2.543  0.0827  0.3045  0.0024
30942W        W46073   4.404   8.116   4.518  0.2242  0.1498  0.0138
30943W        W46074   8.799  18.532  10.788  0.2296 -0.2321  0.0955
30944W        W46075  11.744   7.113   5.848  0.0557  0.1725 -0.0268
30945W        W46076   4.351   3.168  10.427 -0.1221  0.3027  0.2109
30946W        W46077   7.334   9.678  12.161 -0.0614  0.3421 -0.3034
30947W        W46078  18.112  15.053   3.152  0.1582  0.2274 -0.0483
30948W        W46079   0.229   6.038   0.455  0.3165  0.3302  0.0058
30949W        W46080   3.473   6.924   2.417 -0.3058  0.0232 -0.2891
30950W        W46081  17.096   0.632   1.464  0.2358 -0.1930  0.0249
30951W        W46082   3.408  10.623  12.588 -0.2619 -0.0981  0.0409
30952W        W46083   3.563  15.398  12.937  0.0746  0.0244 -0.0246
30953W        W46084  10.831   5.403  11.965  0.0808 -0.0280  0.2658
30954W        W46085  13.465   3.606   6.124  0.0132 -0.3351 -0.0413
30955W        W46086  18.210   7.195  10.220 -0.1402 -0.0815  0.1710
30956W        W46087   2.387  18.296   5.228 -0.4392 -0.2382 -0.0062
30957W        W46088   3.504  11.726  13.092  0.1234  0.0047 -0.2189
30958W        W46089  17.426  11.070  11.375  0.1239 -0.1271 -0.0446
30959W        W46090  17.364   6.650   1.523  0.2143  0.0503 -0.0315
30960W        W46091  15.387   2.372  11.238  0.1893  0.1026  0.6670
30961W        W46092   2.046  18.324   3.694  0.0151  0.3815  0.0232
30962W        W46093  10.143   7.829   4.391 -0.2768  0.2223  0.2020
30963W        W46094  15.174   4.202  12.262 -0.3196 -0.0224 -0.1443
30964W        W46095  12.218   1.980  13.298 -0.0758  0.1633  0.3145
30965W        W46096  10.648   7.032  12.007  0.1186  0.2343  0.1749
30966W        W46097  17.824   2.956   4.638  0.0731  0.0931  0.2970
30967W        W46098   0.173  10.798   3.219 -0.1701  0.2674 -0.0709
30968W        W46099  18.391   9.324   2.792 -0.2405 -0.0900  0.1118
30969W        W46100   9.583   6.370  12.253 -0.1626 -0.1790  0.1789
30970W        W46101  10.030  12.494  13.027 -0.2011 -0.1728  0.2852
30971W        W46102   6.574   5.713   4.051  0.2085 -0.2922  0.0687
30972W        W46103   1.226   4.237  11.875  0.2292  0.1092  0.1399
30973W        W46104  16.707  12.244  12.829  0.0625  0.2379 -0.0258
30974W        W46105   7.134  13.976   1.689 -0.1997 -0.5781  0.3601
30975W        W46106  17.575  12.269   4.239 -0.2440 -0.1078 -0.6478
30976W        W46107   7.947  14.186  12.182 -0.2041 -0.2693  0.4160
30977W        W46108  11.951   2.060   1.963  0.0269 -0.1205 -0.3683
30978W        W46109   3.233  16.273  14.538 -0.2939 -0.0476 -0.2687
30979W        W46110  18.408   3.726  13.243 -0.2713  0.0182 -0.1268
30980W        W46111   7.203  16.850  11.877  0.4191 -0.0913  0.2999
30981W        W46112   1.663   9.594  14.068 -0.3585  0.1241 -0.0263
30982W        W46113  15.925   8.514  15.404  0.0028  0.0861 -0.0536
30983W        W46114   6.895  17.010   1.054 -0.0690  0.1436 -0.0274
30984W        W46115   2.640   5.587  11.578  0.1295  0.0248 -0.1456
30985W        W46116   8.558   7.925  10.594 -0.0420 -0.0144 -0.4359
30986W        W46117  15.501   2.645   5.768 -0.2722 -0.1313  0.3236
30987W        W46118   0.621   3.390   4.874  0.2444  0.4658  0.2877
30988W        W46119   6.876   1.103   3.107  0.1340 -0.1919 -0.0135
30989W        W46120  14.798  10.614  14.094  0.1766 -0.0105 -0.3247
30990W        W46121  14.776  10.484   1.581 -0.1368  0.1847  0.1942
30991W        W46122  14.619   3.776  11.451 -0.3204 -0.0281  0.2520
30992W        W46123   5.280   7.363  12.178  0.0918 -0.1238 -0.3105
30993W        W46124   8.867  18.460  15.740 -0.1624 -0.0821  0.3094
30994W        W46125   1.841  14.485   9.820 -0.4250  0.2551  0.1290
30995W        W46126   7.157  14.763  13.868  0.0747 -0.6334  0.1022
30996W        W46127  17.246  10.401  11.481 -0.3698 -0.3136  0.2451
30997W        W46128   6.337  17.080  11.319  0.0819 -0.4029  0.0808
30998W        W46129   4.385  15.628   9.201  0.3611  0.0754 -0.2406
30999W        W46130  15.868   7.854   0.931  0.2804 -0.1408  0.1795
31000W        W46131   7.495  11.443  10.654  0.3917 -0.1509  0.1194
31001W        W46132   7.508  17.858   3.587 -0.1183  0.2018 -0.3660
31002W        W46133  13.429   6.624  12.155 -0.2517  0.3380  0.3070
31003W        W46134  17.771  17.865   3.750 -0.0342 -0.0576  0.1041
31004W        W46135   2.951  11.096   3.759  0.1686  0.1276  0.0672
31005W        W46136   7.869  16.856   9.438  0.2129 -0.5638 -0.3337
31006W        W46137  10.151  10.122   2.351 -0.1018 -0.1016  0.2724
31007W        W46138   4.904  18.058  11.813 -0.1786  0.1074 -0.1105
31008W        W46139   6.613  16.420  14.282  0.0483  0.0023  0.0796
31009W        W46140   8.649   2.801   0.182  0.0832  0.0373  0.0836
31010W        W46141   5.489   1.036   0.672  0.0213 -0.1320  0.3401
31011W        W46142   9.730  11.375   0.260 -0.0615  0.4193  0.1662
31012W        W46143   7.521  12.831  10.281  0.1134 -0.5017  0.1929
31013W        W46144  15.453  14.885   1.837  0.1473 -0.1177  0.1339
31014W        W46145   1.464  15.752  13.390  0.1792  0.2143 -0.1920
31015W        W46146   2.876   5.411  13.896  0.2374 -0.3215 -0.1558
31016W        W46147   0.427   2.539   1.756  0.0825 -0.0795  0.1329
31017W        W46148   3.664  13.941   1.998 -0.0237  0.2223  0.1084
31018W        W46149   5.233  17.023  15.407 -0.0739 -0.0007 -0.2302
31019W        W46150   6.735   1.051  12.211 -0.1061  0.1148  0.2642
31020W        W46151   4.584   1.256  12.558 -0.3285  0.0312  0.1211
31021W        W46152   8.239   2.446  13.457  0.0049  0.3330  0.2284
31022W        W46153  13.518  18.613   2.667 -0.0990 -0.2624  0.0906
31023W        W46154   7.666  11.068   4.260  0.0994  0.0943 -0.0824
31024W        W46155   7.166   6.076  11.715  0.2665 -0.1639  0.3377
31025W        W46156   3.828   2.462  10.277  0.2498 -0.0370  0.0170
31026W        W46157  17.668  15.675   1.710 -0.0456 -0.2845  0.1064
31027W        W46158  12.062  16.583  12.617 -0.1599 -0.0788 -0.0003
31028W        W46159  11.751  13.712   3.534  0.2788  0.1949 -0.0702
31029W        W46160  10.124   6.399  11.607  0.1298  0.2202  0.2568
31030W        W46161   7.893   9.964   0.871 -0.2746  0.0578  0.0134
31031W        W46162   6.242   8.226   4.197  0.1441  0.1223  0.3300
31032W        W46163   2.816  15.427  14.969 -0.1936 -0.6334 -0.0655
31033W        W46164   7.682  13.277   5.033  0.0183  0.0695 -0.2877
31034W        W46165   8.446  11.144  11.412 -0.2019 -0.0525  0.0002
31035W        W46166   5.645  18.291   4.271 -0.0489 -0.3167  0.1850
31036W        W46167  18.605   1.358   4.005 -0.1230 -0.1152  0.2608
31037W        W46168  15.788   5.536  11.070  0.0063  0.0920 -0.2456
31038W        W46169   7.924  12.965  14.908 -0.0417  0.0497  0.3615
31039W        W46170   3.991   1.278   2.196 -0.2307  0.0992 -0.2267
31040W        W46171   9.480   0.042   5.656  0.3329  0.1525  0.4599
31041W        W46172  16.844   1.227   1.881 -0.1626 -0.2646 -0.1919
31042W        W46173  14.547   3.897  12.316 -0.2699  0.0654 -0.0725
31043W        W46174  15.429   4.305   4.440  0.0026 -0.1172  0.2904
31044W        W46175   1.234  14.272   3.744  0.2812 -0.3163  0.1198
31045W        W46176   6.801   6.583  13.848 -0.0343 -0.1219  0.1147
31046W        W46177   8.130  10.137   5.256  0.1171 -0.1490 -0.0127
31047W        W46178   9.168   6.089  11.422  0.0268  0.1087  0.1474
31048W        W46179   0.482  10.975   1.908 -0.0385  0.1168  0.0682
31049W        W46180   2.572  13.755   2.859  0.0469  0.0212 -0.0712
31050W        W46181   9.281  13.680  13.125  0.0866 -0.2160  0.1680
31051W        W46182   6.999  11.836  14.695  0.1019  0.0279  0.0384
31052W        W46183  13.232   6.722  10.833 -0.0634  0.2741 -0.0702
31053W        W46184   1.472   6.886   5.466 -0.3011  0.0340  0.3544
31054W        W46185   1.060   1.295  15.458  0.2083 -0.1470 -0.1571
31055W        W46186  14.481  13.326   4.487  0.0824  0.4594 -0.3162
31056W        W46187  16.794   4.961   3.964 -0.1513 -0.1095  0.1407
31057W        W46188  11.557   3.343   0.307 -0.2498 -0.2225 -0.0207
31058W        W46189   2.315   6.312   3.344 -0.0919  0.2944 -0.1230
31059W        W46190  12.296  11.467   5.657 -0.0325 -0.2627 -0.0652
31060W        W46191  14.596   9.657   1.863 -0.1720  0.1356 -0.2626
31061W        W46192   5.934  15.416  13.797 -0.1173 -0.2919 -0.3788
31062W        W46193   4.472   8.320  15.721 -0.0313  0.2195 -0.0015
31063W        W46194   9.804   1.061  11.373  0.3596 -0.1045  0.0899
31064W        W46195   0.976   3.960  14.224  0.2670 -0.0299  0.0191
31065W        W46196  16.560   8.030   9.479 -0.0935  0.0342 -0.1727
31066W        W46197  17.561   4.827   0.785 -0.0389 -0.1244  0.0132
31067W        W46198   5.478  15.712  11.786  0.1413  0.1607  0.1315
31068W        W46199  11.465   4.802   0.591  0.3980  0.0359 -0.0360
31069W        W46200  12.247   8.165   5.495  0.2340 -0.0510  0.2257
31070W        W46201   3.437  17.311   3.135 -0.0871  0.4851  0.1178
31071W        W46202  17.909  10.885  14.961  0.0706 -0.0517 -0.2540
31072W        W46203  10.054   1.066  13.656  0.0972 -0.1592 -0.3210
31073W        W46204   6.582   7.204  12.506  0.1889 -0.2888  0.3936
31074W        W46205  13.371  14.880   1.734 -0.1212 -0.3836  0.0290
31075W        W46206  11.910  16.173   2.592  0.1472  0.1980  0.1496
31076W        W46207  12.207  11.151   1.554  0.2222 -0.0704  0.0408
31077W        W46208  12.079  15.145  11.497 -0.0304  0.0254 -0.1322
31078W        W46209  16.811  10.303   1.246  0.3399 -0.0766 -0.1626
31079W        W46210   5.681  12.282  13.100 -0.4526  0.2659  0.0274
31080W        W46211  16.517   0.504   1.528 -0.1162  0.1691  0.1231
31081W        W46212   4.248   2.183  10.328  0.0421  0.0178  0.2350
31082W        W46213  13.621   5.319  12.391  0.2802 -0.3485  0.1640
31083W        W46214   0.708  10.602   2.972 -0.0320 -0.1122 -0.1644
31084W        W46215  18.056   2.873  11.865 -0.0291  0.2236  0.1517
31085W        W46216   0.522  10.216  11.744 -0.2910  0.2884  0.3665
31086W        W46217   1.305   1.591   3.704 -0.1988 -0.2461  0.0822
31087W        W46218  18.589   8.138   9.696  0.1324  0.6234  0.2703
31088W        W46219   1.759  14.845  13.648 -0.1016 -0.1627  0.5197
31089W        W46220  13.785  14.123   0.649 -0.1052  0.2339 -0.0850
31090W        W46221   3.819  17.788  14.380  0.1000  0.0402 -0.0988
31091W        W46222   8.375  11.888   1.444 -0.2650 -0.1026  0.0903
31092W        W46223  14.068   5.158   1.802 -0.2171 -0.5775 -0.2932
31093W        W46224  11.186  15.043   0.780 -0.1264 -0.0394  0.1160
31094W        W46225  11.833   9.780   2.840 -0.1088 -0.0667  0.0569
31095W        W46226  12.267  13.999   0.624 -0.1241 -0.2914 -0.0717
31096W        W46227   3.119  12.447   2.286 -0.0132 -0.0292  0.1771
31097W        W46228   5.615  10.950  11.415 -0.1262  0.0647 -0.2571
31098W        W46229  16.928  16.922   2.510 -0.4920 -0.0916 -0.3771
31099W        W46230   9.509   6.924   6.123 -0.0168  0.1627 -0.2159
31100W        W46231  16.943  11.258  11.925 -0.0575  0.0730  0.1411
31101W        W46232   3.690   8.799   1.066  0.2298 -0.1168  0.2436
31102W        W46233  15.044  12.285  13.226 -0.3620 -0.0118 -0.2521
31103W        W46234   5.792  13.438  11.618 -0.6417 -0.2340 -0.3002
31104W        W46235   9.730  10.876  15.363  0.1555  0.4774  0.0838
31105W        W46236  18.170   8.331  11.509  0.1525 -0.1851 -0.3024
31106W        W46237   3.161   7.470  12.899 -0.0753  0.0290 -0.1094
31107W        W46238  12.213   3.186   1.278  0.0515 -0.4233  0.2231
31108W        W46239  11.124  12.360   3.624  0.1460 -0.2220  0.4843
31109W        W46240  16.651   8.762  11.844  0.1897  0.1396 -0.0734
31110W        W46241   5.274   3.409   0.136 -0.3068 -0.0762  0.2760
31111W        W46242  13.281   3.720  13.886  0.0794 -0.2912 -0.0095
31112W        W46243  14.856  10.910   3.817  0.3587  0.1331  0.0864
31113W        W46244  11.654  10.632  10.615  0.1132  0.2089 -0.2252
31114W        W46245  17.225   1.233  14.504  0.3734 -0.2853  0.1953
31115W        W46246   4.653  13.975  14.417 -0.1063  0.1955 -0.0211
31116W        W46247   9.866   3.671  13.227  0.2396 -0.0948  0.1466
31117W        W46248  13.136  16.536   3.428  0.0367  0.1001  0.1578
31118W        W46249   4.175   3.919   5.252  0.0362  0.0265 -0.2056
31119W        W46250  12.597   2.877   1.567 -0.3271 -0.2510  0.1002
31120W        W46251   1.297  14.683  14.444  0.2190  0.0950 -0.1342
31121W        W46252   7.110  17.921  11.694 -0.0870 -0.1041 -0.0903
31122W        W46253   5.445  17.551   5.155  0.1241 -0.1051  0.1624
31123W        W46254   4.290  14.886   3.210  0.0270 -0.0017 -0.2637
31124W        W46255   0.992   8.150  11.761 -0.0089  0.3683  0.0919
31125W        W46256  12.617   5.783  14.928 -0.2054  0.1791 -0.0349
31126W        W46257   9.543  14.621   4.949  0.5330 -0.1987 -0.0996
31127W        W46258   9.089  12.651   4.397  0.0623  0.1143  0.1896
31128W        W46259  10.510  15.735   0.937 -0.3583  0.0951  0.0138
31129W        W46260   4.754   3.978   4.325 -0.2532 -0.1840  0.0679
31130W        W46261  11.174  14.796   3.363 -0.0433 -0.1837 -0.1558
31131W        W46262   6.063   1.253  11.445  0.0761  0.1839 -0.1736
31132W        W46263   6.082   8.107   0.770 -0.1878 -0.0971  0.0627
31133W        W46264  14.737  13.736  14.552  0.0895 -0.0479 -0.3532
31134W        W46265   8.610  16.182  11.951  0.1091 -0.0108 -0.2956
31135W        W46266  15.495   4.313  15.249  0.3702  0.1064  0.2885
31136W        W46267  12.365   5.556  10.958 -0.0800  0.0883  0.1013
31137W        W46268  16.132   4.456   1.192  0.0052 -0.0592 -0.1128
31138W        W46269   4.822   9.225   5.134  0.0835 -0.0153 -0.2880
31139W        W46270  14.788   8.433  14.639 -0.2318 -0.1129  0.1325
31140W        W46271   0.970   7.613   4.456 -0.0141  0.0825  0.2584
31141W        W46272   7.166   1.936  15.433  0.4614 -0.0874 -0.1023
31142W        W46273   7.882  15.558   1.117 -0.1529 -0.0062 -0.2349
31143W        W46274  17.326  12.793  11.029 -0.2258  0.1254  0.0175
31144W        W46275  13.760  10.160   5.580 -0.2553  0.4221  0.1663
31145W        W46276   0.670   2.284  12.966  0.1368  0.1399 -0.1445
31146W        W46277  15.512   9.450  14.395  0.1268  0.1115 -0.0143
31147W        W46278  17.169   9.470   0.712  0.1615  0.0681  0.1715
31148W        W46279   2.915  15.329   4.156 -0.1138 -0.0684 -0.1687
31149W        W46280   7.463  15.368   3.007  0.2673 -0.2057  0.0420
31150W        W46281   4.102   9.485   2.464  0.0926  0.4216  0.2429
31151W        W46282  17.466   5.516  12.244  0.1903  0.1969  0.0558
31152W        W46283  10.451  16.672   2.555  0.2591 -0.0779  0.2442
31153W        W46284  11.429  11.420   5.741 -0.0751 -0.1711 -0.0942
31154W        W46285   3.077   9.780  10.678 -0.4483 -0.1624 -0.1839
31155W        W46286   2.011  12.358  11.290  0.1242 -0.0259  0.0221
31156W        W46287   1.244  12.315  13.026 -0.1679 -0.1295  0.0315
31157W        W46288  18.293   2.646  10.241  0.0486  0.0299  0.1470
31158W        W46289   3.424  16.606  14.832 -0.0661 -0.0675 -0.1630
31159W        W46290   5.182   0.677  15.597 -0.1596 -0.1048  0.0804
31160W        W46291  11.299   9.901  15.707  0.1877  0.0902  0.1255
31161W        W46292   6.864  17.682  10.108 -0.0234 -0.1522 -0.3025
31162W        W46293   7.341  18.569  10.844  0.0456  0.0478  0.2187
31163W        W46294  11.979   3.195   1.759  0.1589  0.0903 -0.2432
31164W        W46295   0.411   0.247   0.332  0.0288  0.0419  0.4031
31165W        W46296   4.707   9.267   3.426 -0.0771 -0.0395 -0.1917
31166W        W46297  14.838  16.087  13.900 -0.3163 -0.0562 -0.2893
31167W        W46298   8.811  10.218  15.651  0.0488 -0.1065  0.1600
31168W        W46299   5.849   9.077  10.015 -0.0860  0.2547 -0.0440
31169W        W46300  16.735   3.125  12.009 -0.1206  0.1246  0.0261
31170W        W46301   4.913   6.362   5.550 -0.3323 -0.1756  0.1116
31171W        W46302  12.801   8.184   2.190  0.2753  0.1050 -0.1469
31172W        W46303  15.824  17.568   2.150 -0.1882 -0.0626 -0.0305
31173W        W46304  11.206   5.697   2.264 -0.0433  0.0710 -0.0788
31174W        W46305  15.297  11.975  14.376 -0.0802  0.1732  0.1224
31175W        W46306   0.677   2.463  11.250 -0.2186  0.0740  0.1223
31176W        W46307   7.751  11.491   4.008  0.1646  0.1992  0.0893
31177W        W46308   1.082   5.858   4.358 -0.1965 -0.3701 -0.5868
31178W        W46309   5.970   1.935   4.108 -0.0031 -0.2266  0.0063
31179W        W46310  11.237   9.260   2.206 -0.0363  0.5085  0.0513
31180W        W46311   3.332   3.187  14.649 -0.1339  0.3512  0.0175
31181W        W46312   3.950   0.518  14.126  0.1240 -0.1272  0.0265
31182W        W46313  13.335   8.544   4.516 -0.0576  0.0412  0.1742
31183W        W46314   9.441  15.024  11.683 -0.5033 -0.0927  0.3367
31184W        W46315   0.896   4.131   9.611 -0.1485 -0.2435  0.0894
31185W        W46316   0.374  17.152   5.155 -0.0445 -0.0070  0.1871
31186W        W46317   7.147  16.642   0.823  0.1003  0.1500 -0.1607
31187W        W46318   9.608  13.984   1.410  0.1107  0.1344 -0.1281
31188W        W46319   4.196   0.882   9.797  0.0833  0.1690  0.0123
31189W        W46320  15.720   6.584   3.685 -0.0622 -0.3806  0.1660
31190W        W46321   6.719  14.023   4.061  0.0609 -0.0463 -0.3927
31191W        W46322   2.115  14.920  11.126  0.1259 -0.4633  0.2729
31192W        W46323   2.450   0.416   3.236  0.1003  0.3706  0.0308
31193W        W46324   0.675  10.704   3.860 -0.1489 -0.0869  0.0788
31194W        W46325   8.783  18.665  12.401 -0.0810 -0.1009  0.3043
31195W        W46326   5.132   3.825  13.096  0.1421  0.1941 -0.1310
31196W        W46327   9.537   1.595   5.620  0.0487  0.0767  0.2806
31197W        W46328  16.828  15.981  14.185 -0.0807 -0.2495 -0.0652
31198W        W46329   1.462   1.893  12.168  0.2255  0.1498  0.2448
31199W        W46330   1.565  16.818  11.037 -0.0015 -0.0684 -0.0015
31200W        W46331   9.987  15.654   0.731  0.4259  0.1773 -0.1229
31201W        W46332   4.141   4.923   3.191  0.3531  0.2017 -0.2190
31202W        W46333   2.305  17.263  11.393 -0.0042 -0.1218  0.1101
31203W        W46334  12.325  11.084  15.042  0.0452  0.2709 -0.3209
31204W        W46335  17.193   1.351   0.528 -0.2185  0.1738  0.1455
31205W        W46336  18.487   9.347   1.267  0.0013  0.1207  0.1294
31206W        W46337   4.346  17.334   3.235 -0.1308 -0.0393  0.1795
31207W        W46338  14.568  13.198  14.497 -0.1680 -0.4352  0.1859
31208W        W46339   0.980  17.040   0.425  0.4012  0.0974  0.0463
31209W        W46340  16.823   2.278   2.816 -0.1123 -0.0251 -0.0319
31210W        W46341  12.240  18.275   5.021  0.1376  0.1107 -0.1693
31211W        W46342  17.425   9.002  11.057 -0.0146 -0.3706  0.0548
31212W        W46343  11.834  16.752  10.575  0.0316  0.1531  0.0388
31213W        W46344  15.259  12.398   2.072  0.2292  0.0314  0.2151
31214W        W46345  17.104   3.217   5.087  0.1303 -0.1846  0.2975
31215W        W46346  18.667  12.944   3.532  0.2206 -0.0969 -0.3879
31216W        W46347   5.438   3.237  10.859 -0.3379  0.1821  0.0175
31217W        W46348   0.246   7.041   4.824 -0.0760  0.2355  0.2105
31218W        W46349   6.761  12.831   3.859  0.0366  0.0946  0.0546
31219W        W46350  10.567  16.150   5.374  0.1184  0.0981  0.1477
31220W        W46351   3.095  17.388  12.650 -0.2453  0.0149 -0.0136
31221W        W46352   9.561   0.068   3.851 -0.0422  0.3510  0.0299
31222W        W46353  11.784   7.082   4.840  0.1144  0.0929  0.2191
31223W        W46354  16.297   8.724  10.887 -0.0269  0.0225  0.1938
31224W        W46355  10.181   6.090  13.004  0.3337 -0.0986 -0.1304
31225W        W46356   9.211   0.360  14.330  0.0450  0.1607  0.2545
31226W        W46357   1.182  15.342   3.673 -0.1315  0.0064  0.0695
31227W        W46358   2.876   6.644   4.010 -0.0789  0.4030  0.0402
31228W        W46359  12.841   9.758   6.356  0.3352  0.0943  0.0027
31229W        W46360  16.972  15.994  14.636 -0.0932  0.0410 -0.0086
31230W        W46361  13.454  11.708  14.022  0.2535  0.0387 -0.2441
31231W        W46362  13.725  15.013   4.747  0.0137 -0.1673 -0.1742
31232W        W46363  15.710  18.744   4.788  0.0013  0.0295 -0.0688
31233W        W46364  17.140  15.041  10.718 -0.1032 -0.2760  0.2511
31234W        W46365   5.158  13.485   2.876 -0.0735 -0.1440  0.1233
31235W        W46366   0.481   3.902  11.357  0.0078  0.0941  0.3085
31236W        W46367   4.643   7.606   2.590  0.1892 -0.0667  0.0100
31237W        W46368   2.584  15.111  14.134  0.0175  0.2760  0.3852
31238W        W46369  14.833   9.236  11.092 -0.0113 -0.0258  0.4162
31239W        W46370  10.819  17.686  15.623  0.4102 -0.2474 -0.1586
31240W        W46371   1.054   0.757   2.406  0.0031  0.1530  0.1528
31241W        W46372  17.548   5.038   3.707  0.0420 -0.4948  0.3358
31242W        W46373  15.774   9.598   2.643  0.1992  0.0629 -0.1302
31243W        W46374   0.357   2.967  10.603 -0.1913 -0.0243 -0.0738
31244W        W46375   1.770  15.413   3.193  0.0893  0.0533  0.1436
31245W        W46376   7.103   2.726  11.887  0.1637 -0.1828 -0.1890
31246W        W46377   8.666   2.971  15.132 -0.0757  0.1668 -0.0660
31247W        W46378  11.906   0.712  13.393 -0.1405  0.4547  0.1397
31248W        W46379   0.020   7.514  15.113  0.0845 -0.0217  0.0541
31249W        W46380  17.895  16.477   5.178  0.1266 -0.3771 -0.0182
31250W        W46381   7.240   0.560   0.324 -0.3812 -0.1429  0.3925
31251W        W46382   0.892   8.788  10.417 -0.0573  0.1733  0.1473
31252W        W46383   0.011  10.596  10.395 -0.0405 -0.0809  0.1209
31253W        W46384   4.787   5.837   1.614  0.1163  0.3071  0.1499
31254W        W46385   7.282   8.919   6.023  0.0079  0.0761 -0.1363
31255W        W46386  12.200   7.514  13.995  0.2486  0.4928 -0.0139
31256W        W46387   0.051  11.846   2.032 -0.1480 -0.1850 -0.0142
31257W        W46388  11.259  13.284   1.780 -0.1308  0.0991 -0.1916
31258W        W46389  17.702  16.020  11.591 -0.0538  0.1581 -0.1467
31259W        W46390   4.705   6.652  13.496 -0.0949  0.1980  0.1417
31260W        W46391   5.963  11.388   5.494  0.1685 -0.1611 -0.2513
31261W        W46392   8.537  10.403  13.715  0.2058 -0.3027  0.2829
31262W        W46393   0.408   1.268   2.177  0.2238  0.2582 -0.4686
31263W        W46394  17.494   2.211   0.479  0.0891  0.0995 -0.1962
31264W        W46395  14.452  16.815  12.491 -0.2765  0.1412 -0.0255
31265W        W46396   9.510  12.387   4.539  0.1384  0.0818 -0.2032
31266W        W46397   9.586  10.118  12.824 -0.0244 -0.1274  0.0891
31267W        W46398   7.076   6.579  15.091 -0.1162 -0.2299 -0.2028
31268W        W46399  16.489  14.678  13.387 -0.3530 -0.2958 -0.1684
31269W        W46400   3.404   5.972  10.536  0.1822 -0.1929  0.3626
31270W        W46401  15.757   8.579  14.922 -0.0320  0.3067  0.0068
31271W        W46402   0.006  11.083  15.464 -0.1173 -0.1079  0.1956
31272W        W46403  13.441  16.028  11.295  0.2868 -0.3635 -0.0407
31273W        W46404   8.601   7.383  13.727  0.1973  0.1903  0.0140
31274W        W46405   4.287   1.152  14.678  0.0349 -0.2420  0.0151
31275W        W46406   3.873   2.198  11.724 -0.2252 -0.2530  0.2890
31276W        W46407  18.731   9.444   3.636 -0.0134 -0.2572 -0.2967
31277W        W46408  17.609  13.519   5.446 -0.2669  0.0259  0.4696
31278W        W46409   8.493  15.581  11.957  0.0353 -0.0888  0.0890
31279W        W46410  18.018  12.869  13.480  0.4067 -0.1463 -0.1360
31280W        W46411  15.795  14.719  14.248 -0.0058  0.2036  0.1510
31281W        W46412  10.280   3.317  14.353  0.3271  0.1029 -0.3192
31282W        W46413   9.879  10.428  14.779  0.2470 -0.0336  0.1523
31283W        W46414   8.300   7.568   1.341 -0.2261  0.2521 -0.0374
31284W        W46415  18.677  16.723   4.274  0.3704 -0.0883  0.1592
31285W        W46416   8.041   0.712   0.851 -0.1729  0.1707  0.1095
31286W        W46417   9.307   9.638   3.772  0.1735  0.0982 -0.0474
31287W        W46418   2.128   7.296   9.977  0.0200 -0.1117  0.1494
31288W        W46419  15.117   3.610  14.463 -0.2103 -0.1489  0.0398
31289W        W46420  11.192   1.211   1.915  0.1211 -0.4429 -0.0504
31290W        W46421   8.867  10.207   1.940  0.0967  0.0178  0.0868
31291W        W46422  12.565   7.891  13.863 -0.2613 -0.0806 -0.0639
31292W        W46423   9.225   4.461  14.060 -0.0277 -0.2730 -0.0677
31293W        W46424   7.270  15.699   3.828  0.2300 -0.1705  0.1445
31294W        W46425   1.462  13.557   3.554  0.5623  0.0847 -0.1350
31295W        W46426  11.997   4.560  15.268  0.1880 -0.4306  0.2488
31296W        W46427   0.670   4.803   4.203  0.1302  0.1857 -0.0703
31297W        W46428   1.054   0.369   3.480 -0.0229  0.0194 -0.0036
31298W        W46429   1.764   2.174   3.206  0.1749  0.1070 -0.3939
31299W        W46430  12.094  11.358   4.779 -0.3237 -0.0421 -0.4709
31300W        W46431   0.227  18.712  11.322 -0.2932  0.0113  0.0645
31301W        W46432   7.870   2.664  13.072  0.1662 -0.0237  0.0957
31302W        W46433  10.939   2.490   5.288  0.2290 -0.2794  0.0333
31303W        W46434   8.585   5.384  11.455  0.0607 -0.1250 -0.1600
31304W        W46435  17.534   3.386   2.429  0.0552  0.2224  0.1959
31305W        W46436   2.292  16.522   3.441  0.1647 -0.0999  0.0143
31306W        W46437   8.404   5.189   2.880 -0.2543  0.1088 -0.1511
31307W        W46438  16.047   1.680  14.023  0.1879 -0.2421  0.1754
31308W        W46439   0.654   6.944   0.471  0.1178  0.2008 -0.0764
31309W        W46440  16.140   5.266   0.444  0.3536  0.0974  0.0386
31310W        W46441  14.340   9.451  12.054 -0.1003  0.1267 -0.0223
31311W        W46442   2.275  16.984  11.899  0.3130  0.1968 -0.0898
31312W        W46443  15.069   4.026  13.521 -0.1822 -0.0911  0.1475
31313W        W46444  13.657   7.995   5.788 -0.4725 -0.2054  0.0640
31314W        W46445   1.409  10.518  12.929  0.4249  0.3384  0.2195
31315W        W46446  15.645   5.535  14.820 -0.0623  0.0219 -0.5370
31316W        W46447   5.762  10.379   1.092  0.0668  0.1644  0.0270
31317W        W46448   4.408   6.355  14.334  0.2000 -0.0046 -0.0762
31318W        W46449   9.961  12.769   2.550  0.1882 -0.1454  0.0153
31319W        W46450  10.227   0.174  15.297  0.2338  0.1597 -0.2840
31320W        W46451   6.550   4.540  11.083  0.3470 -0.2523  0.1580
31321W        W46452   8.051   6.288   2.862  0.4425  0.4271 -0.3723
31322W        W46453  13.164   7.249  14.065 -0.0102  0.0326 -0.1250
31323W        W46454   3.849  15.211  13.855  0.0254 -0.0807 -0.2085
31324W        W46455   5.214   5.972  12.292  0.1714 -0.1074 -0.0281
31325W        W46456  18.470   9.737   0.427 -0.3197  0.1572  0.2002
31326W        W46457  16.212   5.326  14.760  0.1999 -0.2218  0.2115
31327W        W46458   9.124  15.892   0.871 -0.0160  0.1389 -0.3377
31328W        W46459   6.991   0.109   5.739 -0.0723  0.0281 -0.2426
31329W        W46460  17.919   4.186   0.708 -0.2300 -0.3053  0.1936
31330W        W46461  11.345  14.267  14.694  0.2581 -0.1078  0.2050
31331W        W46462   1.892  12.113  10.872  0.1052 -0.3227  0.0032
31332W        W46463  16.163   0.741   4.777 -0.0586 -0.3058  0.2584
31333W        W46464  10.866  10.823   4.020 -0.2319 -0.0344  0.2274
31334W        W46465   0.092  11.130   4.621 -0.0262  0.0388  0.4827
31335W        W46466   6.908   6.949   9.674 -0.1689 -0.0512  0.1289
31336W        W46467  10.952  17.858   3.078 -0.1519 -0.2456  0.0703
31337W        W46468   5.355   6.175  15.731 -0.3767 -0.3260  0.1872
31338W        W46469   5.045   9.009   1.874 -0.0798 -0.1141 -0.0760
31339W        W46470   3.517   9.968   4.303 -0.1057 -0.2679  0.2566
31340W        W46471   5.015   6.108  15.134 -0.4123  0.1238 -0.0657
31341W        W46472   2.888  11.986  10.980 -0.2035 -0.0441 -0.1024
31342W        W46473   7.316   0.611  15.585  0.1308  0.1813 -0.1542
31343W        W46474  11.333   8.588   5.146 -0.2510  0.1222  0.2185
31344W        W46475   2.964  16.574  14.120  0.1096 -0.3052  0.2594
31345W        W46476   9.912  10.494   1.987 -0.2070  0.2179 -0.1124
31346W        W46477   0.644   0.505  11.606  0.2532  0.1095  0.2816
31347W        W46478   5.802  18.164  11.648 -0.1742  0.0180  0.1322
31348W        W46479   3.948   0.869  12.378 -0.3065  0.1294  0.0670
31349W        W46480   2.874  11.610  14.398  0.0479 -0.1188 -0.0076
31350W        W46481   0.437   5.299  12.366  0.1194  0.3575 -0.0673
31351W        W46482   2.560  12.000   3.748  0.2315  0.0159 -0.2553
31352W        W46483   1.172  13.842   0.590 -0.1289 -0.0594 -0.1038
31353W        W46484   8.118  12.385  12.080  0.2923 -0.1210  0.4905
31354W        W46485  11.896  16.894   0.588 -0.2068 -0.1819 -0.0898
31355W        W46486   9.418  17.780   1.373 -0.2715 -0.0298 -0.0852
31356W        W46487  18.192   1.169  12.602 -0.0391 -0.0651 -0.0678
31357W        W46488  14.868  10.035  15.055 -0.0616  0.1259  0.0763
31358W        W46489   6.063  10.143   1.556 -0.0723  0.2752 -0.0042
31359W        W46490   4.222   8.086  11.032  0.4120 -0.2449 -0.2247
31360W        W46491  14.057   6.907   0.990 -0.0387  0.1226 -0.1527
31361W        W46492   5.010  12.675   3.581  0.1205  0.4324 -0.4197
31362W        W46493   3.403  10.837   3.257 -0.3457 -0.0651 -0.1274
31363W        W46494  11.277  11.203   1.657 -0.4849  0.1958  0.0858
31364W        W46495  18.500   1.658  14.898  0.2957  0.0484 -0.4530
31365W        W46496   9.056  10.406   5.007  0.1430  0.2899  0.1750
31366W        W46497  10.702   2.460   4.659  0.1087  0.1941 -0.0258
31367W        W46498   2.491   8.215   2.871  0.1822 -0.3205  0.0219
31368W        W46499  13.257  11.627   4.468  0.0194 -0.0252 -0.2647
31369W        W46500  14.699  10.313   2.464  0.0151 -0.0949  0.0987
31370W        W46501  18.715  16.745   3.687 -0.2606  0.0958 -0.1251
31371W        W46502  15.182   3.710   4.389 -0.4233  0.1004 -0.1445
31372W        W46503   4.250   8.582   3.021 -0.2491  0.0784  0.1722
31373W        W46504  17.558   3.814  10.943 -0.0248  0.3454 -0.1634
31374W        W46505   1.720   6.635  12.171 -0.1183 -0.1596  0.2610
31375W        W46506   7.928   8.780  12.168  0.1427  0.1374 -0.0516
31376W        W46507   8.671   6.839  13.818 -0.0562  0.4041 -0.0030
31377W        W46508  15.640   2.406   3.282 -0.0052  0.0233 -0.0491
31378W        W46509  13.136   9.422   4.059 -0.0449  0.0927 -0.1624
31379W        W46510   5.555  16.038  12.307 -0.0634 -0.0420 -0.0978
31380W        W46511  18.503   8.322   4.900 -0.1165 -0.3413  0.2597
31381W        W46512  11.292  15.565   0.604 -0.2481 -0.1421  0.0344
31382W        W46513   9.316   4.565  10.253 -0.1560  0.1316  0.0769
31383W        W46514  17.646   6.975  14.511  0.0454  0.0795  0.2617
31384W        W46515   8.554   0.760   4.387 -0.1007  0.2290 -0.1712
31385W        W46516   2.703   0.542   1.239 -0.3318 -0.0927 -0.2323
31386W        W46517   8.158   8.671   1.233  0.0202  0.1364  0.0446
31387W        W46518   9.226   0.877  14.403  0.1303  0.1097  0.2303
31388W        W46519   0.848   6.961   2.697 -0.1675 -0.0878  0.0048
31389W        W46520  15.729   2.598  12.687 -0.1732  0.2495  0.2681
31390W        W46521  15.764  14.608  15.610  0.1074 -0.1622 -0.1282
31391W        W46522   5.060  12.830  10.516 -0.0084 -0.0848  0.0622
31392W        W46523   1.897  17.260   2.806  0.3325  0.0536  0.0904
31393W        W46524  15.612  15.732  15.533 -0.2024 -0.2792  0.2086
31394W        W46525   2.057  10.891   2.767  0.1553  0.0882  0.0913
31395W        W46526  16.347  15.123  12.328 -0.0859 -0.2782 -0.2247
31396W        W46527  13.871   7.815  15.685  0.0056 -0.4544  0.0314
31397W        W46528  15.512  10.920   4.434 -0.2630 -0.0465  0.0530
31398W        W46529  15.448   0.146  13.971 -0.2036 -0.1700  0.0873
31399W        W46530   2.455   5.603   3.426  0.1421 -0.1214 -0.1034
31400W        W46531  17.125  11.881   1.597 -0.1204 -0.1253  0.0263
31401W        W46532  15.639  17.806   4.977 -0.2408  0.0961  0.2600
31402W        W46533   1.775  13.683   3.131 -0.3294 -0.0620  0.0194
31403W        W46534  11.213  10.669  10.197 -0.0074  0.2453 -0.0233
31404W        W46535   5.346   9.899   3.588  0.1599  0.1240  0.4041
31405W        W46536  10.304   6.067   5.272  0.0259  0.2199 -0.2740
31406W        W46537  13.296   3.260   0.614  0.1658  0.1482 -0.1821
31407W        W46538   4.303   9.930   0.755  0.1652 -0.1740  0.4841
31408W        W46539  16.413  15.596  12.570  0.3054 -0.3998  0.1739
31409W        W46540  14.445  18.252   1.855  0.1993 -0.1104  0.0299
31410W        W46541  10.766  17.157   0.496 -0.0468 -0.2575 -0.1051
31411W        W46542   2.142  18.643  12.349 -0.0811 -0.1782 -0.0822
31412W        W46543   7.999   7.393   1.819  0.1756 -0.0192  0.1411
31413W        W46544  14.827   9.605   4.866 -0.2328  0.1193  0.2615
31414W        W46545   5.165  17.725   3.033  0.1394 -0.1136 -0.1099
31415W        W46546   6.810   9.442  12.462 -0.2263  0.2089 -0.2041
31416W        W46547   2.625  12.198  13.406 -0.2267  0.2343  0.0808
31417W        W46548   1.271   8.559  13.755  0.0766 -0.2508 -0.3835
31418W        W46549   3.307  11.329  12.074 -0.1356  0.2979 -0.2111
31419W        W46550   2.684   3.013  10.307 -0.0038  0.1019  0.1330
31420W        W46551  13.783  15.173   3.444  0.0857  0.2036  0.0993
31421W        W46552  12.132  10.540   2.462  0.0251  0.1636  0.0406
31422W        W46553  15.452   0.950  13.486 -0.2734  0.2464  0.1444
31423W        W46554  10.869  10.798   1.810 -0.1346  0.1158  0.0480
31424W        W46555   8.433  16.564  13.191  0.0034 -0.1461 -0.5040
31425W        W46556   4.960   9.467  14.908 -0.0969 -0.0492 -0.1217
31426W        W46557  13.737   4.188   1.553  0.4978 -0.2025  0.5044
31427W        W46558   6.208   9.529  11.270 -0.2538 -0.1957  0.2043
31428W        W46559   1.496   2.444   1.222  0.1579  0.1150 -0.0915
31429W        W46560  18.556   8.051  10.914  0.0706 -0.1297 -0.1746
31430W        W46561   1.296   6.133  14.697  0.0526  0.0981 -0.4144
31431W        W46562  17.039   8.951   4.133  0.0028 -0.3408 -0.1179
31432W        W46563  11.588   8.955   3.761  0.0673 -0.1291 -0.0163
31433W        W46564   8.655   2.818  11.304 -0.0738 -0.1776  0.4105
31434W        W46565  11.754   2.699   3.911  0.4218  0.0365 -0.0089
31435W        W46566   0.040   2.889   0.637  0.2287  0.1501  0.0800
31436W        W46567   1.685  14.695  11.164 -0.0004 -0.0595 -0.1735
31437W        W46568   1.675  17.356  10.312  0.3003 -0.2530  0.0028
31438W        W46569  17.316  18.714   6.001 -0.1163 -0.0787 -0.0365
31439W        W46570   9.265   1.857   0.137 -0.0122  0.0479  0.0422
31440W        W46571  16.401   1.945   5.113 -0.0934  0.3359 -0.1262
31441W        W46572  10.496  17.972  12.396 -0.2796 -0.3546  0.1806
31442W        W46573  18.459   1.401   5.025 -0.0897  0.3400 -0.0725
31443W        W46574   4.715  15.116   2.959  0.1822 -0.1381 -0.1527
31444W        W46575  13.104  10.621   4.561  0.2427  0.0979  0.1632
31445W        W46576   9.663   9.906  14.775  0.1867 -0.1654  0.1024
31446W        W46577   8.174   4.538  13.865  0.0775 -0.1682 -0.2630
31447W        W46578  14.778  14.506   2.699  0.2413 -0.1695  0.1269
31448W        W46579   7.141   0.678  12.161 -0.0799  0.2710  0.1564
31449W        W46580   8.672  15.673   3.986  0.0169 -0.0800 -0.2631
31450W        W46581   6.856   5.536   4.591  0.1205 -0.0761  0.1727
31451W        W46582  17.710  12.506   0.020  0.0757 -0.2191  0.3057
31452W        W46583   4.578   8.196  12.040 -0.0302 -0.1592  0.0449
31453W        W46584   5.605  17.701  13.604  0.0828 -0.0847 -0.1202
31454W        W46585   3.503   4.207   0.011 -0.0021 -0.1111 -0.0355
31455W        W46586   5.833   7.004   2.450 -0.0598  0.2438 -0.0312
31456W        W46587   9.260   3.725   3.498  0.0220 -0.2308 -0.2785
31457W        W46588  10.026   6.554  15.487 -0.1909 -0.5171  0.2456
31458W        W46589  14.524  17.128  12.872  0.1259 -0.0009  0.0585
31459W        W46590  11.442   3.300   2.583 -0.1228  0.1672  0.2290
31460W        W46591   8.255   5.576   3.731 -0.2197  0.3179  0.1070
31461W        W46592   7.507   2.459   1.878 -0.0223  0.0258 -0.0451
31462W        W46593   2.679   0.176   2.655  0.0203  0.3341 -0.0364
31463W        W46594   9.775   8.870   4.102 -0.0911 -0.0740  0.1171
31464W        W46595  13.182   5.083   0.788  0.0552 -0.0436 -0.0858
31465W        W46596   5.383  12.984   0.169  0.3118 -0.1324 -0.1880
31466W        W46597  14.905   8.482  15.138  0.2408 -0.3663  0.0353
31467W        W46598  12.967   3.750   1.233 -0.2288  0.0963 -0.1652
31468W        W46599   4.348  17.218   2.141 -0.2101 -0.2086 -0.0300
31469W        W46600   2.971   3.997   5.046  0.1075 -0.3828  0.1159
31470W        W46601  10.137   4.023   2.427 -0.1891 -0.0221  0.1572
31471W        W46602  11.560   3.872   3.713  0.0796  0.0517  0.3354
31472W        W46603   7.040   6.442   0.731  0.3014 -0.1226  0.2160
31473W        W46604  10.041  10.050  15.429  0.1852  0.0717  0.0216
31474W        W46605  11.775   8.524  12.969 -0.0296  0.1487  0.0382
31475W        W46606   4.794  18.533   1.776  0.2741 -0.0272  0.0949
31476W        W46607  12.578  10.725  15.578  0.3555 -0.0190 -0.0637
31477W        W46608  16.348   7.948   0.907  0.1791 -0.3329  0.4677
31478W        W46609   1.089   1.222   5.150  0.2039 -0.4565  0.0087
31479W        W46610   7.617  11.030   2.742 -0.0956  0.1908 -0.3039
31480W        W46611  10.840  15.267   3.291  0.0238  0.1223 -0.0467
31481W        W46612  17.965   5.971  12.928  0.0240  0.1990 -0.3325
31482W        W46613   7.180  15.149   9.449 -0.0478 -0.1521 -0.0392
31483W        W46614  13.399   8.023   0.059 -0.0471 -0.0608 -0.1917
31484W        W46615  11.617  11.264   3.438  0.1042 -0.3769 -0.0725
31485W        W46616   9.949   2.467  13.964 -0.1091  0.0391 -0.4743
31486W        W46617   0.794  13.693  13.041 -0.3768  0.2091 -0.1142
31487W        W46618   6.839  14.647   4.849  0.0038  0.1071 -0.1917
31488W        W46619   7.342  11.482  14.874  0.0746 -0.0643 -0.0590
31489W        W46620   6.286  16.352   1.284 -0.1893 -0.0815  0.2458
31490W        W46621  11.227   3.790  12.950  0.0138 -0.1078  0.0080
31491W        W46622  12.929  10.211  11.189  0.0149  0.1851 -0.3708
31492W        W46623   3.849  17.027   4.577 -0.2861  0.2080 -0.3110
31493W        W46624  14.005   1.256  14.128 -0.1674 -0.1961  0.1076
31494W        W46625   6.121  14.025   4.741 -0.0036  0.1608 -0.1637
31495W        W46626  11.157  18.697  15.181 -0.0925  0.0338  0.2174
31496W        W46627  16.767  12.743   1.975  0.2174 -0.5926  0.1613
31497W        W46628   9.813   0.373  14.855  0.1546 -0.3230  0.0038
31498W        W46629  11.907  18.287   2.050  0.1244 -0.2417 -0.2235
31499W        W46630   7.607  10.875  13.947  0.1788  0.2048 -0.0491
31500W        W46631   5.994  15.030   4.553 -0.2699 -0.0271 -0.0928
31501W        W46632  17.502  12.791   2.562  0.3826 -0.2561 -0.1159
31502W        W46633   4.990   3.056  12.980  0.1654  0.1694 -0.0236
31503W        W46634   4.964   9.078   1.290 -0.2630  0.2132  0.0655
31504W        W46635  17.775  17.564   0.175  0.0976 -0.2952  0.1435
31505W        W46636   1.663   7.424   5.329  0.1028 -0.0505  0.2531
31506W        W46637   1.371   5.823   2.681  0.0913  0.1399  0.4242
31507W        W46638  11.017  10.847  10.618 -0.2907  0.0010 -0.4951
31508W        W46639  14.521   2.481   3.915 -0.0797  0.1180  0.2393
31509W        W46640   4.740   6.691   1.057 -0.1656 -0.1414  0.1295
31510W        W46641  17.903   7.083  11.592  0.6369 -0.1277 -0.1805
31511W        W46642  14.676  14.599  11.376 -0.2073  0.1785 -0.2394
31512W        W46643   5.086   1.546  10.277  0.0941 -0.0008 -0.2134
31513W        W46644   6.029   7.376  10.875  0.0668 -0.0933  0.0066
31514W        W46645   3.536  12.386   4.932 -0.3179 -0.1209 -0.1571
31515W        W46646  11.676   3.588  13.308  0.1705  0.1621 -0.1936
31516W        W46647  16.072  10.251   0.162  0.3038 -0.1273  0.1660
31517W        W46648  11.341   7.624  13.209  0.1023  0.0877  0.1609
31518W        W46649  14.247  13.753  12.427  0.3705 -0.2305  0.2852
31519W        W46650   8.026  11.079   3.903  0.1499  0.2509 -0.2240
31520W        W46651   0.772  15.805   5.178 -0.2908  0.1530 -0.2590
31521W        W46652  14.992  11.502   1.151  0.2577  0.1169 -0.2778
31522W        W46653   8.722   1.115  12.514 -0.0606 -0.0217 -0.0722
31523W        W46654   6.026   7.944  15.117  0.2623  0.1715 -0.0969
31524W        W46655  14.706   5.050   5.021  0.2627  0.1409 -0.1358
31525W        W46656   0.488  15.459  10.425 -0.2223  0.0436 -0.0235
31526W        W46657  18.007  14.594   2.262  0.0489  0.0107  0.1288
31527W        W46658  18.353   5.359  11.406  0.1089  0.0877 -0.0205
31528W        W46659  16.491  11.020   0.812  0.2723  0.1655 -0.0522
31529W        W46660  17.993  12.147   0.901  0.1545  0.1865 -0.2877
31530W        W46661  18.396   3.915   4.813  0.0634  0.2253  0.0966
31531W        W46662  16.076   5.713   5.941 -0.0598  0.1303 -0.4495
31532W        W46663  10.757   7.012   1.424  0.3603  0.3354 -0.2310
31533W        W46664   3.299   3.217  12.549 -0.0175 -0.3273 -0.0068
31534W        W46665  17.431   9.443   4.108  0.1382  0.2007 -0.1387
31535W        W46666  16.008   2.512  14.208  0.0925  0.2217  0.2547
31536W        W46667   4.635  13.062  12.961  0.1189 -0.3414  0.1702
31537W        W46668  15.570  10.006  14.733  0.2349  0.5366 -0.2766
31538W        W46669  18.547   5.920   4.307  0.0421  0.2567  0.1793
31539W        W46670  15.870   3.483   1.414  0.1527 -0.2880 -0.0994
31540W        W46671   3.849  12.180  13.663  0.4717  0.0667  0.1110
31541W        W46672   3.309  10.107  11.281 -0.0767  0.0970 -0.1490
31542W        W46673   2.046   7.565   3.801 -0.1465 -0.4803 -0.2620
31543W        W46674   6.494   6.515   4.281  0.0906 -0.0985  0.2433
31544W        W46675   8.708   9.354   2.600 -0.1455  0.2178 -0.0426
31545W        W46676   1.291   0.994   1.232  0.0250  0.1004  0.0410
31546W        W46677   9.314  17.728  14.402 -0.2813  0.1033  0.0973
31547W        W46678  18.755   6.738   2.567 -0.0563 -0.4958 -0.1686
31548W        W46679   0.035   2.911  13.006 -0.3129 -0.0798 -0.0816
31549W        W46680   9.625   3.870  14.507  0.0444  0.2024  0.1112
31550W        W46681  18.479   7.146   0.356 -0.5018 -0.0463 -0.1969
31551W        W46682   7.508   2.334  10.962  0.4451  0.1929  0.1505
31552W        W46683  15.643   9.232  12.924 -0.2675 -0.0903 -0.0092
31553W        W46684  13.785  18.412   2.308 -0.2444  0.0540 -0.1210
31554W        W46685   0.910  11.174   2.326 -0.1327  0.1501 -0.1274
31555W        W46686   9.567   7.769   2.638  0.1957 -0.3201 -0.0284
31556W        W46687   6.242  14.563   4.445  0.2221 -0.2196 -0.3556
31557W        W46688  12.785  15.317  13.692 -0.0160  0.0089 -0.2215
31558W        W46689   5.191  14.197   0.611 -0.0571 -0.1277 -0.0777
31559W        W46690  17.994   1.580   0.991 -0.4058 -0.2346 -0.0910
31560W        W46691  13.636  16.600   0.957 -0.3549  0.0471  0.0714
31561W        W46692   4.480   5.188  12.801  0.2236  0.0791  0.2177
31562W        W46693  11.823  11.659   6.754  0.0644  0.0839  0.0736
31563W        W46694   5.562  18.039   0.198  0.0366  0.0496  0.0533
31564W        W46695  12.980  10.024  12.633  0.2656 -0.1987 -0.0208
31565W        W46696   1.442   5.215  15.097  0.0777  0.1347  0.1080
31566W        W46697  17.122   2.080   3.558 -0.2244  0.1154  0.0131
31567W        W46698   6.275   4.994  14.063  0.1481  0.3103 -0.0395
31568W        W46699   3.720  17.572  10.254  0.1054  0.1852 -0.1495
31569W        W46700  10.608   6.184   3.865  0.0622 -0.2197 -0.0108
31570W        W46701   0.032   2.696  14.197  0.0154  0.0021 -0.1706
31571W        W46702  12.359  15.993  15.736  0.0063  0.0960  0.0964
31572W        W46703  18.580   8.626   9.667  0.0086  0.0735 -0.0791
31573W        W46704   8.578   2.612   4.541 -0.1806 -0.4400  0.1951
31574W        W46705  10.247  14.123  10.221 -0.1073 -0.2276 -0.0966
31575W        W46706  18.476  13.580  14.758 -0.0945 -0.2855 -0.0673
31576W        W46707   4.041  12.109  12.118  0.3355  0.1693 -0.0741
31577W        W46708   2.452   9.890   1.131  0.2503 -0.1681 -0.0723
31578W        W46709  14.490  14.516   1.405  0.1227  0.2332  0.0097
31579W        W46710  10.553   0.375   3.163  0.1285 -0.4780 -0.2631
31580W        W46711   8.529  13.081   2.386  0.0990  0.2174  0.0314
31581W        W46712   2.267   2.979   3.470 -0.2765  0.0580 -0.0991
31582W        W46713   3.933  12.894  12.931 -0.1497 -0.2016  0.0476
31583W        W46714  17.050   2.718  12.281 -0.1814 -0.0932 -0.1952
31584W        W46715  13.984  12.767   1.500  0.1711 -0.0806  0.0212
31585W        W46716   7.790  15.138   5.012  0.3099  0.1421 -0.1295
31586W        W46717  15.790   2.989  15.447 -0.5119  0.1827 -0.1830
31587W        W46718   9.827   7.131   3.252 -0.0739  0.0955  0.1313
31588W        W46719   1.467  10.089  10.666 -0.0727 -0.2647 -0.1087
31589W        W46720  13.542   0.491  14.222 -0.0398 -0.3207  0.0351
31590W        W46721  13.345  11.154   1.968 -0.2145  0.0159  0.0706
31591W        W46722   2.812   8.027   4.149 -0.1479 -0.4399  0.1052
31592W        W46723  17.431   0.456  14.747 -0.1057 -0.1615  0.0140
31593W        W46724  13.860   5.426  10.437  0.0274 -0.0684 -0.3442
31594W        W46725   2.296   4.103   2.367 -0.0189 -0.1287  0.0932
31595W        W46726  13.045   8.902  13.968 -0.2054  0.3105 -0.3784
31596W        W46727   5.566  14.570   9.183  0.1648  0.2236  0.0352
31597W        W46728  17.816   0.089   3.636  0.1996  0.0186 -0.4004
31598W        W46729  14.517  11.830   4.202  0.0624  0.1513  0.3115
31599W        W46730   9.846   1.977   1.281  0.1107 -0.5418  0.0870
31600W        W46731  13.637  11.280  11.736  0.0305 -0.0171 -0.2239
31601W        W46732   2.990  12.767   3.955  0.2193 -0.0363  0.2086
31602W        W46733   2.139  11.198   0.604  0.2020 -0.0458 -0.0188
31603W        W46734   2.898  14.789  12.425 -0.0352  0.0214 -0.2765
31604W        W46735  15.657   9.106  14.819  0.2139  0.0904  0.3914
31605W        W46736  13.050   7.337   4.804 -0.0049 -0.1560 -0.1286
31606W        W46737   9.141   1.402  12.397  0.0115 -0.1174  0.0989
31607W        W46738   5.162  18.495   2.260  0.0222  0.0574 -0.2222
31608W        W46739   2.093   0.744  15.588  0.0731  0.0221 -0.0301
31609W        W46740  10.979  12.049   2.008 -0.2035 -0.0709 -0.1246
31610W        W46741   9.133  14.732  10.892  0.2053  0.1125  0.1651
31611W        W46742  16.061   4.561  11.984  0.0313 -0.1679 -0.4913
31612W        W46743   1.038  10.029   3.098 -0.1140  0.5105  0.0610
31613W        W46744  11.518   7.293  12.371  0.0110  0.0037  0.1505
31614W        W46745  16.673   2.195   3.718 -0.3750  0.1153  0.1857
31615W        W46746   2.535  16.258   3.068 -0.1010 -0.1136 -0.1083
31616W        W46747   8.046  10.010  10.518  0.2140 -0.0879 -0.0750
31617W        W46748  13.166  14.012   0.357  0.0932 -0.0038  0.3232
31618W        W46749   3.685  18.020  14.810  0.0884 -0.1166 -0.0695
31619W        W46750  10.029  14.969   0.755  0.0034  0.2236 -0.6542
31620W        W46751  11.848   1.058   1.159 -0.0814 -0.3244 -0.0323
31621W        W46752   3.007   9.165  11.516 -0.1959  0.1677 -0.0323
31622W        W46753   6.251  10.937   1.486 -0.1477  0.1561 -0.1514
31623W        W46754  12.994   5.452  11.582  0.2616 -0.0514 -0.1642
31624W        W46755   0.803   6.029  15.229 -0.0255 -0.2154 -0.2042
31625W        W46756   3.483  12.110   3.556  0.1394 -0.0775 -0.0094
31626W        W46757   0.311  17.426  13.289  0.0422 -0.1965  0.0856
31627W        W46758  16.237   6.198  15.459 -0.0298 -0.0295  0.2618
31628W        W46759  12.686   5.008   5.308  0.1705  0.0007  0.1004
31629W        W46760  10.233   6.542  11.105  0.2273 -0.0453 -0.0902
31630W        W46761  12.184  12.289   2.437  0.6564  0.0750  0.0364
31631W        W46762   0.032   0.521  11.687  0.1502  0.0351 -0.0987
31632W        W46763  13.816   9.970  15.286  0.2370 -0.0775  0.4531
31633W        W46764   0.337  15.432  12.661  0.1359 -0.0485 -0.5261
31634W        W46765  18.351  10.800  14.775  0.2261  0.2244  0.0218
31635W        W46766  14.312   0.572  10.529 -0.1915  0.2059 -0.5410
31636W        W46767   1.895  15.978  13.443  0.1086 -0.0233  0.2820
31637W        W46768  15.667   1.357   1.170 -0.1543 -0.1385 -0.0859
31638W        W46769  14.999   2.802  11.393  0.0809 -0.0676  0.0123
31639W        W46770  13.447  18.459  11.711 -0.0119 -0.0988 -0.3442
31640W        W46771   1.657   0.721  10.475 -0.1627 -0.0536 -0.3611
31641W        W46772   4.797   7.266   4.298 -0.0130  0.1875 -0.0112
31642W        W46773  14.505  14.810  13.610 -0.0569  0.1498  0.0254
31643W        W46774   3.334  15.972   3.331 -0.2677  0.5466  0.0474
31644W        W46775   6.142   0.489  15.514 -0.0325  0.1525 -0.1664
31645W        W46776  11.833   3.739  14.571  0.3359 -0.0453 -0.0313
31646W        W46777   1.829   1.350   2.482 -0.0930  0.2177 -0.0018
31647W        W46778  12.116  12.973  14.712  0.2470  0.1046 -0.0151
31648W        W46779   4.476   0.175   1.955 -0.0916  0.1872 -0.3661
31649W        W46780  10.974   9.446   5.599 -0.2218  0.3552 -0.0602
31650W        W46781   9.275   5.982  12.004 -0.1912  0.0794 -0.0993
31651W        W46782   2.281  11.015   4.076 -0.0413  0.0101 -0.3208
31652W        W46783   1.780   8.057  12.308 -0.0526  0.2550 -0.0867
31653W        W46784   4.866  12.637   9.937 -0.0836  0.1309  0.0567
31654W        W46785   9.552   9.786   5.535 -0.0443 -0.3106  0.0657
31655W        W46786  14.487  13.160  10.169  0.2463  0.0664  0.0879
31656W        W46787   5.214   5.846  13.115 -0.0373  0.1600  0.0077
31657W        W46788   2.116   1.700   5.314  0.1101  0.1985 -0.0368
31658W        W46789  15.425  14.582  15.235  0.0631 -0.2332  0.2904
31659W        W46790  15.610  13.897   3.735 -0.0416 -0.2751  0.0553
31660W        W46791  12.626  10.022  14.925  0.2036 -0.0682 -0.0264
31661W        W46792  14.339   1.717   1.276 -0.0774 -0.0328  0.2079
31662W        W46793   1.127   1.657   2.013 -0.2178 -0.0749  0.0983
31663W        W46794  10.762   4.201   0.982 -0.1202  0.4577 -0.1021
31664W        W46795   9.986   5.569   3.404  0.2440  0.1081 -0.1265
31665W        W46796  12.291   1.879  11.515 -0.0417 -0.0056  0.3075
31666W        W46797  15.290   5.645   1.157  0.0271 -0.0429 -0.1705
31667W        W46798  15.698  11.621  12.267  0.3909 -0.1969 -0.1107
31668W        W46799  13.185   2.932  11.026 -0.0118  0.2933  0.0720
31669W        W46800  13.749   9.447  12.703  0.1969  0.0986 -0.0833
31670W        W46801  13.716  11.545  13.194 -0.1073  0.2832 -0.1976
31671W        W46802  16.012  16.790   1.073  0.1988  0.2063  0.2415
31672W        W46803   3.727  13.198   2.647 -0.1617  0.1971  0.3042
31673W        W46804  11.327  13.600  14.455  0.0863  0.2954  0.0855
31674W        W46805  10.958   2.807   0.069  0.0568  0.1382  0.2610
31675W        W46806   7.917   6.750   1.055  0.1834 -0.0406 -0.0472
31676W        W46807  13.943   1.307  11.540  0.1544  0.0258  0.2144
31677W        W46808   7.581   0.390   1.701 -0.2559 -0.0032 -0.1601
31678W        W46809   9.842   4.655   2.530 -0.2775  0.1072  0.0321
31679W        W46810   9.104  18.167   4.249 -0.2246  0.1517  0.3486
31680W        W46811   3.067  11.983   2.110 -0.0019  0.1878  0.1555
31681W        W46812   4.694  18.548   0.570  0.2335  0.1319 -0.1555
31682W        W46813   1.602   5.074  11.906  0.0839 -0.0043 -0.2467
31683W        W46814  10.489  10.233   0.489  0.5138  0.0950  0.0312
31684W        W46815  14.942   7.990  13.136  0.1853 -0.0920  0.2210
31685W        W46816   6.088  13.321  13.966 -0.2619 -0.3713  0.1215
31686W        W46817  17.740  10.567   0.901 -0.2004  0.0883 -0.1418
31687W        W46818  18.135   1.222   5.371 -0.3424 -0.0862  0.3802
31688W        W46819   0.492   0.382  10.026 -0.2616  0.0506  0.0010
31689W        W46820  12.309   7.536  14.830  0.0148 -0.0055 -0.0662
31690W        W46821   7.011  17.901   3.516  0.2645  0.1847  0.0029
31691W        W46822  12.176   8.688  14.328 -0.3272 -0.0768 -0.3018
31692W        W46823  12.192   2.614  15.221 -0.1144 -0.0348  0.0849
31693W        W46824   4.113  16.263  14.350  0.1344  0.3883  0.1833
31694W        W46825   9.528  15.495  12.911  0.1678 -0.1129 -0.3627
31695W        W46826  16.908  16.892   1.081 -0.0065  0.3247 -0.0291
31696W        W46827   8.433   7.380  15.008  0.1025 -0.3465  0.0231
31697W        W46828  12.478  14.597   0.322  0.2759 -0.1190  0.0986
31698W        W46829   3.437  14.958  14.621 -0.1168 -0.2160  0.3087
31699W        W46830   5.555  14.062   5.821 -0.0248 -0.1458 -0.0810
31700W        W46831  14.426  17.157  10.444  0.1471 -0.2960  0.0987
31701W        W46832   4.889   9.903  10.766  0.3401  0.0675 -0.0788
31702W        W46833   6.770   4.738  12.657 -0.2373 -0.0719  0.2608
31703W        W46834  12.476   6.281  11.787 -0.3543  0.0933  0.0449
31704W        W46835   9.642   5.026   0.923 -0.0206  0.2393 -0.4649
31705W        W46836   8.404   5.366   2.386 -0.1686  0.0486 -0.2984
31706W        W46837  15.896  14.993  12.238 -0.2279  0.2285  0.0985
31707W        W46838   0.312  12.652  11.876 -0.1070 -0.1387 -0.0461
31708W        W46839  13.597  17.826   0.747 -0.1925 -0.1950 -0.0019
31709W        W46840   0.164   3.939   1.902  0.2435 -0.1868  0.2104
31710W        W46841  12.066   3.632  12.326  0.0239 -0.3679 -0.1024
31711W        W46842   5.079   7.424   4.729  0.4780  0.2280  0.0473
31712W        W46843   3.138  15.403   1.002 -0.4092  0.3759  0.2630
31713W        W46844  14.250   1.402   4.772 -0.0182 -0.0114  0.0042
31714W        W46845   8.257  17.928   2.532 -0.2622  0.3619 -0.1791
31715W        W46846  12.174  14.655  15.179 -0.3135  0.3542 -0.2186
31716W        W46847   6.561   4.908   2.439 -0.2624 -0.0004  0.0149
31717W        W46848   0.990   2.573   2.068  0.1014 -0.0972 -0.1374
31718W        W46849  13.551   7.761  11.897  0.0976  0.0484 -0.1070
31719W        W46850  16.807   5.722  12.509 -0.2248 -0.1097 -0.2132
31720W        W46851   4.005   9.837   2.127  0.0063  0.2058 -0.2431
31721W        W46852   1.305  11.697  12.140 -0.0506 -0.0883  0.0152
31722W        W46853   4.593  14.072  10.869  0.1951  0.1631 -0.2811
31723W        W46854   2.557  16.153   4.130 -0.1679 -0.1936 -0.2490
31724W        W46855   9.922   9.030   0.951 -0.0304  0.1059 -0.2980
31725W        W46856   6.869   9.407   1.859 -0.0406  0.2700 -0.0519
31726W        W46857  12.416  13.203  12.808  0.0094 -0.2015 -0.0285
31727W        W46858   3.800   8.711  12.162  0.0580  0.2779 -0.1633
31728W        W46859  15.549   0.796  13.057 -0.0209 -0.0140 -0.0696
31729W        W46860  13.576   8.713  11.524  0.3412 -0.0515  0.1155
31730W        W46861  10.021  17.119  14.579  0.0134  0.4085  0.2714
31731W        W46862   1.016   7.516   1.690 -0.0697  0.0302  0.0069
31732W        W46863  13.771   5.972  11.624 -0.0811  0.0112 -0.1310
31733W        W46864   3.000   2.155   3.387 -0.1474 -0.1732 -0.1128
31734W        W46865  15.176  15.604  10.672 -0.0514  0.0293  0.3436
31735W        W46866   0.668   6.085  14.752 -0.3381 -0.0485  0.2507
31736W        W46867   0.750  16.013   3.394  0.1226 -0.1335  0.1420
31737W        W46868   2.395   9.733   3.026  0.2051 -0.3088  0.2742
31738W        W46869   0.746  13.068   2.475  0.0141 -0.1332 -0.1003
31739W        W46870  13.759  14.916   5.925 -0.2724 -0.2813 -0.1803
31740W        W46871   0.176   5.770  10.124 -0.0475  0.1286  0.4035
31741W        W46872   8.353  17.003   9.354  0.0595  0.0866 -0.4970
31742W        W46873   2.606   6.050  10.486  0.3284 -0.0431  0.0713
31743W        W46874   3.949   7.717   5.111  0.1773  0.1943 -0.2014
31744W        W46875  17.043  16.692   3.933  0.1185  0.2054  0.1157
31745W        W46876   0.249   6.817   1.262  0.0617 -0.2337 -0.0169
31746W        W46877  18.207   5.628   3.499  0.2659  0.1697 -0.0490
31747W        W46878  13.722   2.859  15.130  0.0661  0.1524  0.2790
31748W        W46879  10.997  18.090  13.561  0.0085 -0.4868  0.0658
31749W        W46880   6.956  10.564   1.838  0.3771 -0.1518 -0.2537
31750W        W46881   9.794   0.832  13.307  0.0150 -0.1719  0.1813
31751W        W46882   4.701   4.750  10.375 -0.1812  0.1088  0.0810
31752W        W46883   4.203  10.200  11.004  0.1907  0.3836 -0.1705
31753W        W46884  16.455  13.733   5.131  0.2258  0.0566  0.2448
31754W        W46885   8.358  10.333  12.357  0.0725  0.1622  0.0685
31755W        W46886   9.271  15.340   3.662  0.0294 -0.3544 -0.1922
31756W        W46887   9.631   6.109  12.985 -0.0871 -0.3232  0.1482
31757W        W46888   6.890   6.339  11.418  0.0699 -0.2324  0.2437
31758W        W46889  15.094   8.126   0.434 -0.3196  0.0617 -0.2199
31759W        W46890  11.796   0.114   2.050 -0.0567 -0.1486  0.1360
31760W        W46891   1.002  15.945   0.546  0.0644 -0.2583 -0.0635
31761W        W46892   1.114  18.087  12.851  0.0212 -0.0829 -0.0982
31762W        W46893  11.665   4.543  13.147 -0.1379 -0.1070  0.1953
31763W        W46894  12.209  13.003   1.322 -0.1503  0.0497  0.1094
31764W        W46895   6.393  14.710   0.256 -0.1189  0.2340 -0.1226
31765W        W46896   7.734   3.728   2.272  0.0184  0.1912 -0.1135
31766W        W46897   4.597  12.321  12.201 -0.0267 -0.0716 -0.1259
31767W        W46898  14.414   1.664  11.305  0.2956  0.0172  0.1873
31768W        W46899   0.415   0.760  10.356  0.1172  0.1408  0.1653
31769W        W46900   2.102  11.979   3.844  0.3800 -0.2770  0.1756
31770W        W46901   1.969  16.920  11.401 -0.1103 -0.3891 -0.0510
31771W        W46902   9.657   8.596  14.845  0.0223  0.1272 -0.3355
31772W        W46903   8.757   6.557   4.345  0.2529 -0.0185 -0.3207
31773W        W46904  16.152   1.139   3.842  0.3747 -0.0718 -0.2517
31774W        W46905   6.789   2.676  14.281 -0.1926 -0.1637 -0.1212
31775W        W46906   6.121  11.059  14.769 -0.3862 -0.1313  0.1034
31776W        W46907  16.923   3.619  11.668 -0.1627  0.1616  0.0988
31777W        W46908   0.971   9.835   3.980 -0.1819  0.0445  0.1140
31778W        W46909   6.760  11.948   2.005 -0.1126  0.0238 -0.1265
31779W        W46910   1.146  12.984   2.090  0.0989  0.0710 -0.1887
31780W        W46911  11.284  17.338  12.365 -0.1949 -0.1536  0.0428
31781W        W46912   4.269  12.878  10.768 -0.2877  0.2247 -0.2668
31782W        W46913   8.367  13.963  12.219  0.1577 -0.2140 -0.0037
31783W        W46914  15.714  13.852   3.021  0.2639 -0.1377  0.0806
31784W        W46915   7.029   9.625   5.152 -0.0328 -0.1348  0.1187
31785W        W46916  16.225   6.443  14.313 -0.2080 -0.0286 -0.2184
31786W        W46917   1.361   9.026  13.567 -0.1856 -0.2141  0.1742
31787W        W46918  16.850  18.146  12.847 -0.0722 -0.0755 -0.0239
31788W        W46919  12.386   5.459   5.302  0.2172 -0.1735 -0.0914
31789W        W46920   7.180   5.239  14.573 -0.1465 -0.2348 -0.0079
31790W        W46921   9.027   6.873   1.379  0.1252  0.0877  0.1671
31791W        W46922   1.348  13.725  11.748 -0.0228 -0.0855  0.0907
31792W        W46923   2.423  13.313   2.080  0.1062  0.0085  0.0573
31793W        W46924   6.495   0.289   2.667 -0.0576 -0.1851 -0.1634
31794W        W46925   9.928   8.988   4.791 -0.1055  0.0760  0.1716
31795W        W46926   1.078  13.706  11.333  0.0872 -0.2289 -0.1478
31796W        W46927  16.180   3.984   0.735  0.3349  0.0031 -0.1451
31797W        W46928   5.674  12.441   1.174  0.0226  0.3902  0.1024
31798W        W46929   5.847   3.345   3.460 -0.0732 -0.1375 -0.1985
31799W        W46930   8.450  14.691  15.001  0.0007  0.2829 -0.1809
31800W        W46931   5.264   1.623  11.773  0.0862 -0.0074  0.0278
31801W        W46932   5.546  18.428   1.302  0.3220  0.0638 -0.0276
31802W        W46933  10.668  12.224   5.033  0.2208 -0.3528  0.1364
31803W        W46934   4.947  17.349   0.527  0.5403  0.1479 -0.0871
31804W        W46935   6.716  18.518  10.295  0.4127  0.1415  0.0395
31805W        W46936   7.151  12.091  13.667 -0.0154  0.3197  0.1954
31806W        W46937   1.249  10.732  13.423  0.0478 -0.0290  0.2194
31807W        W46938   7.193   8.429   0.926 -0.0860  0.0621  0.2039
31808W        W46939   4.014  12.587  15.534  0.1419 -0.1844 -0.0770
31809W        W46940  16.429   5.646  11.263  0.0721 -0.1044 -0.1099
31810W        W46941   9.139  10.700   1.748 -0.0124  0.1008  0.2688
31811W        W46942  15.353   9.651   1.907 -0.1266  0.3683 -0.2607
31812W        W46943   5.481   5.278  15.458  0.0104  0.1472 -0.0414
31813W        W46944  12.529   7.932  12.491 -0.1213  0.0576 -0.2665
31814W        W46945   3.902  11.928  12.602  0.0104 -0.0864  0.1686
31815W        W46946   7.707  13.621   0.412 -0.0010 -0.0063  0.0376
31816W        W46947   0.531   3.959   0.385 -0.0839 -0.3551 -0.2269
31817W        W46948  11.787  10.121   5.924 -0.2774 -0.0249  0.0688
31818W        W46949  12.793  15.290   4.437  0.0440  0.0322  0.0869
31819W        W46950  16.387  14.211  12.809  0.4323 -0.0668  0.1722
31820W        W46951  12.606  17.477   3.608 -0.0510  0.3149 -0.2021
31821W        W46952  10.447   4.728   3.228  0.0510 -0.0729 -0.1198
31822W        W46953  16.324   7.350  13.288  0.0205 -0.0041  0.0633
31823W        W46954  12.796   1.593   6.059 -0.0278  0.4934 -0.2542
31824W        W46955   6.363   2.146   4.456  0.4218 -0.3765 -0.1046
31825W        W46956   3.523   9.794   2.353 -0.0590 -0.2517 -0.1361
31826W        W46957  11.273   2.060  12.424 -0.1938  0.1793  0.0747
31827W        W46958  13.007  11.674  13.772 -0.0173 -0.1421  0.1786
31828W        W46959   8.568  16.780  13.885  0.2032  0.0147  0.0109
31829W        W46960   1.460   7.053  14.715  0.2743  0.2407  0.1345
31830W        W46961  17.576  10.498   0.071  0.0873 -0.0846  0.0009
31831W        W46962  17.106  11.873   1.013 -0.1345 -0.3496  0.0350
31832W        W46963   5.974  16.193  14.852  0.4886 -0.0620 -0.0120
31833W        W46964   0.696   8.050   4.602  0.1561 -0.0925  0.0045
31834W        W46965  17.488  17.152  11.322  0.1834  0.0726 -0.0368
31835W        W46966  11.950   0.120  12.445  0.0598  0.3086 -0.0663
31836W        W46967   6.591   8.112  12.235  0.1767  0.1803 -0.2557
31837W        W46968  12.331  14.768   4.243  0.0156 -0.0208 -0.2097
31838W        W46969   0.938  18.583   2.453  0.0495  0.1242  0.1187
31839W        W46970  13.837  14.675  14.477  0.0118  0.0529 -0.2782
31840W        W46971   6.997   3.462   1.522  0.3064  0.0761 -0.0133
31841W        W46972   5.820   6.558   4.884 -0.1918 -0.0526 -0.0201
31842W        W46973  10.339  10.089   5.865 -0.0581 -0.2486  0.2191
31843W        W46974   5.562   7.102  11.806 -0.4039  0.2007  0.2714
31844W        W46975   3.421   6.530  10.977  0.2207 -0.2806  0.1622
31845W        W46976   3.210   8.271  15.339 -0.0765  0.0904  0.1764
31846W        W46977  12.911   9.943   2.882 -0.0608 -0.1884 -0.1655
31847W        W46978   7.000  13.962  13.721  0.4667 -0.1972 -0.1739
31848W        W46979  14.481  12.733   0.254 -0.1655  0.2233  0.0497
31849W        W46980  12.806   9.898   4.994 -0.0129  0.0350 -0.1011
31850W        W46981   0.882   4.936   3.466 -0.0815  0.1008  0.1934
31851W        W46982  11.385  14.300  15.627  0.0465 -0.1050  0.0173
31852W        W46983  11.041   2.501  12.139 -0.0245 -0.0125 -0.2410
31853W        W46984  10.526  17.025  14.502 -0.0497  0.0958  0.1057
31854W        W46985  12.942  11.334   1.634  0.0042  0.1509 -0.1472
31855W        W46986   2.248  14.291  11.872  0.2950  0.2047  0.1932
31856W        W46987   0.167   8.421   4.605  0.3117 -0.3526 -0.0969
31857W        W46988  14.798  13.755   5.298 -0.1427 -0.0463 -0.0734
31858W        W46989   5.412   2.321  13.266 -0.2306  0.0323  0.1744
31859W        W46990  18.753  12.214   3.918 -0.1359 -0.1279  0.1244
31860W        W46991  17.198   4.239   3.314  0.0322  0.0237 -0.4933
31861W        W46992   0.432  16.621   2.343  0.2389  0.1729  0.2342
31862W        W46993  12.076   0.442  14.949  0.0650  0.1586 -0.1163
31863W        W46994  15.049   7.901  10.063 -0.0041  0.1604  0.0973
31864W        W46995   7.517   4.318   9.864 -0.0823 -0.1675 -0.0982
31865W        W46996  10.891   9.802   5.224  0.0361 -0.0472 -0.0976
31866W        W46997   9.602  15.734  12.269  0.0912  0.0544 -0.2860
31867W        W46998   2.628  12.074   5.219  0.0254  0.2218  0.0899
31868W        W46999  10.670  10.603   5.200 -0.1057 -0.0534  0.0924
31869W        W47000  10.652   2.121  11.967 -0.0889 -0.0580 -0.0128
31870W        W47001  16.802   4.753   2.772  0.3941  0.2167  0.1574
31871W        W47002   3.113   6.753  13.887 -0.1280 -0.0670  0.0012
31872W        W47003  14.121  16.961   2.972 -0.1404 -0.1329 -0.3272
31873W        W47004   4.048   3.174   1.447 -0.0503  0.0846  0.0885
31874W        W47005   7.461  15.309   3.522 -0.1226  0.3814 -0.1109
31875W        W47006   6.886   2.735  10.680 -0.2672  0.1593  0.0303
31876W        W47007   3.809  11.193   3.189  0.0849 -0.1839 -0.0117
31877W        W47008  16.217   3.599   0.271 -0.0415  0.3056  0.0715
31878W        W47009  13.908  13.187   4.609 -0.3857  0.1892  0.5750
31879W        W47010  17.473  17.304   0.563  0.3058 -0.0620 -0.0245
31880W        W47011  11.434   2.758   9.679  0.3665 -0.1488 -0.0263
31881W        W47012  12.172  18.249  14.057  0.2296 -0.0130 -0.2115
31882W        W47013  11.052  14.024  15.382 -0.0222 -0.1128  0.2886
31883W        W47014  18.048  18.750  15.495  0.2945  0.0184 -0.3910
31884W        W47015   9.275   8.753  12.255  0.1786  0.0270  0.1051
31885W        W47016  10.043   2.877   5.383 -0.0908 -0.0693 -0.2488
31886W        W47017  12.527   3.810   5.350  0.2798 -0.1867  0.2078
31887W        W47018   8.285   6.550   1.440  0.0166 -0.1202 -0.1655
31888W        W47019   4.711   5.945   3.281  0.1623  0.1124 -0.0194
31889W        W47020  11.465  11.874   2.157 -0.0823 -0.0642  0.2519
31890W        W47021  15.233  13.284  11.443 -0.2653  0.0559  0.2173
31891W        W47022   7.532  17.628  11.904 -0.1690 -0.1883  0.1745
31892W        W47023  10.614   0.219   5.306  0.1672 -0.0994 -0.3147
31893W        W47024  13.408   1.894  11.116 -0.0767  0.3626  0.0464
31894W        W47025  17.880  14.157  10.444  0.0162  0.2473  0.2878
31895W        W47026  14.084   0.399  13.263  0.1853  0.0694  0.1718
31896W        W47027   8.796   0.108   0.810  0.1936 -0.0314 -0.2562
31897W        W47028  12.022   8.867   6.273  0.1495 -0.1353  0.0687
31898W        W47029  12.969  11.800   6.511 -0.1881 -0.2244  0.0504
31899W        W47030  14.931  14.803   5.316  0.1086 -0.1502 -0.0381
31900W        W47031   6.688   4.137  13.527  0.1183  0.1302 -0.2218
31901W        W47032  14.526  10.803  14.662  0.4105  0.2645 -0.2271
31902W        W47033   0.327   4.824   3.031  0.2857 -0.3206 -0.1641
31903W        W47034   0.939   4.362   1.337 -0.0906 -0.1765 -0.3194
31904W        W47035  14.113  18.409   0.518 -0.3112  0.0627 -0.0398
31905W        W47036   5.550   3.459  11.546 -0.0091 -0.2093 -0.1244
31906W        W47037   3.732  15.825   5.357 -0.0212 -0.1024 -0.0670
31907W        W47038   7.129  11.507   3.326  0.2226 -0.0998 -0.0239
31908W        W47039   7.365   5.403  12.577  0.0999  0.0046  0.3060
31909W        W47040  10.259  17.316  11.970  0.5233  0.2585  0.2961
31910W        W47041   9.193  16.310   2.117  0.0474 -0.3098  0.2596
31911W        W47042   2.024  10.451  15.639 -0.2460 -0.0235 -0.1525
31912W        W47043   2.245   9.095   0.697 -0.0741 -0.0258  0.2511
31913W        W47044   7.302  15.319  11.025  0.1624  0.2180  0.0794
31914W        W47045   6.289  18.210  15.525 -0.1387  0.1067 -0.1333
31915W        W47046  11.083   3.164  14.914  0.0710  0.0383  0.2185
31916W        W47047   7.883  13.735  12.445 -0.4210  0.0565 -0.1121
31917W        W47048   8.556  14.025   2.212 -0.1816  0.2438  0.0174
31918W        W47049  15.201  11.340   5.986  0.2066 -0.0342  0.2489
31919W        W47050  18.695   8.727  15.149  0.0558  0.0950  0.1920
31920W        W47051   9.643   5.727   1.272  0.0885 -0.0747 -0.1303
31921W        W47052   1.583   6.309  13.696 -0.0801 -0.0920  0.5520
31922W        W47053   7.786  17.105   1.952  0.1771 -0.0771 -0.0007
31923W        W47054   9.292   8.630  11.628 -0.3551  0.0629  0.1989
31924W        W47055   6.980  18.395  13.044 -0.0238  0.0823  0.4725
31925W        W47056  12.350  18.732  11.005  0.0042  0.0686  0.0338
31926W        W47057   8.721   0.419   3.510 -0.3093 -0.2915  0.0656
31927W        W47058   2.693   7.086  15.443 -0.1146  0.1070  0.2903
31928W        W47059   6.516  18.557   2.393  0.0897 -0.0545 -0.0348
31929W        W47060  16.154   7.987   4.302 -0.1789  0.0202 -0.0697
31930W        W47061   8.720   9.272  11.881 -0.2739 -0.0280 -0.0459
31931W        W47062   8.640  12.638   4.983 -0.2477 -0.0123  0.2341
31932W        W47063   7.660  15.873   0.307 -0.4237 -0.0437  0.2796
31933W        W47064   7.860   6.686   3.193 -0.0663  0.0325  0.0569
31934W        W47065   5.109  13.626   2.282 -0.2333 -0.0803  0.2571
31935W        W47066   5.603   5.309   1.613 -0.1070  0.3442 -0.1466
31936W        W47067   1.681  17.618  13.495  0.1940 -0.0768  0.3086
31937W        W47068  12.074  10.549  15.397  0.0446 -0.0253  0.0591
31938W        W47069  10.444   9.765  13.989  0.3345 -0.0874 -0.0973
31939W        W47070  17.813  13.831  13.431  0.1051  0.0008 -0.4731
31940W        W47071   0.149   1.618   3.683 -0.1497  0.1644  0.0889
31941W        W47072   7.241  15.970   9.958  0.0161 -0.2924  0.1168
31942W        W47073  17.368  14.001   0.697  0.0066 -0.1791  0.1333
31943W        W47074  14.736   9.554   5.334  0.0042  0.2067 -0.1080
31944W        W47075  13.439   6.443   2.309 -0.3121 -0.2540 -0.1302
31945W        W47076  16.906   0.955  11.514 -0.0082 -0.0394 -0.1091
31946W        W47077   3.559   4.439   1.660 -0.1719 -0.0568 -0.0088
31947W        W47078   7.768  11.933   1.683  0.0389  0.0205 -0.2507
31948W        W47079   7.904   8.747  11.152  0.1562  0.1365  0.0107
31949W        W47080   5.460  12.533  14.045 -0.0034  0.1086  0.0290
31950W        W47081   6.335   5.063   4.653 -0.0022  0.5180  0.2053
31951W        W47082   3.363  10.330  13.233  0.1448 -0.0095 -0.0984
31952W        W47083   1.227   3.753   4.266  0.4901  0.3129 -0.0946
31953W        W47084  17.868  13.789   2.050 -0.0124 -0.2640  0.2667
31954W        W47085  10.948  17.607   4.519 -0.0863 -0.0857  0.1670
31955W        W47086  18.499   1.966   1.415  0.1389  0.1423  0.1634
31956W        W47087  11.471   0.550  11.855  0.0649  0.0423 -0.3207
31957W        W47088  15.455  11.291   0.238 -0.1948  0.2644 -0.2099
31958W        W47089   6.553  17.602  13.912  0.0893 -0.0918  0.0596
31959W        W47090   0.564  10.284  15.423 -0.1109  0.1382 -0.0927
31960W        W47091  13.845  14.767  13.290 -0.1883  0.0823  0.0951
31961W        W47092   9.170   0.154  12.612  0.2879 -0.1555  0.0592
31962W        W47093  14.229  14.824   4.589 -0.2175  0.1414  0.0859
31963W        W47094   7.615   8.473   6.133 -0.1138  0.0023 -0.1924
31964W        W47095   8.415   8.753  11.087 -0.1440  0.1212 -0.3944
31965W        W47096  13.967   3.942   5.152  0.3427  0.1769 -0.0026
31966W        W47097   3.336  12.299  11.674 -0.2452 -0.1021  0.0904
31967W        W47098   4.415  16.855   3.534 -0.2592  0.1078 -0.2551
31968W        W47099  13.930   3.621  10.957 -0.1152 -0.0871 -0.0294
31969W        W47100   4.506   1.632  10.790 -0.1587  0.1491  0.1260
31970W        W47101  14.570  12.380   5.253  0.0799 -0.1159  0.0060
31971W        W47102  11.786   6.627   6.059  0.1037  0.0643 -0.2777
31972W        W47103   2.566  10.112   4.084 -0.2866  0.2406 -0.0536
31973W        W47104   2.342  13.301   2.590 -0.1391  0.0342 -0.1102
31974W        W47105  11.911   1.026   1.659  0.2797 -0.1277  0.0569
31975W        W47106   7.108   4.655   3.648 -0.1655 -0.1884  0.0387
31976W        W47107  13.019  14.097   1.929  0.0999 -0.0957 -0.3500
31977W        W47108   1.512   9.360  14.558  0.1774  0.1720  0.0221
31978W        W47109  14.727   1.054  10.482  0.1068  0.1939 -0.0352
31979W        W47110  12.489  15.870   3.769  0.0546 -0.0241 -0.0928
31980W        W47111   8.118  12.796   1.676 -0.0572  0.0345  0.0132
31981W        W47112   2.594   3.756  15.609  0.2510 -0.0794 -0.1647
31982W        W47113  15.793   7.863   1.603 -0.0453 -0.0565 -0.0240
31983W        W47114  11.179   7.688  12.175  0.2327 -0.0104 -0.0605
31984W        W47115   6.341   8.949   4.928  0.1394 -0.1106 -0.1180
31985W        W47116  13.327   3.174  14.660 -0.1507 -0.1519  0.1602
31986W        W47117   0.068   4.499  11.477  0.1776 -0.0811  0.1120
31987W        W47118  14.305   0.725   0.320 -0.2968  0.1226 -0.0603
31988W        W47119   7.695  14.043   2.525  0.3228 -0.0964 -0.3737
31989W        W47120   1.904   8.192  14.863  0.1914  0.2172  0.2907
31990W        W47121   2.975   7.996  12.152  0.1916 -0.0706  0.2704
31991W        W47122   0.516   9.158  12.457 -0.2186 -0.1550 -0.0225
31992W        W47123   5.374   1.113   2.586 -0.2094  0.2078 -0.1094
31993W        W47124  11.089  11.993   5.201 -0.2642  0.0286 -0.1974
31994W        W47125   1.612   3.631   0.244  0.2134 -0.3077  0.5093
31995W        W47126  13.713  17.017  11.644  0.2506  0.1494  0.1128
31996W        W47127   4.956   3.802   3.371  0.1338 -0.0749  0.1608
31997W        W47128   6.597   3.185  12.973  0.1430 -0.0414 -0.0413
31998W        W47129  16.791   3.371   0.183 -0.3356  0.0222  0.2265
31999W        W47130  13.991  12.973  13.989  0.1675  0.0102 -0.0633
32000W        W47131   4.975   3.869  11.510 -0.1762  0.1723 -0.1759
32001W        W47132   9.423  18.087   9.610 -0.0134 -0.1887  0.0032
32002W        W47133   2.967   1.274   4.370  0.2907 -0.0340 -0.1506
32003W        W47134   7.343  10.313  14.649 -0.1677  0.1791 -0.1010
32004W        W47135   6.719  15.988  15.152 -0.0363  0.1348 -0.1217
32005W        W47136  17.103  11.140  11.036  0.0711  0.4777  0.4095
32006W        W47137  18.739  14.379  13.704 -0.0204  0.2664 -0.0937
32007W        W47138   0.031   2.024  11.019  0.0496  0.3964 -0.1159
32008W        W47139  12.028   3.365   2.237  0.1599 -0.2749  0.1718
32009W        W47140   8.556  11.994   0.123 -0.1217 -0.1500 -0.0999
32010W        W47141   9.913  14.714   4.258 -0.0283 -0.0944  0.2762
32011W        W47142   2.355  12.473   1.021 -0.2296 -0.1572 -0.1639
32012W        W47143  16.847  17.423  14.051 -0.3706 -0.0719 -0.1123
32013W        W47144   2.219  16.150  14.348  0.2446  0.0878  0.1413
32014W        W47145   2.146   0.283  15.748 -0.3447  0.3642 -0.0306
32015W        W47146   3.391   8.256  12.864 -0.1871  0.0032  0.0451
32016W        W47147   8.804   6.289   2.103 -0.0743 -0.1256 -0.0842
32017W        W47148   5.838  14.802   2.291 -0.5080 -0.0704  0.1022
32018W        W47149  17.089   6.608   0.268 -0.2029  0.1084 -0.2291
32019W        W47150   9.360   2.892   4.030  0.0808  0.2766  0.4252
32020W        W47151  11.032   8.318  14.228 -0.1863  0.0633  0.0242
32021W        W47152   9.057  10.376   4.449  0.2561  0.0300  0.4243
32022W        W47153   1.770   0.478   0.925 -0.0606  0.0589  0.0064
32023W        W47154   9.197   1.093  10.146 -0.1246  0.2973 -0.5488
32024W        W47155   3.513  12.423  15.351 -0.2635  0.1616  0.2794
32025W        W47156  15.303   7.992   3.838 -0.0348  0.0067 -0.1943
32026W        W47157  11.262   0.096   0.448 -0.2191  0.3071  0.1191
32027W        W47158  14.198  10.053   0.711 -0.1667 -0.0003  0.0284
32028W        W47159   6.836   2.439   2.401  0.2181  0.0133 -0.3528
32029W        W47160   2.495  16.627  14.276  0.0157 -0.1901 -0.4332
32030W        W47161  17.996   0.448   2.313  0.1772 -0.0835 -0.0480
32031W        W47162  11.744  10.592   0.584 -0.0119  0.4176  0.2516
32032W        W47163  17.922  14.968   1.920  0.0067  0.0902  0.0045
32033W        W47164   5.958   5.435   1.931 -0.1364  0.0529 -0.0601
32034W        W47165  17.370   6.082  13.628  0.0736  0.1663 -0.1485
32035W        W47166  14.101  14.176   4.577  0.0468 -0.1475 -0.0424
32036W        W47167   6.377   6.646  10.334 -0.2848  0.3016  0.1244
32037W        W47168   8.994  13.271  15.319  0.2105 -0.2019  0.1511
32038W        W47169  17.523   1.912  14.856  0.2148 -0.2905 -0.2490
32039W        W47170  13.561  13.103  14.908  0.1564 -0.0594 -0.1519
32040W        W47171   3.952   3.025  11.154 -0.0162 -0.0691 -0.4290
32041W        W47172  12.922   2.124  13.360 -0.3476  0.0486 -0.1149
32042W        W47173  17.225   9.169  15.124 -0.0569 -0.2843  0.0657
32043W        W47174   8.836  17.628   4.919  0.1674  0.1761  0.0068
32044W        W47175   8.832   7.474   4.049  0.2886  0.1365  0.0633
32045W        W47176  18.234  16.115  11.255  0.1075 -0.0625 -0.0518
32046W        W47177   7.369  13.322   4.164  0.2386  0.0348  0.0711
32047W        W47178   4.767  14.170  13.715  0.3804 -0.1789  0.2224
32048W        W47179   8.381  14.626  11.403 -0.2240 -0.1703  0.2107
32049W        W47180  15.025  15.512  15.205 -0.0967 -0.1458 -0.5344
32050W        W47181   6.821  14.487  14.172 -0.1753  0.1000  0.1879
32051W        W47182   0.583  11.033  13.672 -0.1538  0.3037 -0.2221
32052W        W47183  14.532  16.277  12.613  0.0674 -0.0072 -0.1516
32053W        W47184  13.664   9.990  12.554 -0.2572 -0.1062 -0.0196
32054W        W47185  18.086   1.689   5.162 -0.2942  0.1619 -0.0126
32055W        W47186   1.547   4.079  11.045  0.2179  0.0732 -0.0204
32056W        W47187   6.780   2.856   1.566  0.0626 -0.2331  0.2527
32057W        W47188   2.386   6.912   1.989 -0.1442  0.0370  0.4442
32058W        W47189  11.321   1.794   3.293 -0.1361 -0.0698  0.0524
32059W        W47190   5.185   3.292  15.281  0.0349 -0.0696 -0.2035
32060W        W47191   6.192  16.747   1.006  0.1241  0.1757  0.1847
32061W        W47192  12.796  14.068  12.127 -0.0033  0.1021 -0.4352
32062W        W47193   3.997   5.553  13.543 -0.0811 -0.1597 -0.1451
32063W        W47194   9.705  15.273  13.422  0.2704 -0.4408 -0.0417
32064W        W47195   7.752  12.072   1.132 -0.3635 -0.0668  0.0010
32065W        W47196   3.273  10.440  10.083 -0.0917 -0.1793  0.1573
32066W        W47197   7.859   2.293   1.571 -0.1785 -0.1090 -0.2293
32067W        W47198   3.887  10.663  12.382 -0.0211  0.2214  0.0631
32068W        W47199   1.844  16.654   0.874 -0.1905  0.1886 -0.1000
32069W        W47200   6.811   1.776  12.468 -0.0159  0.0033  0.0456
32070W        W47201  13.478  11.852  15.381  0.0286  0.0027  0.0404
32071W        W47202  13.047   2.642   2.718  0.3028 -0.2022 -0.1926
32072W        W47203   5.064  12.185  14.079 -0.0652 -0.2427  0.0484
32073W        W47204   1.046   4.066  15.378  0.2172 -0.2219 -0.0677
32074W        W47205   2.023   5.759  13.024 -0.1879  0.0102  0.0984
32075W        W47206  15.304  14.578  13.112  0.1162 -0.1192 -0.1066
32076W        W47207   9.638  10.343   5.412 -0.2126 -0.1805  0.1034
32077W        W47208   1.351   7.544  11.827 -0.1448  0.0558 -0.1121
32078W        W47209  11.231   6.782   3.599 -0.2568 -0.1177  0.0005
32079W        W47210  10.860  17.810   1.972  0.0037  0.0465 -0.3138
32080W        W47211   2.263  12.725  13.986 -0.1656 -0.1297 -0.2637
32081W        W47212  15.793  18.055   4.172 -0.1118  0.0989 -0.2251
32082W        W47213   1.911   6.624   5.421  0.0066 -0.0402  0.0540
32083W        W47214  10.465   8.374  14.286  0.0585  0.0417 -0.2027
32084W        W47215   2.608  13.180   5.389  0.2207 -0.2134 -0.2975
32085W        W47216   2.274  13.602  14.872 -0.2835  0.0736  0.2627
32086W        W47217   1.515   9.098  12.563 -0.0388 -0.1674 -0.2592
32087W        W47218   0.934  10.265  10.109  0.1928  0.0053  0.1893
32088W        W47219  12.715   4.188   5.620 -0.2300  0.2595 -0.0596
32089W        W47220   6.898  15.918  13.633  0.0284 -0.1604  0.1870
32090W        W47221   4.769   9.375   0.776 -0.0590  0.2293  0.0390
32091W        W47222   0.219   5.286  14.678 -0.0505  0.0816  0.1045
32092W        W47223  10.953   9.612   2.527  0.1590 -0.2669 -0.0991
32093W        W47224  16.832   2.930   0.025  0.2093  0.1536 -0.4120
32094W        W47225   5.648   4.742   3.557 -0.4403  0.0710  0.3020
32095W        W47226   8.890   6.578  13.498 -0.1414  0.5219 -0.1801
32096W        W47227   5.830  10.908   6.225 -0.0585 -0.0725  0.1875
32097W        W47228  16.941   6.300  11.844  0.0930 -0.0235 -0.2820
32098W        W47229  12.195   9.528   1.042 -0.0472  0.2581 -0.2126
32099W        W47230   0.142   1.342  13.271 -0.4007  0.1759 -0.1201
32100W        W47231   1.440   3.146  15.297  0.4645 -0.0907  0.0033
32101W        W47232   7.684   0.494  10.967  0.1260 -0.6208  0.1262
32102W        W47233  10.756  10.488  13.548 -0.1936 -0.2243  0.0565
32103W        W47234   6.094   4.733  12.793 -0.1959 -0.1017 -0.3473
32104W        W47235   3.094   4.451   1.525 -0.0214  0.2999 -0.7165
32105W        W47236   9.459   2.105  12.723 -0.1709  0.3874  0.1313
32106W        W47237   9.287   8.008  13.967 -0.1473  0.1960  0.1730
32107W        W47238  14.181  13.211  11.154  0.3604 -0.0062 -0.1813
32108W        W47239   9.180   0.797   0.094  0.0583 -0.1805  0.2989
32109W        W47240   4.181  16.443   3.522 -0.2004  0.2650 -0.0763
32110W        W47241  12.640   0.582   0.708  0.0175  0.0673 -0.0546
32111W        W47242   9.933  15.895  10.377  0.3041  0.1161  0.2945
32112W        W47243   7.014   7.009   4.286 -0.1150  0.0034 -0.0636
32113W        W47244  12.039  17.067   4.216  0.2398 -0.1282  0.0779
32114W        W47245  14.991   9.387   1.739 -0.1686 -0.0912 -0.0846
32115W        W47246   7.220  11.593  13.487 -0.2276 -0.0816  0.1954
32116W        W47247   5.325   1.936   4.825  0.1310  0.2835 -0.0284
32117W        W47248   5.572  14.027   0.873 -0.3515 -0.1334  0.3914
32118W        W47249  17.698  12.930   4.805  0.1898  0.0019  0.1540
32119W        W47250  14.613   4.649  15.222 -0.0991  0.1763 -0.2259
32120W        W47251  11.091  12.625  11.289 -0.4989  0.0329 -0.2166
32121W        W47252  10.727   2.005   4.476 -0.0846  0.0588 -0.1622
32122W        W47253   9.123   7.268   0.277 -0.1961  0.3339  0.0677
32123W        W47254   3.201   2.604   5.698  0.0450  0.3219  0.1555
32124W        W47255   7.273  18.162   3.108  0.1710  0.1289  0.1179
32125W        W47256  13.864   8.853  13.606  0.2976  0.1399  0.0329
32126W        W47257  15.177  11.826   5.364 -0.1802  0.1192  0.1310
32127W        W47258   8.165  14.326   3.014 -0.1901 -0.2420 -0.0719
32128W        W47259   3.593  18.574   0.651  0.3253 -0.0607 -0.0314
32129W        W47260   2.177  14.071   3.927  0.0539 -0.3314  0.2935
32130W        W47261  10.611   8.950   5.999 -0.1072 -0.3239  0.3012
32131W        W47262  14.471   1.654   3.444  0.0172  0.1709  0.0469
32132W        W47263   4.524   8.376   1.877 -0.1551  0.0695 -0.0035
32133W        W47264  13.359  18.592  10.928 -0.3301  0.0088  0.3015
32134W        W47265  17.603   7.680   1.916  0.1951 -0.0367 -0.2062
32135W        W47266   6.601   9.657   3.362 -0.1008  0.0185 -0.0411
32136W        W47267   2.049   9.675  13.662 -0.1847 -0.0947 -0.2858
32137W        W47268   3.931   0.418   3.430  0.1913  0.0405 -0.0418
32138W        W47269  14.034   3.342  15.300 -0.2409 -0.0441  0.2026
32139W        W47270  11.193   5.839   4.932  0.1078 -0.0426  0.1373
32140W        W47271   7.286   3.656   3.165 -0.3752  0.0891  0.3451
32141W        W47272  18.050  17.525   3.313 -0.0913  0.1360  0.0402
32142W        W47273   3.797   8.449  13.202 -0.0552  0.1575 -0.2011
32143W        W47274   2.875  11.626   4.628  0.1545  0.0324 -0.0825
32144W        W47275   5.524   7.767   0.523  0.0111 -0.0481 -0.0741
32145W        W47276  17.313  13.263  12.366  0.0243  0.1743  0.4651
32146W        W47277   2.576  13.353   1.446 -0.1205  0.3509  0.1143
32147W        W47278   7.936   3.707   4.996 -0.2305 -0.0996  0.1167
32148W        W47279   3.477   0.558   1.766 -0.2993 -0.1347 -0.2317
32149W        W47280  11.762   2.378  12.569  0.2038 -0.0029 -0.1760
32150W        W47281  16.615   2.994   5.131 -0.3105 -0.1886  0.2187
32151W        W47282  11.877  10.987  10.845  0.0920 -0.0857  0.1364
32152W        W47283   9.069   0.243  15.589 -0.0414 -0.1496 -0.0318
32153W        W47284   3.968   9.566   5.139  0.2227 -0.0036 -0.3645
32154W        W47285  10.589   6.634  14.213 -0.1628  0.1731  0.0702
32155W        W47286  11.095   5.715   1.433  0.1083 -0.0161 -0.0682
32156W        W47287  13.553  15.826   2.293  0.0195  0.0028 -0.0886
32157W        W47288  11.443  17.062   0.675 -0.1736  0.1111  0.0373
32158W        W47289   6.133   6.206   4.624 -0.1968  0.2211  0.0646
32159W        W47290   5.389   0.062   1.107 -0.1000 -0.0323 -0.1330
32160W        W47291  10.525   0.179  12.014 -0.0619 -0.2663 -0.3079
32161W        W47292  13.817   9.955   2.496  0.1868  0.0488  0.0681
32162W        W47293  13.346   8.036   4.782  0.0447 -0.2146  0.2157
32163W        W47294   8.484  17.653   0.099 -0.1331  0.1834 -0.1122
32164W        W47295   8.703  18.285   2.460  0.1029  0.1257 -0.0029
32165W        W47296   1.427   2.355  10.432  0.2372  0.1612 -0.2193
32166W        W47297  13.475  12.661   4.989 -0.1695  0.1962 -0.1739
32167W        W47298  13.650   3.142  15.600 -0.2752 -0.0502  0.1927
32168W        W47299   4.778   7.527  10.305 -0.5239  0.1033 -0.3646
32169W        W47300   7.811  11.470  14.668 -0.0369 -0.5393 -0.0927
32170W        W47301   2.662   4.245   1.725 -0.2024  0.0513  0.1917
32171W        W47302  15.552   5.734  13.476  0.2325  0.0532 -0.0396
32172W        W47303   2.834  14.235   1.288 -0.2664  0.2026  0.3067
32173W        W47304  14.124   4.516  14.701  0.1679  0.0605  0.0389
32174W        W47305  14.908  15.517   1.343 -0.4019  0.4054 -0.1178
32175W        W47306  10.182  13.407   5.790  0.2275 -0.2173  0.4006
32176W        W47307   8.881   6.470  15.490  0.0390 -0.0582  0.0085
32177W        W47308  14.619  11.587  12.967 -0.1450  0.0184  0.1403
32178W        W47309  12.798   3.850  12.256 -0.2870  0.0744  0.1163
32179W        W47310   4.086   1.963   2.283  0.2948  0.0725  0.1193
32180W        W47311  18.214   2.873  14.639 -0.1151 -0.1229 -0.1440
32181W        W47312  17.832   0.116   5.047  0.1431  0.1423  0.1651
32182W        W47313  13.619   0.820   0.288 -0.1875  0.0219  0.0844
32183W        W47314  13.025   6.876  12.909 -0.1597  0.0164 -0.0909
32184W        W47315   1.523   8.199  11.220  0.0808  0.2078 -0.0252
32185W        W47316   3.904   7.356   2.545 -0.0314  0.2399 -0.2513
32186W        W47317  14.407   3.648   5.101 -0.2842  0.0304 -0.1968
32187W        W47318   1.770  12.775   4.905 -0.0982  0.3068  0.1027
32188W        W47319   5.715   5.802  11.310 -0.4321 -0.2696  0.1836
32189W        W47320   1.855   2.376   1.968 -0.2886 -0.0488  0.1693
32190W        W47321   9.057   4.982   0.782 -0.0375 -0.1415 -0.1467
32191W        W47322  10.182  17.347   0.843 -0.1959 -0.1531  0.1822
32192W        W47323   8.253  12.942  12.358  0.0389 -0.1029  0.1265
32193W        W47324   2.072   8.791   3.719 -0.0003 -0.0861  0.2464
32194W        W47325  15.275  16.833  12.486 -0.0769 -0.0111 -0.0772
32195W        W47326  15.883  15.327   0.696 -0.1196 -0.0366  0.1680
32196W        W47327   1.298  10.073   4.320  0.1322 -0.2128 -0.1473
32197W        W47328   3.005  10.083  13.013  0.3746  0.0503 -0.0480
32198W        W47329   8.236   4.094  11.145 -0.2427 -0.0301  0.2593
32199W        W47330   3.969  12.184   1.620 -0.6135  0.1495 -0.3481
32200W        W47331  14.983  17.915  10.576 -0.0782 -0.3080 -0.0459
32201W        W47332   7.957  13.816  13.395  0.0510  0.0326 -0.3965
32202W        W47333   3.011  10.756  12.966 -0.0704 -0.3272  0.2209
32203W        W47334   3.408  10.065  12.738 -0.1643  0.2207 -0.0487
32204W        W47335   1.508  13.432   2.095  0.2142 -0.0448  0.2210
32205W        W47336   6.890   3.909  12.382  0.1954  0.0553  0.3633
32206W        W47337  17.518   4.475  14.365  0.2423  0.1348  0.0671
32207W        W47338  18.094   9.382  11.720 -0.1325  0.0862 -0.0436
32208W        W47339  12.795   8.861   6.476  0.2874  0.0097  0.2866
32209W        W47340   5.830   2.192   5.290 -0.1763 -0.0170  0.1086
32210W        W47341   4.328  16.400  13.548 -0.0014 -0.1807  0.0131
32211W        W47342   3.086  12.945  14.143 -0.1087 -0.0473  0.0886
32212W        W47343  14.043  13.489   3.174  0.1083 -0.0335  0.1572
32213W        W47344   5.860  14.839  15.390  0.1047  0.0016 -0.0611
32214W        W47345  12.613   4.165  11.750 -0.0653 -0.3228  0.1756
32215W        W47346   8.587  17.629  13.738  0.0341  0.3131  0.0154
32216W        W47347  16.751   1.313   0.261 -0.4174  0.0740 -0.0712
32217W        W47348   9.438  17.259   5.288 -0.1824  0.2521  0.3969
32218W        W47349  11.857   9.234  11.532 -0.2227 -0.1284 -0.0142
32219W        W47350  18.115   0.192   1.559  0.2844  0.1371 -0.2352
32220W        W47351  13.242   5.708   1.378 -0.2617 -0.0676  0.0052
32221W        W47352  17.645   5.043   5.574  0.1318 -0.0083 -0.1132
32222W        W47353  13.015  16.076   3.135 -0.1403  0.3982  0.0818
32223W        W47354   4.091  11.234  15.380 -0.0864 -0.2891  0.1176
32224W        W47355   9.115   5.008  13.949  0.0742 -0.0787  0.3417
32225W        W47356  16.371   4.467   4.822  0.0993 -0.0526 -0.0668
32226W        W47357  14.838   1.179  11.556 -0.2967 -0.0596  0.2305
32227W        W47358   2.321  14.356   3.530 -0.0125  0.1493 -0.1115
32228W        W47359   1.771   4.274  14.544 -0.1854 -0.0618  0.2310
32229W        W47360   1.716   8.585   0.046 -0.0589 -0.0034 -0.0820
32230W        W47361   8.764   2.158   6.062 -0.1268  0.0742 -0.4345
32231W        W47362  10.510   6.789  13.725  0.0879 -0.0284 -0.0396
32232W        W47363   2.093   3.337   0.392  0.3485 -0.3298  0.2072
32233W        W47364  15.778   3.529  13.900 -0.0553 -0.2523  0.0745
32234W        W47365   3.503   4.169  12.349  0.0998  0.3187 -0.3838
32235W        W47366  16.873  15.544   3.270  0.1396  0.2834  0.1117
32236W        W47367   2.106  16.429  10.590 -0.3422 -0.0366 -0.1182
32237W        W47368   8.370   6.845   4.452  0.0173  0.1093 -0.1169
32238W        W47369  15.186  11.149   3.542  0.0908 -0.0451  0.0548
32239W        W47370  14.795  12.874  14.047  0.3439  0.1892 -0.2504
32240W        W47371   4.678   6.536   0.474  0.0973 -0.0042 -0.2736
32241W        W47372  11.261  14.451  13.926  0.0098 -0.0173 -0.1598
32242W        W47373   4.404   7.615   3.068  0.0953 -0.2083 -0.2246
32243W        W47374  14.731   0.102  11.159  0.1970 -0.1246 -0.0708
32244W        W47375   7.069  12.669   2.716 -0.1884  0.3513 -0.1774
32245W        W47376   3.219   7.659   9.974  0.1041 -0.1023 -0.0100
32246W        W47377   3.783  15.027   0.574 -0.3578 -0.0573 -0.1471
32247W        W47378  12.405  10.526  15.041 -0.0269  0.2786 -0.0704
32248W        W47379   1.254   9.461   2.509 -0.0689  0.1581  0.1876
32249W        W47380   6.499   4.595  13.836  0.3641 -0.1903 -0.0335
32250W        W47381   2.141   0.479  11.538  0.0616 -0.5411  0.0531
32251W        W47382  14.096   8.998  11.591 -0.1431  0.1085  0.2132
32252W        W47383  15.951   4.041   3.194 -0.2646 -0.2725 -0.1906
32253W        W47384  12.315   6.291   2.737 -0.3282 -0.2531  0.1503
32254W        W47385   6.582  11.468  11.489 -0.0839  0.0062  0.0467
32255W        W47386  10.537  17.972   5.507  0.2573 -0.2411 -0.0713
32256W        W47387   4.364  15.243   1.940  0.0251 -0.1128  0.2004
32257W        W47388   4.612  11.808  15.719 -0.0800  0.1477 -0.0940
32258W        W47389   4.400  10.648  14.441 -0.2267  0.3078  0.0044
32259W        W47390  16.920   5.930  15.208  0.2466  0.3347  0.1850
32260W        W47391   8.753  12.094   1.186 -0.0250 -0.0902  0.0056
32261W        W47392   7.617  13.384  14.788  0.0959 -0.0038  0.0125
32262W        W47393   5.576   7.965  13.533  0.1532 -0.0786  0.1027
32263W        W47394  17.913  10.536  14.555  0.1822 -0.1041 -0.1726
32264W        W47395   0.767  15.268  12.347  0.0333  0.1107 -0.1347
32265W        W47396  15.104   3.705   5.638 -0.0612  0.2810  0.2252
32266W        W47397   6.582   6.002  11.984 -0.0355 -0.0233 -0.0793
32267W        W47398  14.963   8.048  10.590  0.2638  0.2817 -0.1338
32268W        W47399  12.180  16.118   1.339 -0.4010 -0.1903 -0.1394
32269W        W47400   5.288  15.048   1.274 -0.1259  0.2300  0.0315
32270W        W47401  18.102  18.185  15.313 -0.0969  0.0984  0.0794
32271W        W47402   1.410   2.238  13.736 -0.0041 -0.0346 -0.0995
32272W        W47403   5.395   7.566   0.973 -0.2613  0.0244 -0.0156
32273W        W47404   5.475   7.788  12.055 -0.0516 -0.0589 -0.0877
32274W        W47405   0.017   3.179  11.617 -0.3558  0.1120  0.1989
32275W        W47406  11.716  15.559  13.654 -0.2509 -0.0503  0.1064
32276W        W47407   5.692   8.784  12.354  0.3123  0.1805 -0.0808
32277W        W47408  14.435   9.727   3.882 -0.4323  0.2463 -0.0606
32278W        W47409   9.290  12.285  15.524 -0.1949 -0.0287 -0.1169
32279W        W47410   8.850   3.832   4.419  0.2864  0.0719  0.2198
32280W        W47411   2.381  14.660   3.937 -0.2237 -0.4202  0.0430
32281W        W47412   9.375   1.327  10.541  0.0085 -0.2554  0.0397
32282W        W47413   1.342   5.556  13.339  0.0593 -0.0206  0.0058
32283W        W47414   1.169   2.618  14.283  0.2040  0.0410  0.1337
32284W        W47415  18.129   3.069   3.191 -0.2002 -0.4381  0.2367
32285W        W47416   1.173  17.139   5.315 -0.3902  0.2719  0.0674
32286W        W47417  15.294   1.188   0.057  0.2291  0.1152 -0.0746
32287W        W47418  15.290   4.068   4.842 -0.1180 -0.4569  0.0863
32288W        W47419  10.996  10.971  13.648 -0.1211 -0.2764  0.2108
32289W        W47420  11.451  17.900   1.788 -0.0184 -0.4719  0.1790
32290W        W47421   5.989  16.484   3.815 -0.0975  0.0215 -0.0732
32291W        W47422   8.963  16.203  15.175 -0.2041  0.0484 -0.1780
32292W        W47423  10.346  14.149   4.093  0.0306  0.0586 -0.0339
32293W        W47424   5.113  15.348  12.663  0.0486 -0.0774 -0.0074
32294W        W47425   3.662  13.562  13.454  0.1545  0.1024  0.0941
32295W        W47426   3.051  13.117  11.408 -0.0113 -0.0703  0.1822
32296W        W47427   0.649   0.759   1.917  0.2634  0.1890 -0.0094
32297W        W47428   2.470   2.935   1.413 -0.2913 -0.0357  0.1496
32298W        W47429   8.856   4.031  12.843  0.0306 -0.1639  0.2565
32299W        W47430  15.473   7.753   1.225  0.2600  0.0262  0.2577
32300W        W47431  14.545  18.330   4.539  0.1344 -0.1907 -0.2146
32301W        W47432   2.465   6.769   1.367 -0.1949 -0.1739  0.1834
32302W        W47433   0.332  13.318  13.878 -0.0974  0.2861  0.0772
32303W        W47434   8.799  15.147  10.835  0.0123 -0.1587  0.1252
32304W        W47435   7.137   3.775   3.605  0.4297 -0.0556  0.1677
32305W        W47436   2.756   4.825   5.237 -0.1099  0.3543  0.0099
32306W        W47437  10.981   7.611   4.175  0.0767 -0.1527  0.0098
32307W        W47438   8.481  10.103  10.794 -0.3313 -0.0560  0.1066
32308W        W47439  11.932   4.065  15.521  0.4317 -0.0650  0.1795
32309W        W47440   9.750  12.355  15.753 -0.0642 -0.0621 -0.0482
32310W        W47441  17.170   5.200  12.561  0.0085 -0.0509 -0.4896
32311W        W47442  13.375   7.650   4.449  0.0171 -0.1960 -0.0138
32312W        W47443   7.519  14.964   1.846  0.0225 -0.1371  0.3035
32313W        W47444  16.683  13.092   2.812  0.1934  0.1576  0.0170
32314W        W47445  17.676  13.566  11.158  0.0245 -0.1769  0.0789
32315W        W47446   4.936   4.201   3.732 -0.0206 -0.0418  0.3754
32316W        W47447  11.995  15.929   6.075  0.0076  0.2369 -0.0093
32317W        W47448  11.669   9.720  12.998  0.2005 -0.0549  0.0788
32318W        W47449   0.903   7.011   4.430 -0.2273 -0.3185 -0.0950
32319W        W47450   0.560   0.011   2.803  0.2543  0.1945 -0.0562
32320W        W47451   5.211  14.024   4.159  0.0760  0.2789 -0.0911
32321W        W47452  16.599   4.017   0.303  0.1131 -0.1032 -0.1686
32322W        W47453  15.550   5.104  11.350 -0.2273 -0.0413  0.1287
32323W        W47454  11.663   0.754   5.668 -0.2055 -0.1881  0.2033
32324W        W47455   1.910  14.684   1.224  0.2504  0.4578 -0.1262
32325W        W47456  13.435   7.649  11.357  0.1117 -0.1354 -0.5161
32326W        W47457  18.269   8.665  11.102  0.3205 -0.1999  0.0804
32327W        W47458   1.266  12.413  14.085  0.3228 -0.2040  0.0612
32328W        W47459  17.161   6.497  15.097 -0.1235  0.3538  0.0792
32329W        W47460   5.896  17.355  10.505  0.0858  0.1044 -0.1819
32330W        W47461   8.378  10.053   1.951  0.0811 -0.3969 -0.0840
32331W        W47462   1.054   5.066   3.987  0.0212 -0.2760 -0.0950
32332W        W47463   7.168  16.658   1.961  0.2442 -0.2204  0.1436
32333W        W47464   7.805  11.766  10.861  0.0532  0.0034  0.0655
32334W        W47465  16.661   6.229   1.624  0.1178  0.0864 -0.3381
32335W        W47466  10.306  11.759   6.446 -0.0995 -0.0972 -0.1744
32336W        W47467  18.158   7.950   4.781 -0.2059  0.0972 -0.1533
32337W        W47468  11.362   2.978   4.066  0.2371  0.1432 -0.1225
32338W        W47469  11.198   0.553  11.369  0.0412  0.2205  0.3242
32339W        W47470   6.660  10.907   2.301 -0.0991 -0.0674 -0.2279
32340W        W47471   1.903   5.472   5.413  0.1473  0.3450 -0.1197
32341W        W47472   8.479   3.822   0.439 -0.1652 -0.0837  0.2068
32342W        W47473  18.253   8.099   2.443 -0.1323 -0.1132  0.2222
32343W        W47474  12.281   7.549   3.198 -0.4665  0.0892 -0.1720
32344W        W47475   2.643   4.342  12.322  0.0714  0.3844  0.3008
32345W        W47476   4.117   9.900  12.889  0.1437  0.3434 -0.1720
32346W        W47477   2.876   8.768  12.615 -0.0958 -0.0549  0.5028
32347W        W47478  16.564   3.765  15.634 -0.2260  0.3873 -0.2930
32348W        W47479  15.018   4.729   0.345 -0.1395  0.0300 -0.2163
32349W        W47480  11.335  12.898  15.352 -0.0725 -0.3790  0.1293
32350W        W47481   3.178  17.176   4.416 -0.3189 -0.2959 -0.2507
32351W        W47482   3.858   6.508   5.562  0.1187 -0.3890  0.0017
32352W        W47483  12.589   7.683   0.477 -0.3565  0.0055  0.0602
32353W        W47484  18.541  10.397   3.714 -0.2484  0.3784  0.0021
32354W        W47485  16.104  14.671  13.724  0.2487 -0.1079 -0.1847
32355W        W47486   8.385   5.480  14.024  0.2033 -0.0854  0.0208
32356W        W47487  10.853   0.100  14.702  0.0820 -0.1871  0.2190
32357W        W47488   1.010  10.592  11.601 -0.4261 -0.1695 -0.2751
32358W        W47489   0.019  10.171   3.057  0.0997 -0.1942  0.0926
32359W        W47490  10.155   8.517  12.743  0.0877  0.5836  0.1059
32360W        W47491   3.353   3.850  15.050 -0.1708 -0.2458  0.2277
32361W        W47492   7.678  16.830   5.095 -0.1653 -0.1661  0.0611
32362W        W47493  16.877   8.365   5.583 -0.0032  0.1133 -0.1776
32363W        W47494  10.488  12.221   6.285 -0.0006  0.0087  0.0910
32364W        W47495   0.750   8.384  10.821  0.0225  0.0949 -0.0864
32365W        W47496   9.071  12.000   5.588 -0.3299 -0.1125  0.3224
32366W        W47497  15.135   1.319  13.268  0.0403  0.0192 -0.0484
32367W        W47498   4.700   2.828  14.567 -0.1427  0.2676  0.1730
32368W        W47499  11.689   9.798   0.210  0.1673  0.0231 -0.3371
32369W        W47500   0.339  13.881  11.845 -0.0609 -0.2702  0.0201
32370W        W47501   8.150  10.673   4.859 -0.3962  0.1034  0.0359
32371W        W47502   0.598  16.244  12.624 -0.0106 -0.2766  0.0937
32372W        W47503  14.290  11.643  13.388  0.1927 -0.1629 -0.0475
32373W        W47504   2.927   3.232  13.791  0.3404  0.0968 -0.1387
32374W        W47505   2.174  17.387  12.641 -0.1666 -0.1655  0.0444
32375W        W47506   6.670   7.597  13.720  0.0117  0.1365 -0.0161
32376W        W47507  11.831  17.646   2.625  0.0667 -0.1164  0.0167
32377W        W47508  18.136  10.351   2.822  0.0782  0.1949  0.1370
32378W        W47509  13.514   9.690  15.619  0.2413  0.1021  0.2095
32379W        W47510   7.078  16.431   3.800 -0.0205  0.2582  0.0328
32380W        W47511  11.552  12.024  14.199  0.0219 -0.1312 -0.1668
32381W        W47512  12.647   4.644   9.243  0.0305  0.0756  0.2631
32382W        W47513  15.658  11.258  11.756 -0.1980 -0.0998  0.1957
32383W        W47514   2.201   3.878  10.481 -0.1612 -0.0177  0.0396
32384W        W47515   9.825   2.641  14.729  0.2725  0.0691 -0.1868
32385W        W47516  12.069   4.057   9.802 -0.4566  0.1112  0.2086
32386W        W47517   9.088  16.283  11.601  0.0664 -0.0154 -0.0837
32387W        W47518  13.434  18.005  12.935 -0.2584 -0.1002 -0.2937
32388W        W47519   0.245   4.276   0.642  0.1462  0.0464 -0.0944
32389W        W47520   5.379   2.911   2.916 -0.0331  0.0333 -0.0365
32390W        W47521   4.885  13.996  14.923 -0.0217 -0.2993 -0.2761
32391W        W47522   5.432   9.374   1.982 -0.0512  0.3424  0.1090
32392W        W47523  12.527  12.239   3.542  0.1052  0.4116 -0.2072
32393W        W47524  18.048   0.137  14.096  0.1325  0.2605  0.2595
32394W        W47525   0.688  13.577  14.252  0.3244 -0.1037 -0.0389
32395W        W47526   0.285  18.702  10.248  0.1434 -0.1282 -0.2111
32396W        W47527  15.507  15.516   0.326 -0.0027  0.3761  0.1194
32397W        W47528   9.720  18.371   2.656 -0.0119  0.1998  0.1058
32398W        W47529  16.136  12.013   5.435 -0.0255  0.1077 -0.2600
32399W        W47530  18.265   1.654   2.957 -0.0654 -0.3421  0.0199
32400W        W47531   4.288   6.445   4.530  0.2830  0.0008 -0.3501
32401W        W47532   5.895   3.943  14.416  0.0649  0.0339  0.1361
32402W        W47533   0.592   2.066  10.831  0.2060  0.2694  0.1498
32403W        W47534   2.289  11.893   3.180 -0.0114  0.1226  0.0568
32404W        W47535  10.320  13.567   0.792 -0.0227  0.0018  0.1992
32405W        W47536  13.376  11.541  13.526 -0.0145 -0.1648 -0.1412
32406W        W47537  10.268   7.677   3.329  0.1951 -0.1135 -0.1550
32407W        W47538  14.085  11.347   3.537 -0.1523 -0.1572  0.0567
32408W        W47539   9.154  17.638   4.086  0.0679 -0.3139 -0.2123
32409W        W47540  11.514   1.715   2.137  0.5537 -0.1081 -0.1889
32410W        W47541   6.164   8.182  10.231  0.2884  0.0886 -0.0120
32411W        W47542  13.396   0.765  10.875  0.1601 -0.0477 -0.0111
32412W        W47543   2.685  11.774  15.582 -0.2805 -0.2113 -0.1030
32413W        W47544   6.664  10.045   3.673 -0.0422 -0.0249  0.0416
32414W        W47545  13.960  15.005  12.182 -0.0168  0.0503  0.3842
32415W        W47546   5.174  12.354  10.420 -0.1855 -0.2710 -0.0023
32416W        W47547   6.788   6.713   3.779 -0.3410  0.3008  0.3817
32417W        W47548  16.243  15.370   3.145  0.1105 -0.1532  0.1651
32418W        W47549   4.810   9.368   4.519  0.2996  0.2337  0.2495
32419W        W47550  18.740   1.154  11.152 -0.1872 -0.2909 -0.2254
32420W        W47551  11.389  14.563  13.484 -0.5931  0.6043  0.1981
32421W        W47552   0.280   7.002  11.637  0.0775  0.2397 -0.0928
32422W        W47553  16.608   6.954  14.077  0.1551  0.0399 -0.3433
32423W        W47554  13.422  15.458   0.078  0.3261 -0.2209 -0.1574
32424W        W47555   7.567  18.739  14.908 -0.1597 -0.0372  0.2422
32425W        W47556   4.176  12.881  13.751  0.2638  0.1121 -0.0949
32426W        W47557  16.412  14.211  13.617  0.2968  0.1733 -0.1962
32427W        W47558  11.390   1.731   2.793 -0.0241 -0.2918 -0.0373
32428W        W47559   8.241  14.795   0.646  0.2489  0.1152  0.0558
32429W        W47560  11.242   9.437   3.670  0.4862 -0.2364 -0.1041
32430W        W47561   2.605  11.637   9.823 -0.1031 -0.0124  0.1160
32431W        W47562  15.296   3.075   4.764  0.0122  0.0620  0.2457
32432W        W47563  16.282   8.958  11.405 -0.0659 -0.1597  0.0266
32433W        W47564  16.685   7.592   0.982 -0.1471  0.1919  0.2278
32434W        W47565  12.207   3.858  11.869  0.0899  0.0272  0.3825
32435W        W47566  11.465   6.394  13.442  0.0040 -0.1350 -0.1040
32436W        W47567   6.697  17.771   3.905  0.2898  0.0759 -0.1477
32437W        W47568  18.249   8.008   1.948 -0.0965 -0.0591  0.1656
32438W        W47569   6.545   6.447   1.081 -0.1441  0.0048  0.2618
32439W        W47570  13.730   6.492  14.199 -0.3282 -0.0135 -0.0298
32440W        W47571   3.916  10.561   0.255 -0.0122 -0.0832 -0.1349
32441W        W47572   6.306  12.913   2.095 -0.0399  0.1162 -0.0774
32442W        W47573  10.431  14.224   2.779  0.1988  0.2212  0.1738
32443W        W47574  17.259  11.306   2.762 -0.2455  0.0381 -0.2052
32444W        W47575   0.936  16.005   0.034 -0.1885 -0.1086 -0.0223
32445W        W47576   0.668  17.255   3.991  0.3179 -0.1107  0.1428
32446W        W47577   2.727  13.445  14.423  0.0321  0.0730  0.1140
32447W        W47578  12.921  13.438  12.576 -0.0777 -0.1834  0.0569
32448W        W47579   0.620  10.741  11.145  0.0089  0.1091  0.0533
32449W        W47580  13.745  11.379   4.212  0.2928  0.5991 -0.0400
32450W        W47581  10.439   0.976   5.226  0.2305  0.1250 -0.2663
32451W        W47582  14.120   0.217   5.702  0.0746 -0.1320 -0.1061
32452W        W47583  15.852  16.309  13.700  0.0104  0.0414  0.1776
32453W        W47584  12.123   1.638   2.193  0.2988 -0.2997 -0.0650
32454W        W47585  11.438   4.937  13.404 -0.0510  0.3340  0.2271
32455W        W47586  11.894  11.417   5.309  0.1022  0.0290 -0.0754
32456W        W47587  18.293   4.575  13.739  0.1278  0.1588  0.2353
32457W        W47588   7.392  12.864  14.805  0.1925 -0.0002 -0.0135
32458W        W47589   4.361   4.305   4.599  0.0473  0.1654 -0.1256
32459W        W47590   4.535   6.964   4.677 -0.4128 -0.1480 -0.0034
32460W        W47591  14.987  16.704   0.145  0.2689 -0.3224  0.3529
32461W        W47592   6.968  13.624   4.221 -0.2910  0.0023 -0.1224
32462W        W47593  13.077  15.780  10.797 -0.0334 -0.0869  0.1018
32463W        W47594   0.506  15.502  14.154 -0.1256 -0.3713  0.0408
32464W        W47595   9.468  17.911  11.600 -0.0137  0.0971 -0.0963
32465W        W47596  17.868   2.022  11.648  0.1637 -0.0013 -0.3723
32466W        W47597  10.270   7.466  14.375 -0.0259 -0.0438  0.2458
32467W        W47598   1.331  18.290  14.719  0.0815  0.3503  0.2794
32468W        W47599   3.352   6.390   4.172 -0.0629 -0.0240  0.1070
32469W        W47600  10.391   3.749   1.001  0.0224  0.1499 -0.3144
32470W        W47601  15.871   1.744  14.457 -0.1678  0.0990 -0.3747
32471W        W47602   3.481  13.340  11.233 -0.1249  0.0073  0.0542
32472W        W47603   0.226   9.661   2.164 -0.2036 -0.1692 -0.3214
32473W        W47604   9.541  16.014  11.145  0.4693 -0.1684  0.3846
32474W        W47605   5.268   7.997   2.354  0.0623 -0.1100 -0.3761
32475W        W47606  10.102   1.816   5.142 -0.1480  0.0060 -0.0509
32476W        W47607   4.022   2.158  13.815  0.0687  0.1519 -0.0974
32477W        W47608   5.607   4.716   1.426  0.0351 -0.1184  0.0303
32478W        W47609  10.198  18.628   1.408 -0.1271  0.2481  0.0130
32479W        W47610  11.770   9.665   6.186 -0.0156 -0.1919 -0.2726
32480W        W47611  10.515  18.525  12.259 -0.3257 -0.3757  0.2098
32481W        W47612   9.557  18.162   2.140 -0.2146  0.0582  0.2968
32482W        W47613  13.227   0.795  15.706 -0.1395  0.0468 -0.0521
32483W        W47614   0.416   5.844  15.485  0.0501 -0.1748 -0.1316
32484W        W47615  10.961   2.925   5.018  0.3324 -0.2152 -0.2712
32485W        W47616  16.746  12.257  15.533  0.0179  0.0997 -0.2041
32486W        W47617  14.322   2.013   2.957  0.4877  0.0023 -0.2797
32487W        W47618   2.141   0.697  11.953  0.0188  0.1432  0.0740
32488W        W47619   6.635   1.854   3.002  0.0682 -0.0043 -0.2346
32489W        W47620  12.220   5.352   1.783 -0.0891 -0.1484 -0.1596
32490W        W47621   4.548  15.973  15.377  0.2302  0.0007  0.2209
32491W        W47622  13.549  15.136  11.265  0.1073 -0.0864 -0.5334
32492W        W47623  16.031  17.221  12.681 -0.1567 -0.1567 -0.0459
32493W        W47624  17.621  16.438   2.819  0.0609 -0.0988 -0.1175
32494W        W47625  11.728   2.391  14.842 -0.0996 -0.3744  0.2510
32495W        W47626  15.958   8.833  10.119  0.1599 -0.0303  0.0315
32496W        W47627   2.949   0.763  15.011  0.0109  0.0103 -0.3556
32497W        W47628  11.851   3.411   0.695  0.3567  0.1181  0.0791
32498W        W47629  13.262   7.895   3.440  0.2297 -0.0174  0.1270
32499W        W47630   4.125  11.107  14.549 -0.1688  0.0578 -0.2235
32500W        W47631   0.812   8.192   3.716  0.0646 -0.3944  0.1504
32501W        W47632   5.583  10.465   4.098  0.0784 -0.1094 -0.1012
32502W        W47633   2.981   5.074  14.315 -0.0610  0.0324 -0.0467
32503W        W47634   9.143  16.551   3.991 -0.2534  0.0483  0.0614
32504W        W47635   0.263  10.407   0.315 -0.1538  0.0356 -0.1107
32505W        W47636   9.428   7.563   2.158 -0.0423  0.0663 -0.1895
32506W        W47637  15.633   6.481  14.713 -0.2051  0.0687  0.1640
32507W        W47638  12.633  14.504  14.385 -0.0665  0.1454  0.1372
32508W        W47639  15.797   9.098  11.436 -0.1646  0.1621 -0.3279
32509W        W47640  18.265  15.800  15.238 -0.2177  0.0238 -0.1483
32510W        W47641   2.383   1.310  10.696  0.2270  0.0126  0.0947
32511W        W47642   6.481  13.744  14.523  0.0584 -0.0804  0.2882
32512W        W47643  11.488   9.202   1.726  0.3521 -0.2884  0.1118
32513W        W47644   8.131   9.402   5.611 -0.3934  0.1093  0.0624
32514W        W47645   3.306   6.396   3.250  0.0781  0.2030  0.1116
32515W        W47646  11.176   3.684  10.295 -0.2662 -0.1908  0.0292
32516W        W47647   4.219  16.516  12.628  0.1621 -0.1699  0.1127
32517W        W47648  15.478  10.851  11.945 -0.2649  0.0945  0.0009
32518W        W47649   6.651  16.344  13.709  0.1332  0.0887  0.0649
32519W        W47650  11.978   5.098   2.556  0.0048  0.0410  0.1859
32520W        W47651  13.368  14.145  11.158 -0.0970  0.0291  0.4079
32521W        W47652  15.953   8.702   2.660 -0.0085  0.0544  0.4337
32522W        W47653  17.752   4.954  14.435 -0.0262  0.2765 -0.0116
32523W        W47654  10.796  11.198  12.098  0.0987 -0.1321  0.0734
32524W        W47655   5.847   2.718   2.737  0.0823 -0.0762 -0.3336
32525W        W47656  17.862   7.022  13.806  0.1413  0.2365  0.0288
32526W        W47657  16.182   3.453  10.749  0.0892 -0.0766  0.0850
32527W        W47658  17.259   5.559  15.030 -0.1990 -0.0643 -0.0350
32528W        W47659  15.572  12.210   2.513  0.0562  0.0340  0.0029
32529W        W47660  11.892  12.160  14.740  0.0467 -0.3263 -0.2018
32530W        W47661   4.311   9.220  13.253  0.1401  0.1076 -0.2666
32531W        W47662  13.384   8.106  13.597  0.0402  0.3038  0.0121
32532W        W47663  16.121  16.874   6.308 -0.0025  0.2645  0.0472
32533W        W47664  18.408  17.263   3.601 -0.2263  0.0133  0.2229
32534W        W47665  12.053  11.076  13.275  0.2351 -0.1391  0.1108
32535W        W47666   5.928  17.272   0.335 -0.0441  0.0878  0.1452
32536W        W47667  15.037   9.815   0.940  0.2582  0.0225  0.3559
32537W        W47668   3.922   0.382   5.158  0.1043 -0.1884  0.2672
32538W        W47669  17.641   6.433   3.560  0.1263  0.0090 -0.0864
32539W        W47670   2.229  12.839   4.596  0.0976 -0.1327 -0.0348
32540W        W47671  13.548  13.095  11.805  0.1100 -0.1484 -0.1692
32541W        W47672  16.762   7.896  11.993  0.2077 -0.2551 -0.0034
32542W        W47673  13.453  15.794   1.561  0.2749 -0.1746  0.0392
32543W        W47674   5.329  15.872   2.408 -0.0055  0.0291 -0.2782
32544W        W47675   1.167  16.411   1.454 -0.1490 -0.2932  0.0861
32545W        W47676   6.656  12.391  12.300  0.1796 -0.0393  0.3422
32546W        W47677  18.048   2.974   0.084 -0.1466  0.3728 -0.1052
32547W        W47678   7.553  13.915  10.739  0.0691  0.3343  0.0517
32548W        W47679   0.808   4.429  12.640  0.1265  0.0805  0.1841
32549W        W47680   4.548   6.313  12.268 -0.0148 -0.3216  0.3682
32550W        W47681   1.597   4.434   0.881  0.1850 -0.2282  0.0060
32551W        W47682  13.907   0.483  14.651  0.2756  0.4073 -0.3784
32552W        W47683   7.277   5.630   4.946  0.1472  0.3128 -0.0318
32553W        W47684  16.981  11.718   2.505 -0.0886 -0.2525  0.0896
32554W        W47685  15.095   2.334  12.358 -0.2324  0.2265  0.1328
32555W        W47686  14.662   9.729  11.018  0.1787 -0.0159 -0.4177
32556W        W47687   1.614  18.031  12.828  0.0085  0.0695  0.0771
32557W        W47688   9.663   7.778  12.018 -0.3605 -0.0219 -0.4573
32558W        W47689  12.094  17.169  14.477 -0.1699 -0.0646  0.1567
32559W        W47690  16.236  12.252  10.651 -0.4003  0.1496  0.2545
32560W        W47691  11.314   9.068   5.764 -0.0006 -0.1415  0.2001
32561W        W47692   2.474  14.285   4.863 -0.1283  0.1637 -0.1113
32562W        W47693  14.897  18.724   1.808 -0.0974 -0.1255  0.1928
32563W        W47694  14.941  10.646   1.048 -0.1421 -0.1730 -0.1244
32564W        W47695   2.071   7.264  14.090 -0.0272  0.2243 -0.1670
32565W        W47696  16.562  15.376   1.419  0.0543 -0.0800  0.0985
32566W        W47697   8.275   7.947   0.468 -0.2544  0.1012 -0.0806
32567W        W47698  16.828  12.791   4.869  0.3676  0.1624 -0.1425
32568W        W47699  12.707  10.663  11.179  0.1368  0.0063  0.0881
32569W        W47700  16.077   4.966  12.338 -0.2710  0.0846  0.0232
32570W        W47701  12.410   5.263   0.398 -0.0786  0.1602  0.1327
32571W        W47702  16.085  13.935   3.427  0.1665 -0.1200  0.2122
32572W        W47703   2.249  15.874   1.240 -0.0331 -0.1327 -0.2607
32573W        W47704  13.504   8.199   1.268 -0.2526 -0.0967  0.1099
32574W        W47705  13.812  11.489   2.485  0.2997 -0.0546 -0.4061
32575W        W47706   7.396   9.906   0.875  0.0159 -0.1978  0.0528
32576W        W47707   2.247  18.496  14.457 -0.0436  0.2757  0.0276
32577W        W47708   9.448   3.987  13.984 -0.1747 -0.2668 -0.1690
32578W        W47709  12.485  13.020   0.156  0.0675 -0.1502  0.0997
32579W        W47710   2.040   5.633   4.403 -0.1030  0.1998  0.0349
32580W        W47711   2.680   8.119  12.655  0.1694 -0.0037 -0.3803
32581W        W47712  18.077   8.095   3.549 -0.0395  0.0792 -0.3343
32582W        W47713   8.187  18.185   5.794  0.2571 -0.2892  0.2124
32583W        W47714   0.730  15.149  13.264  0.1879  0.1154 -0.1252
32584W        W47715  10.193  18.543   0.453 -0.0603 -0.0729  0.0397
32585W        W47716   8.297   1.297  12.282  0.0183 -0.1171 -0.2905
32586W        W47717   7.707   9.518   1.012  0.0154  0.2331  0.1863
32587W        W47718   7.188   3.172  13.259  0.0236 -0.1550  0.0141
32588W        W47719   7.050   3.035   1.148  0.0916  0.0237  0.3382
32589W        W47720   0.589   5.777  13.038 -0.0404  0.1119 -0.2867
32590W        W47721  12.604  12.698   2.861  0.1285 -0.0632 -0.2398
32591W        W47722  16.660   6.826   1.130 -0.0725 -0.2445 -0.2025
32592W        W47723   4.918   0.330   2.952 -0.0332  0.0089  0.3402
32593W        W47724  17.983  10.221   3.775  0.0686 -0.2212  0.1110
32594W        W47725  18.669  16.610  15.234  0.0398 -0.1013  0.0408
32595W        W47726   3.865   8.987  11.790  0.1678  0.0522 -0.2027
32596W        W47727  13.800   4.887   1.452 -0.1089 -0.0664  0.1167
32597W        W47728   5.624  10.434  15.135  0.2239  0.0490 -0.2078
32598W        W47729   2.020   9.924   2.414  0.0951  0.0139  0.1554
32599W        W47730   5.549   9.212   3.443 -0.2853 -0.0228  0.1958
32600W        W47731   7.276   7.860   5.062 -0.0916 -0.3578  0.0935
32601W        W47732   0.369  11.986  13.789 -0.0080  0.0748 -0.0411
32602W        W47733   9.236   2.285  10.751  0.0963 -0.2125  0.2881
32603W        W47734   8.387  13.994  13.587  0.1501 -0.0118  0.1159
32604W        W47735  12.738   1.273  13.565 -0.1704  0.5522 -0.0776
32605W        W47736  14.254  15.086  13.213  0.0798  0.1255 -0.1367
32606W        W47737  17.518  14.779   2.096  0.1123  0.1056 -0.1434
32607W        W47738  15.015   5.204   2.638  0.0182  0.2867  0.0014
32608W        W47739   0.159   1.580  12.804  0.3302  0.3028  0.0077
32609W        W47740  16.374   3.148  12.736  0.1810  0.2399 -0.0052
32610W        W47741   7.105   0.142   4.292  0.3748  0.2948  0.0068
32611W        W47742  11.399  12.167  14.612  0.1279 -0.0372 -0.1245
32612W        W47743   9.125  10.841  11.637  0.0754  0.0786 -0.3304
32613W        W47744   0.047  12.342   2.195 -0.4281  0.2279 -0.1491
32614W        W47745  14.167   5.623   4.178  0.1717  0.2980 -0.0904
32615W        W47746   3.446  14.155   1.272  0.4989  0.1550  0.3289
32616W        W47747  16.559   9.428   4.539  0.2621  0.0593  0.2410
32617W        W47748  16.469   6.255   1.134 -0.1181  0.0161  0.0142
32618W        W47749   8.630   4.305   0.574  0.0978  0.4143  0.3464
32619W        W47750  17.528  14.196   5.027 -0.1372 -0.2957  0.1852
32620W        W47751  10.599  13.729  15.443  0.1123  0.2128 -0.3804
32621W        W47752   8.582  12.615  11.974  0.5105  0.2980  0.0156
32622W        W47753   5.400  12.920   3.033  0.1269 -0.2227  0.0410
32623W        W47754   1.387  16.672   2.368  0.0083 -0.1449 -0.2381
32624W        W47755  13.638   2.858  11.295  0.4353 -0.1302 -0.1812
32625W        W47756   8.558   5.920  13.819 -0.1057 -0.2327  0.0009
32626W        W47757  13.220  14.530  15.227  0.2589 -0.1803  0.1726
32627W        W47758  10.954   8.752   5.600  0.1762  0.1542 -0.1365
32628W        W47759   8.591  10.168  15.094 -0.0413  0.1815 -0.3861
32629W        W47760   8.481  17.372  14.650  0.5461  0.1906 -0.1724
32630W        W47761  15.670   8.992   4.506 -0.1601 -0.0735 -0.0985
32631W        W47762  17.533   5.277   4.651  0.0585  0.0955 -0.0224
32632W        W47763  17.361  18.230   1.547  0.1805  0.0069 -0.1581
32633W        W47764  11.629   4.504  13.652  0.0401  0.2459  0.0767
32634W        W47765  18.252   2.578   2.947 -0.0493  0.3439 -0.1608
32635W        W47766   3.323  11.832   1.698 -0.1544  0.3171  0.0885
32636W        W47767   3.103   2.648   3.444 -0.0940 -0.2068 -0.1588
32637W        W47768   0.946   9.210   0.343  0.0877  0.0535 -0.1273
32638W        W47769   9.530   1.759   2.930 -0.0791  0.3991 -0.2070
32639W        W47770  17.005   8.010  10.997  0.0453  0.0161  0.0507
32640W        W47771   5.952   4.901   0.224 -0.1601 -0.1803  0.0031
32641W        W47772  14.952  15.203   4.120  0.1044  0.0912 -0.2540
32642W        W47773   4.303   2.997  14.908  0.2858 -0.0110 -0.0233
32643W        W47774  11.053   1.480   5.100  0.0164  0.2681  0.2321
32644W        W47775  17.421   2.317  15.601  0.0065  0.0729 -0.3636
32645W        W47776   8.621  17.988   1.304 -0.0799  0.2594  0.1145
32646W        W47777  10.394   5.389  11.658 -0.1455  0.4003 -0.4432
32647W        W47778  14.815  11.686   4.593  0.0483  0.0501  0.0005
32648W        W47779   7.505   4.631   3.996 -0.1401 -0.1898 -0.0309
32649W        W47780  12.181   2.149  11.121 -0.1711  0.0295  0.0123
32650W        W47781   1.424   7.740  13.692 -0.0329  0.2526 -0.3336
32651W        W47782   3.737  15.844  14.460 -0.1642 -0.0273 -0.1116
32652W        W47783  13.212  13.404   5.968 -0.2800 -0.3303  0.2680
32653W        W47784   2.425  17.757   0.044  0.1169  0.1296 -0.1231
32654W        W47785  14.470   6.130   3.168  0.1346 -0.1411  0.1445
32655W        W47786  13.479  11.645   2.797  0.0529  0.0080 -0.3309
32656W        W47787   6.180   2.423   2.980  0.2309 -0.2464  0.0587
32657W        W47788   1.923   6.150   4.633 -0.2277  0.1317  0.3414
32658W        W47789  11.678  16.397  13.451  0.1672  0.4293 -0.0287
32659W        W47790   3.265   9.330  11.028  0.0037 -0.2375 -0.0609
32660W        W47791   9.288  13.216  13.530  0.1546 -0.1176  0.1304
32661W        W47792  10.588   4.734   0.989  0.0352  0.0241 -0.1382
32662W        W47793   5.504   7.022   3.711 -0.0297 -0.1709 -0.0085
32663W        W47794   1.098   9.431   1.625  0.0341  0.3171  0.2173
32664W        W47795   4.843   1.432   3.771 -0.0022  0.1118 -0.0272
32665W        W47796  12.699   8.446   5.762  0.1794 -0.2267 -0.2639
32666W        W47797  17.056   9.976   0.939  0.0122  0.1626  0.1208
32667W        W47798   4.737   3.940  10.626 -0.0102  0.1769  0.4415
32668W        W47799  15.138  12.589  13.761  0.0922  0.0550  0.2959
32669W        W47800  16.681  14.556   0.197 -0.1991 -0.1427  0.0020
32670W        W47801   5.651   8.919  14.273  0.2055  0.1627 -0.3284
32671W        W47802   5.704   5.458  14.734 -0.0695 -0.3529  0.2982
32672W        W47803  18.141  18.096   1.478  0.1728  0.2235  0.1678
32673W        W47804  16.692  10.913   1.800 -0.4198 -0.1176  0.1509
32674W        W47805   9.831   3.573   3.298 -0.1793 -0.0103 -0.0271
32675W        W47806   7.507  14.023  12.112  0.1373  0.1850  0.0003
32676W        W47807  17.353  16.258   0.774 -0.1705 -0.0535 -0.1066
32677W        W47808  17.787   8.795   5.755  0.2977 -0.2368  0.2673
32678W        W47809   7.671   7.860  13.828  0.1187 -0.0987 -0.0674
32679W        W47810  17.199   5.906  10.669  0.1003  0.1776  0.0744
32680W        W47811   3.868  11.824   2.439 -0.1294  0.1984  0.0058
32681W        W47812   9.719   8.022   4.942 -0.2113  0.1272  0.0477
32682W        W47813   9.594  16.017  14.060  0.1255 -0.1980 -0.0675
32683W        W47814  18.553  12.770   0.432 -0.4039 -0.1547  0.2356
32684W        W47815   3.261  16.555   0.632  0.0145  0.3080  0.4910
32685W        W47816   2.709  12.076   3.270  0.3780 -0.1595 -0.0307
32686W        W47817   1.841  14.546   3.933  0.0003  0.1188  0.1803
32687W        W47818   7.433   1.650   3.419 -0.0400  0.0901  0.1971
32688W        W47819   2.109   5.212  13.670 -0.1712  0.1910 -0.2726
32689W        W47820   5.395   0.964   9.071  0.1640 -0.3567  0.1918
32690W        W47821   2.691   8.487  12.214  0.1326  0.1540 -0.1382
32691W        W47822   4.976   0.969   0.547 -0.3842 -0.1902 -0.2400
32692W        W47823   5.047  11.231   0.835  0.2307 -0.1898  0.2068
32693W        W47824   8.315   1.912   0.047 -0.0308 -0.0334 -0.0328
32694W        W47825   9.447  14.582  10.499 -0.0381  0.0635  0.1473
32695W        W47826   5.164   2.787   0.240 -0.4091  0.0286 -0.3558
32696W        W47827  10.082  12.891   3.429  0.0133  0.2532  0.1474
32697W        W47828  15.260  18.410   2.304 -0.0267  0.3165 -0.1486
32698W        W47829   3.638   8.223  12.410  0.1741 -0.1341  0.1919
32699W        W47830  11.988  15.901   4.166  0.1680  0.0143 -0.1863
32700W        W47831  13.848   0.817   3.628 -0.0181  0.1215  0.3653
32701W        W47832   7.235  10.590  15.668 -0.4316  0.3126 -0.0842
32702W        W47833   2.748   2.672   1.111  0.0999 -0.0286  0.0210
32703W        W47834  13.366   6.280   1.522  0.0402 -0.0087 -0.2302
32704W        W47835   7.417   4.359   5.360  0.1601 -0.3007 -0.0797
32705W        W47836  16.571  12.179   2.434 -0.0579  0.1562 -0.1951
32706W        W47837   1.946   7.562   1.043  0.1233 -0.0936 -0.1325
32707W        W47838   2.584  11.380   3.991 -0.0224 -0.1281  0.0015
32708W        W47839   6.981   3.812  11.766  0.0124  0.1352 -0.2922
32709W        W47840  16.179  12.852  15.255 -0.1802  0.0616 -0.1261
32710W        W47841  12.513  17.363   4.423 -0.0717 -0.2289  0.5408
32711W        W47842  15.518  18.039  13.838 -0.1392 -0.0700 -0.2442
32712W        W47843  14.171   8.967  12.097  0.0078 -0.2316  0.0200
32713W        W47844   1.272   7.535  14.618  0.0791  0.0717  0.0225
32714W        W47845  14.968   9.872  12.278  0.0377  0.1569  0.1723
32715W        W47846   6.357   3.839  12.445 -0.1183 -0.1628  0.0997
32716W        W47847   9.903   8.162  14.897 -0.1829 -0.0240  0.0411
32717W        W47848   6.134   1.512   4.443  0.1896  0.1028  0.1102
32718W        W47849  13.744   5.615   4.869 -0.1901  0.1506  0.0215
32719W        W47850  14.902  18.705   6.240 -0.4692  0.1496 -0.2020
32720W        W47851   1.995   6.375   1.916  0.0215 -0.2814 -0.1197
32721W        W47852   8.749   3.565   0.112 -0.1108  0.1680  0.2392
32722W        W47853   4.924   8.593  12.224  0.2448 -0.0874  0.0481
32723W        W47854  12.428  13.093   1.875  0.0432 -0.1897 -0.1529
32724W        W47855   0.264  18.525  12.296  0.1787  0.0269 -0.1129
32725W        W47856  17.245  17.177   5.298  0.2396 -0.3143  0.0365
32726W        W47857   0.056   6.729  10.734 -0.0348  0.0433 -0.0260
32727W        W47858  11.349   5.745   3.129 -0.4274 -0.0448  0.1673
32728W        W47859  12.066   8.240   4.780  0.3004  0.4231  0.0245
32729W        W47860   5.199  12.746   4.553  0.0124 -0.0347 -0.2414
32730W        W47861  10.300   1.986  12.497  0.0194 -0.1691 -0.1633
32731W        W47862   9.192  13.496   4.332 -0.1769 -0.0925  0.0937
32732W        W47863   8.011   5.874  12.181  0.1707  0.0717  0.1512
32733W        W47864   9.053  11.429  10.429  0.1824  0.0949 -0.1570
32734W        W47865   9.113   2.861  15.329  0.0375 -0.2774  0.1717
32735W        W47866   7.641   8.525   2.552 -0.0074  0.0533  0.0963
32736W        W47867   7.165   3.532  12.163  0.2005  0.1555 -0.1648
32737W        W47868  11.215  10.382   5.740  0.3408  0.1865  0.0370
32738W        W47869   4.630   4.348  11.562 -0.0219  0.3128 -0.1476
32739W        W47870   6.025  14.107   3.080  0.0856 -0.4109 -0.1047
32740W        W47871   5.640   3.839   0.161 -0.0832 -0.2835 -0.2982
32741W        W47872   7.687   7.582  14.727 -0.1678  0.0113  0.0599
32742W        W47873  17.626   8.790   9.774 -0.0545 -0.1874  0.3313
32743W        W47874   8.273   4.947   2.063 -0.1885 -0.0237  0.3581
32744W        W47875   8.669   5.029   3.283  0.1464  0.0544  0.2483
32745W        W47876   0.167  10.317  13.457 -0.0490 -0.0130  0.0307
32746W        W47877   9.925   7.094   0.380  0.0450 -0.0208  0.0896
32747W        W47878  13.101   7.785  10.991  0.0551  0.3027 -0.1782
32748W        W47879   2.888  18.346   5.518  0.1956  0.1230  0.1293
32749W        W47880   7.467  15.367  12.219 -0.0976 -0.1542 -0.0777
32750W        W47881  17.345   8.017   9.661  0.3050 -0.1952  0.0198
32751W        W47882   7.183  10.367   0.680  0.2996 -0.0860  0.2749
32752W        W47883   9.237  13.401   5.252 -0.1149  0.1889 -0.0862
32753W        W47884  10.058  12.559  13.537 -0.1770  0.0164  0.0623
32754W        W47885   3.996  16.583  11.721  0.4903 -0.3643  0.1378
32755W        W47886  16.238  13.647  10.621  0.3444 -0.0946 -0.2901
32756W        W47887  16.543  14.991   3.398  0.0192 -0.3497  0.0319
32757W        W47888  15.930   1.469   6.251 -0.0694 -0.0286 -0.3956
32758W        W47889   3.833  11.710   0.356 -0.2078 -0.1884 -0.1431
32759W        W47890  15.593  14.700   3.084 -0.0812 -0.0007  0.2646
32760W        W47891   5.687  11.458  11.123  0.0781 -0.0375  0.0232
32761W        W47892   5.886   9.388   5.910  0.0202  0.1825  0.0697
32762W        W47893  11.815   7.654  15.005  0.0721  0.0139 -0.1090
32763W        W47894  17.629   0.718  10.424  0.1172 -0.0814  0.0234
32764W        W47895   4.633  14.252   1.851  0.0277 -0.1559 -0.2191
32765W        W47896   8.310  15.956  11.655 -0.2104  0.2759 -0.2845
32766W        W47897   4.061  11.763   1.280 -0.2571  0.0258  0.1848
32767W        W47898   4.720  17.935  11.108 -0.0423 -0.1531 -0.0795
32768W        W47899   6.164   4.242  11.373  0.2348  0.0212  0.1829
32769W        W47900   0.240   2.508  12.166  0.1924  0.0532 -0.2369
32770W        W47901   6.789  14.087   2.648 -0.0247 -0.0026 -0.3020
32771W        W47902  14.703  16.741   4.183 -0.1404 -0.1269 -0.0861
32772W        W47903  17.716  14.190   2.343  0.2149  0.2672 -0.2202
32773W        W47904   3.939   0.216   2.754 -0.0771  0.1793 -0.1534
32774W        W47905   0.089   6.853   0.573 -0.1327 -0.4536 -0.4419
32775W        W47906  15.011   3.708  12.949 -0.3245  0.2384  0.0244
32776W        W47907  14.945   7.486  14.796 -0.0426 -0.0164 -0.1276
32777W        W47908   5.402   2.490   5.018  0.0274  0.1376  0.0736
32778W        W47909  15.681   4.583  11.555  0.4583 -0.2783  0.1047
32779W        W47910  16.743   7.818  14.397  0.0064 -0.0895  0.0931
32780W        W47911  11.225   4.592  15.538  0.0328  0.0465 -0.1915
32781W        W47912  16.481   0.012  13.208 -0.0888  0.3767 -0.2208
32782W        W47913   4.946  16.268  15.388 -0.1969 -0.0198  0.0924
32783W        W47914   9.114  11.441  10.979 -0.3628 -0.0314  0.0998
32784W        W47915  16.811   0.831   5.244 -0.0695  0.1706  0.1603
32785W        W47916  13.236  10.159   0.737  0.2033 -0.3517 -0.3653
32786W        W47917  10.252  13.725   0.302 -0.0906  0.0814  0.0642
32787W        W47918   9.191  11.122  15.243 -0.0638  0.0842  0.0091
32788W        W47919  10.459  14.348   3.246  0.1375  0.1463 -0.1820
32789W        W47920   8.403  11.655   0.502 -0.1332 -0.1854 -0.2424
32790W        W47921  10.948  18.300  12.227 -0.0320  0.0150 -0.0582
32791W        W47922  13.274   0.115   4.050  0.0626  0.2350  0.0344
32792W        W47923   9.244   0.854  13.290 -0.1462  0.0517  0.2141
32793W        W47924  11.222   1.888  11.409  0.2660  0.0047  0.2554
32794W        W47925  16.375  16.244  11.082  0.1332  0.2560  0.0527
32795W        W47926   6.992   8.449  12.195 -0.1252  0.1473 -0.0342
32796W        W47927   3.880   4.510   1.288 -0.0128 -0.0774  0.0754
32797W        W47928   0.564  14.584  11.722 -0.0349  0.0997  0.3279
32798W        W47929  10.323   2.475  12.634  0.4019  0.2133  0.0037
32799W        W47930   8.812   3.823   2.517  0.2835 -0.0977  0.0342
32800W        W47931   5.478  17.177   5.458  0.4392 -0.2885 -0.1758
32801W        W47932   4.139   8.230   1.057  0.1996  0.3294 -0.1941
32802W        W47933   7.618   3.233  13.033 -0.1686 -0.0240  0.0281
32803W        W47934   8.443   0.788   2.159 -0.0842  0.1609  0.1954
32804W        W47935   8.921   1.616  13.736  0.1499  0.1052 -0.3692
32805W        W47936   3.475  14.323   3.837  0.1088  0.0671 -0.0579
32806W        W47937  16.480   6.855  11.315 -0.1146 -0.2827  0.0857
32807W        W47938  17.844   0.508   4.689  0.0437 -0.1295  0.2727
32808W        W47939  13.904   3.304   0.786 -0.0576  0.0200 -0.3165
32809W        W47940   1.166   6.810  14.357  0.1194 -0.2171 -0.0783
32810W        W47941  11.467   9.109   3.275 -0.3100 -0.4561 -0.0566
32811W        W47942   0.891   0.838   0.328 -0.1732  0.0833  0.3673
32812W        W47943   9.278  15.267  14.384  0.1192 -0.0149 -0.0122
32813W        W47944  11.046  10.114   6.953 -0.0572  0.0359  0.1622
32814W        W47945   6.650   0.741   2.585 -0.2734  0.1592 -0.0325
32815W        W47946   6.526  13.685   4.435 -0.0448 -0.0610 -0.0611
32816W        W47947  15.220  17.188   1.527 -0.0884 -0.0235 -0.2096
32817W        W47948   2.754  15.007   1.810 -0.1970 -0.3573  0.2400
32818W        W47949  16.884  15.282   3.750 -0.0654  0.0220 -0.0423
32819W        W47950  18.177  18.038  14.358  0.2206  0.1067  0.1760
32820W        W47951  16.764   8.579   3.822 -0.1250  0.1420 -0.1877
32821W        W47952  15.264   0.685   3.403  0.2898  0.1628 -0.1089
32822W        W47953   8.120   5.286  11.913  0.0220 -0.0439  0.2827
32823W        W47954  17.599   2.498   3.622 -0.1559  0.0308  0.1864
32824W        W47955  15.441   8.709  15.350 -0.0410 -0.4735 -0.0487
32825W        W47956   7.270   4.978   2.972  0.0936 -0.1687 -0.0638
32826W        W47957  12.394   9.054   0.879  0.0435 -0.1632  0.1270
32827W        W47958  17.946  16.530  13.150  0.1739 -0.2814 -0.0164
32828W        W47959  14.040   4.138   2.046  0.0821 -0.0977  0.1840
32829W        W47960   8.578  15.165  11.347  0.1247 -0.1077  0.4531
32830W        W47961  14.413  14.637  12.233 -0.1034  0.1703 -0.0817
32831W        W47962   3.196  18.311  15.763 -0.3167  0.0652 -0.2276
32832W        W47963   1.598  16.283  13.771  0.0774 -0.1652  0.0796
32833W        W47964   6.049  11.224  11.491 -0.3952 -0.0457 -0.2472
32834W        W47965   6.950   5.377  11.131 -0.0947  0.0346  0.2497
32835W        W47966  11.097   2.291  15.502 -0.2109  0.2526 -0.3161
32836W        W47967   1.254   7.838   4.081  0.0397 -0.1127 -0.0887
32837W        W47968   1.794  18.732  14.423  0.0360 -0.0420  0.2656
32838W        W47969  15.441   9.567  13.267  0.0430 -0.0110  0.1578
32839W        W47970  13.398  11.050  12.233  0.1502 -0.2242  0.0086
32840W        W47971  15.118  16.981   3.446  0.0924 -0.0141 -0.0571
32841W        W47972   2.659  18.703   3.110 -0.1153 -0.2740  0.2052
32842W        W47973   1.760  15.172  15.430 -0.2925 -0.0405  0.1357
32843W        W47974  14.638  17.740  12.223 -0.0176  0.4124 -0.2432
32844W        W47975  13.346  18.318   3.083 -0.0232  0.0632  0.2354
32845W        W47976   1.615  15.879   5.600 -0.0512  0.0139  0.0066
32846W        W47977  14.729  10.151  15.554  0.2615 -0.2895  0.0734
32847W        W47978  13.101  13.112  14.877 -0.0457 -0.3960  0.1446
32848W        W47979   6.001   7.569   3.324  0.0110 -0.1068 -0.1801
32849W        W47980   8.753   2.309   3.285  0.0031 -0.0062  0.2322
32850W        W47981  10.655   6.527   0.662 -0.2241  0.2622  0.0760
32851W        W47982  18.307  18.550  11.768 -0.1105  0.0617 -0.2089
32852W        W47983   0.147  14.734  11.418  0.0121 -0.2475  0.3239
32853W        W47984   4.094  12.098   4.279 -0.0633 -0.2078 -0.3440
32854W        W47985   5.058   1.810   3.474  0.1538  0.1419 -0.3149
32855W        W47986  11.966   1.598  12.971  0.0612 -0.0110 -0.1216
32856W        W47987  16.228  17.071  11.898 -0.0030 -0.1676 -0.0218
32857W        W47988   2.695   3.259   3.461  0.0302  0.0199 -0.0893
32858W        W47989  10.342   4.247   3.326  0.2928  0.0038 -0.1170
32859W        W47990   4.701  10.236  15.469 -0.2395  0.0392 -0.2791
32860W        W47991  12.040   7.562   4.149  0.4800  0.2903 -0.1300
32861W        W47992   6.617  14.726  10.084  0.3194 -0.2750 -0.1556
32862W        W47993  14.098   3.068   0.064  0.2241  0.0242  0.2601
32863W        W47994  12.054  10.094  12.970  0.1867  0.3307  0.1001
32864W        W47995  12.218   9.985  11.653  0.1831 -0.0743  0.1706
32865W        W47996   6.816   9.590  13.298  0.1252 -0.0317 -0.4895
32866W        W47997  17.840  13.103   0.787 -0.2458  0.1146 -0.2230
32867W        W47998   8.832   9.081  14.278  0.1474 -0.2512 -0.1657
32868W        W47999   4.022  14.487  12.422 -0.0525 -0.1235 -0.0424
32869W        W48000  18.610   7.016  12.737  0.0043 -0.1319 -0.0765
32870W        W48001  17.212  11.660  11.797  0.0564  0.2943 -0.0771
32871W        W48002   3.871   0.189   0.908 -0.3245 -0.1421  0.0093
32872W        W48003  12.362  15.299   4.077  0.1065  0.0061  0.0292
32873W        W48004   0.817  15.064   3.906 -0.0742 -0.1031  0.1444
32874W        W48005   8.994  10.286   3.118 -0.0996  0.4451 -0.1869
32875W        W48006  16.742  15.224  12.012  0.0437  0.2029  0.1503
32876W        W48007   9.471  17.856  12.721  0.0522  0.3886  0.0384
32877W        W48008   6.167   7.357  15.580  0.2147 -0.1427 -0.3193
32878W        W48009   9.765  17.588  13.480 -0.1730  0.4323 -0.3832
32879W        W48010   9.632  14.645  15.105 -0.0425 -0.3038  0.0758
32880W        W48011  14.099   7.582   2.368  0.1293 -0.4598  0.0765
32881W        W48012  15.661  12.116  14.044 -0.0030  0.3569 -0.1314
32882W        W48013   2.707  14.855  11.946 -0.0911  0.1646  0.1486
32883W        W48014  18.674   7.128  15.511  0.3407  0.0510 -0.1372
32884W        W48015   9.301  15.676  15.376  0.1369 -0.3197  0.2453
32885W        W48016  15.074  18.410   3.727  0.0004  0.1846  0.2407
32886W        W48017  12.584   0.197  13.470 -0.2475  0.0021  0.0294
32887W        W48018   9.064   1.149  12.875 -0.3822 -0.0706  0.1426
32888W        W48019   1.220  15.689   2.701 -0.1394  0.5112  0.2003
32889W        W48020  11.306   6.357   2.513  0.0535 -0.1099  0.0948
32890W        W48021   0.097   7.902  12.041 -0.0548 -0.0591  0.2129
32891W        W48022  11.510   2.898  14.030 -0.3495 -0.1493 -0.2921
32892W        W48023  12.409   2.222  13.692 -0.2519 -0.0513 -0.1640
32893W        W48024   3.975   7.875   2.872  0.0785  0.4324 -0.3840
32894W        W48025  12.343  14.428  15.562 -0.3024 -0.0596 -0.5247
32895W        W48026  15.462   8.570  13.431 -0.1746  0.2053 -0.3353
32896W        W48027   5.308   5.199   0.199 -0.2201  0.1030 -0.1759
32897W        W48028   9.477  15.366   4.134  0.0493  0.0942 -0.1465
32898W        W48029   2.045   5.270  12.002  0.3097 -0.0514 -0.0682
32899W        W48030  15.807  17.174   2.863 -0.1440 -0.0142  0.1297
32900W        W48031   0.273   2.139   2.939 -0.0560  0.0838 -0.3602
32901W        W48032  14.157  18.534   2.620 -0.1100  0.0942 -0.2296
32902W        W48033  14.237   5.382  13.241 -0.0412  0.2640 -0.0250
32903W        W48034   9.418   7.011   0.617 -0.1117  0.3056  0.3739
32904W        W48035  18.571   2.356  13.213  0.4121  0.2721  0.1247
32905W        W48036   8.026   1.578   1.418  0.0266 -0.2074  0.0096
32906W        W48037  11.987   0.622  11.757 -0.1711 -0.2063  0.1535
32907W        W48038  13.021  14.565   0.469  0.0719 -0.0043 -0.1557
32908W        W48039   2.813   0.731  14.182 -0.0108 -0.0998 -0.0481
32909W        W48040   2.285  10.700   0.560 -0.0713  0.0252 -0.1372
32910W        W48041  15.757   3.044   2.760  0.3866 -0.0438 -0.2488
32911W        W48042   7.740  16.393   0.419  0.2612  0.2238  0.4338
32912W        W48043   4.466   6.880  12.163  0.0232 -0.4358 -0.0369
32913W        W48044   1.924  17.994   0.475  0.1913 -0.3235  0.2658
32914W        W48045   5.651   9.421   3.889 -0.0812  0.0069  0.0003
32915W        W48046   4.189  12.842   4.583 -0.1722 -0.1617  0.1053
32916W        W48047   8.647   5.313  11.978 -0.0517 -0.1842 -0.4630
32917W        W48048  16.752  17.429   5.276  0.0125 -0.1348 -0.3021
32918W        W48049  10.854  16.901   3.312 -0.0342 -0.5999  0.2486
32919W        W48050  11.210   5.155  11.805  0.1933  0.0913 -0.1454
32920W        W48051  18.273  13.129   1.346  0.1425 -0.3868  0.2265
32921W        W48052  10.839   8.198   1.586 -0.1376  0.1291 -0.1587
32922W        W48053  18.310  18.512   0.163 -0.0412 -0.1044 -0.0085
32923W        W48054  17.682   4.044   0.141 -0.1108 -0.0645 -0.0709
32924W        W48055  10.830  12.841  13.547  0.1847  0.1234 -0.0667
32925W        W48056  18.561  17.502   0.321 -0.2021 -0.2535  0.0628
32926W        W48057   9.949  13.748   3.433  0.2225  0.1404  0.2797
32927W        W48058  13.006   3.464  10.839  0.2294  0.2318 -0.1831
32928W        W48059  16.279   0.186  12.552 -0.0953 -0.0915  0.1553
32929W        W48060  15.550   3.667   3.860  0.1359 -0.2942  0.4384
32930W        W48061   9.737   9.021  11.578  0.1734 -0.3164  0.1808
32931W        W48062  11.281   6.948  14.753 -0.0457 -0.2237  0.1993
32932W        W48063   4.966   9.754  14.165 -0.1401  0.0222 -0.2724
32933W        W48064   2.243  18.069  14.845  0.1593  0.0880 -0.1261
32934W        W48065  17.023  11.935  15.297  0.1848  0.0077 -0.2076
32935W        W48066  11.163  10.376   4.235 -0.0472  0.0337  0.2299
32936W        W48067  16.264  11.025  11.863  0.0407 -0.3314  0.0020
32937W        W48068   9.615   1.437  10.046  0.0016 -0.0993 -0.3107
32938W        W48069   4.378   4.117  14.096 -0.0914  0.0536 -0.0844
32939W        W48070  18.347  15.908   0.826 -0.0453 -0.0880 -0.1305
32940W        W48071   0.258   0.224   1.320  0.1677 -0.2285  0.1694
32941W        W48072   3.113  14.571   1.107  0.0019  0.0326 -0.3286
32942W        W48073   8.152  18.219  13.083 -0.1184 -0.2635 -0.1427
32943W        W48074   2.481   5.504   4.627 -0.6154 -0.0956 -0.3780
32944W        W48075  13.862  11.441   3.085 -0.1294  0.0464 -0.0277
32945W        W48076   0.740   1.596   2.313 -0.0281  0.1069 -0.2422
32946W        W48077   1.894  11.388  15.155  0.1176  0.0248  0.2016
32947W        W48078  11.798  16.482   4.249 -0.1436  0.0632  0.2080
32948W        W48079   5.669   8.358   5.005 -0.0116 -0.0048  0.2421
32949W        W48080   6.755  16.038  10.685  0.2307 -0.1070  0.1639
32950W        W48081   1.681   4.329   2.288 -0.1973 -0.0224  0.3158
32951W        W48082  18.646   9.784   0.921  0.2316 -0.1686 -0.1917
32952W        W48083  12.357  18.280   3.483  0.1692 -0.1009  0.0760
32953W        W48084   5.520  12.090   9.623 -0.0979  0.2428  0.0818
32954W        W48085   4.073   1.273   9.524 -0.1434  0.1628  0.2840
32955W        W48086  17.995   9.097  12.108 -0.3451 -0.2199 -0.1250
32956W        W48087   7.813   8.867   5.455  0.0251 -0.0939 -0.5012
32957W        W48088  10.625   7.976   3.411 -0.0338 -0.0333 -0.3564
32958W        W48089  14.576   2.875   3.544  0.0375 -0.0229 -0.1110
32959W        W48090   3.524  11.063   4.063  0.0499  0.3158 -0.2388
32960W        W48091  13.683  13.891   2.017 -0.3119  0.0394  0.0047
32961W        W48092   4.867  10.529   5.638  0.2970  0.0574  0.4614
32962W        W48093   6.860   3.326   0.755 -0.0162 -0.0502 -0.0308
32963W        W48094  17.523  17.025  14.240 -0.2501  0.0726  0.1674
32964W        W48095   9.176  15.495  10.879 -0.3559 -0.0019  0.0599
32965W        W48096   0.407  17.332  15.519 -0.1712  0.1652  0.2249
32966W        W48097   6.878  11.578   4.452  0.2993  0.1873 -0.3754
32967W        W48098   9.722   6.465  11.009 -0.0411  0.1513 -0.2296
32968W        W48099   2.203   2.180   2.957 -0.2704  0.0231  0.1888
32969W        W48100   3.059   8.579  14.824 -0.0145 -0.2055 -0.0431
32970W        W48101  12.916   5.030   0.162  0.0703 -0.1874 -0.1666
32971W        W48102   4.723  18.390  14.530 -0.0348  0.2205 -0.2482
32972W        W48103  13.249   5.401   3.431  0.0467  0.3664 -0.0676
32973W        W48104   7.506   0.109   5.703  0.1058  0.2948 -0.0139
32974W        W48105   4.842   5.067   9.909  0.1015  0.0192  0.0738
32975W        W48106   1.359  10.276  14.762  0.4847 -0.1122  0.6417
32976W        W48107   7.726   0.888  15.368 -0.3927  0.1270  0.1908
32977W        W48108   8.720  13.977   4.885 -0.0670 -0.0556 -0.2000
32978W        W48109   8.278  15.812  13.411 -0.1020  0.1864  0.1517
32979W        W48110   8.253   4.972  14.258 -0.1966  0.1443 -0.0046
32980W        W48111   4.646   7.563  13.297 -0.1585  0.0683  0.2603
32981W        W48112   1.440  17.155  15.402 -0.1361  0.2385  0.0163
32982W        W48113  16.164   2.897   3.732  0.0208 -0.3129 -0.0441
32983W        W48114   3.624   3.707  12.798  0.2623 -0.2766 -0.2466
32984W        W48115   3.579   0.597  12.867  0.0391 -0.1065 -0.1800
32985W        W48116   9.110   1.605  15.021  0.0338  0.0975 -0.2702
32986W        W48117  11.021   8.767   0.982  0.0380  0.3565 -0.3155
32987W        W48118  14.764  13.128   2.819  0.2304  0.0170  0.0815
32988W        W48119  12.808  10.444   3.499  0.2616 -0.1464 -0.3333
32989W        W48120  12.366  15.931   0.882 -0.0191  0.2398  0.0582
32990W        W48121   9.319   6.904   3.161  0.0904 -0.2855  0.1400
32991W        W48122   1.892  18.638   0.238  0.0430  0.3077 -0.2311
32992W        W48123  17.353   7.103  12.413 -0.1646  0.2251  0.0584
32993W        W48124   8.752  15.446   5.329  0.0437 -0.0472  0.0492
32994W        W48125   9.655   8.781  15.356  0.0138  0.0737  0.2377
32995W        W48126   7.180  11.889  13.016  0.2953 -0.0221 -0.0977
32996W        W48127   2.106  16.818  13.342  0.1758 -0.3272  0.2630
32997W        W48128  16.152  11.179   4.283  0.1764 -0.0636  0.1364
32998W        W48129   3.560   4.680  10.112  0.1924  0.2400 -0.2545
32999W        W48130   4.080  16.030   1.016 -0.0107  0.0351  0.1743
33000W        W48131   1.709   7.610  12.487 -0.1475 -0.0170 -0.0239
33001W        W48132   6.864  15.856  14.512  0.0085  0.0394 -0.0304
33002W        W48133   4.749   6.469   4.698  0.0003 -0.0870 -0.0332
33003W        W48134   8.989  18.197   0.982 -0.0069 -0.1835  0.2969
33004W        W48135   0.838   2.129   5.462  0.3539 -0.1136  0.0660
33005W        W48136   3.459   3.524   3.266  0.3099  0.1123  0.0404
33006W        W48137   0.023   8.221  12.900  0.3113  0.2884 -0.0716
33007W        W48138   6.629  13.294  12.260 -0.1310 -0.0137 -0.0198
33008W        W48139  16.422  13.364   5.509  0.0059 -0.1914  0.0684
33009W        W48140   8.136  11.083   1.499 -0.3942  0.1502  0.0037
33010W        W48141  16.179   7.090  13.778 -0.1510 -0.0021 -0.0909
33011W        W48142  13.300  14.938  14.448 -0.0853 -0.1536 -0.0996
33012W        W48143  11.398   0.128  14.400 -0.1883  0.0900 -0.0305
33013W        W48144   2.554   4.453  14.657 -0.0198  0.2193  0.1115
33014W        W48145   3.162  14.794  14.178 -0.0041 -0.0605 -0.3253
33015W        W48146   8.733  16.539   1.982 -0.1489  0.2343 -0.1971
33016W        W48147  18.672   3.781   2.936  0.2012  0.0236 -0.2771
33017W        W48148   7.306   7.259   1.353 -0.0316 -0.0294 -0.0518
33018W        W48149  15.072  10.931  14.741  0.1885  0.2457 -0.0743
33019W        W48150  11.188   6.059   4.472 -0.1511  0.1460  0.3186
33020W        W48151   7.915  12.225  12.839 -0.3675 -0.3239 -0.0193
33021W        W48152   4.332  17.456  13.059 -0.3028 -0.0640 -0.2240
33022W        W48153   2.585   4.059   5.708 -0.4892 -0.3470 -0.2282
33023W        W48154   4.874  11.330  13.987  0.2027 -0.1116  0.0354
33024W        W48155  16.637  14.099  14.051  0.2873  0.2667  0.1642
33025W        W48156  18.160   4.346   0.231  0.5670  0.1321 -0.1361
33026W        W48157   1.856  18.652   2.579  0.1652 -0.2150  0.3234
33027W        W48158  14.975  15.136   1.874  0.0205  0.1129 -0.0656
33028W        W48159  18.589   7.415  13.079  0.0036 -0.2115 -0.1384
33029W        W48160   9.102   9.027   0.650  0.5327  0.1709  0.2225
33030W        W48161  14.780   8.160   1.834  0.2464 -0.4063 -0.1687
33031W        W48162  12.548   4.492  13.665 -0.1285 -0.3107 -0.0904
33032W        W48163  14.731  11.040   1.233 -0.0866 -0.0012  0.0970
33033W        W48164  13.621  15.373  11.802 -0.1221  0.4951 -0.2489
33034W        W48165  18.461  13.276   5.361  0.2357  0.1823 -0.4350
33035W        W48166   8.792  12.460  14.225 -0.5420  0.1992 -0.1450
33036W        W48167   5.248   8.205  12.386  0.0013  0.0324  0.1538
33037W        W48168  10.301  11.539   1.739  0.0735 -0.1258  0.1907
33038W        W48169   1.961  11.703  11.364  0.1012  0.1253  0.2723
33039W        W48170  14.758  18.193  10.898 -0.2207  0.4421  0.0894
33040W        W48171  15.871  15.546   3.706  0.0648  0.1969 -0.0434
33041W        W48172   3.658   1.147  10.558 -0.3340  0.0470  0.2897
33042W        W48173  17.692   2.946   4.154 -0.0906 -0.1213 -0.1375
33043W        W48174   7.884   6.459  11.436  0.0533  0.1993  0.1169
33044W        W48175   0.191   6.494  10.159 -0.0300 -0.1661  0.0990
33045W        W48176   5.917   7.469  13.666  0.3234 -0.0331 -0.0116
33046W        W48177   2.579   5.154   0.440  0.1682 -0.2650 -0.1494
33047W        W48178  18.471  10.509  13.738  0.0332 -0.0263 -0.1004
33048W        W48179  16.445  13.215  12.694 -0.0776  0.1652 -0.0037
33049W        W48180  15.353   9.622  12.724 -0.2033 -0.1405  0.1062
33050W        W48181   5.221   5.689  13.926 -0.1411 -0.2431  0.1309
33051W        W48182  12.282  13.634   2.687  0.1195 -0.2169 -0.1045
33052W        W48183   8.297  15.724   1.799 -0.1133  0.2544  0.0264
33053W        W48184  16.637  16.601  12.585  0.0091  0.1292  0.2167
33054W        W48185   0.171   7.556   2.200 -0.1218  0.5069  0.0098
33055W        W48186   2.591   1.558   0.333 -0.2631  0.1127  0.4213
33056W        W48187  15.289   9.436   4.559 -0.0451  0.2641 -0.1198
33057W        W48188   0.053   1.746   4.302  0.0368 -0.4520  0.2474
33058W        W48189  12.969  14.798   3.596 -0.0381  0.0974  0.1097
33059W        W48190  16.110   9.817   2.960 -0.0836  0.2411 -0.1699
33060W        W48191   1.190  17.827  11.623 -0.2061 -0.0454 -0.1704
33061W        W48192   6.020  14.812   3.689  0.2930  0.1387 -0.4675
33062W        W48193   4.421  13.211   0.616  0.2734  0.0627  0.1571
33063W        W48194  14.838  10.794   3.355  0.0453 -0.4177  0.1975
33064W        W48195  14.740   6.191   2.665  0.1718  0.0115 -0.2590
33065W        W48196  18.118   5.624   2.714  0.1672 -0.0819 -0.0683
33066W        W48197  11.585   7.233   5.346 -0.0433  0.1310  0.1389
33067W        W48198   4.394   0.361   2.483  0.0302 -0.1013 -0.2877
33068W        W48199   3.631  11.440  15.215  0.0631  0.2084 -0.1783
33069W        W48200   7.017  11.275   2.461 -0.0482  0.0898 -0.0402
33070W        W48201  17.327   0.601  13.387 -0.0787  0.0675 -0.0326
33071W        W48202  15.267   1.030   4.576  0.3030  0.1878 -0.0400
33072W        W48203  15.157   0.734   3.857 -0.0925 -0.1648 -0.0900
33073W        W48204   5.562   1.884  10.098  0.0007 -0.1266 -0.0564
33074W        W48205  15.349   9.735   4.121  0.0830  0.4419 -0.1625
33075W        W48206  15.902   5.960  11.378 -0.2694 -0.0583  0.0839
33076W        W48207  15.274   0.212   2.150 -0.0228 -0.5027 -0.3066
33077W        W48208   4.558  11.380  10.415 -0.2215 -0.0913  0.0076
33078W        W48209   0.590   8.901  11.547  0.0987 -0.2388  0.0144
33079W        W48210   7.959  11.627   1.358  0.0496 -0.0282  0.1851
33080W        W48211  13.288   5.920  14.170  0.1505 -0.2419 -0.0952
33081W        W48212  17.603   9.996   0.843  0.0821  0.0230 -0.2165
33082W        W48213   4.548   1.411  11.292 -0.1606 -0.0558 -0.0456
33083W        W48214   9.711   0.748   0.074  0.0464  0.2145 -0.1861
33084W        W48215  14.913  14.763  12.693 -0.3325 -0.0501  0.1299
33085W        W48216  11.456  16.449  14.683 -0.0866 -0.1478  0.0501
33086W        W48217   4.826   5.303  15.527  0.0614 -0.1402 -0.0282
33087W        W48218   6.068   4.885   0.700 -0.0319  0.4991 -0.4848
33088W        W48219  17.997   6.077  12.075  0.2491 -0.1089  0.1472
33089W        W48220  16.568   1.443  15.008 -0.1045  0.0839  0.1052
33090W        W48221  11.377   3.929  12.486  0.1895  0.0654  0.3480
33091W        W48222  18.586  18.107   3.970 -0.0562  0.0403 -0.0210
33092W        W48223  15.222  14.105  14.463  0.0492  0.2091 -0.2433
33093W        W48224  15.240   9.171  13.594 -0.0227 -0.0715  0.0081
33094W        W48225   3.915  16.278   1.821  0.1499 -0.0117  0.2370
33095W        W48226  18.134  14.449   1.142  0.1101 -0.3528  0.2278
33096W        W48227  11.120  16.420   5.204  0.0514  0.0818  0.0261
33097W        W48228   0.311  13.930  11.056  0.1033  0.1877 -0.0805
33098W        W48229   4.408  16.431   0.856  0.0036  0.2078  0.2525
33099W        W48230  11.742  15.559  10.660 -0.2390 -0.0707  0.0156
33100W        W48231  16.030   6.544   2.465 -0.0343 -0.1399 -0.0062
33101W        W48232  17.216  10.440   2.749  0.0001 -0.2735  0.0910
33102W        W48233  13.916   2.380   0.182  0.0876  0.0743 -0.1546
33103W        W48234   1.979   4.544  10.564 -0.1479 -0.1209  0.1886
33104W        W48235  11.171   6.933   1.781  0.3685  0.0279 -0.3536
33105W        W48236   8.967  11.048   4.859 -0.0041 -0.0480 -0.1674
33106W        W48237  18.550  11.489   9.823  0.4057 -0.0448 -0.5628
33107W        W48238   9.328   1.006  11.081 -0.0208 -0.1281  0.0795
33108W        W48239   1.396  11.342   3.535 -0.3402  0.0416  0.0068
33109W        W48240   1.412   8.026  15.052 -0.1295 -0.1110 -0.1442
33110W        W48241  12.354   5.976   3.178 -0.1072 -0.3318  0.2461
33111W        W48242  16.358  14.230   4.366 -0.1200 -0.0249  0.0534
33112W        W48243   1.119  12.617  11.964 -0.2337 -0.0074 -0.0727
33113W        W48244   8.167   9.207  11.085 -0.0098  0.0674  0.6079
33114W        W48245  11.140   3.656   0.396 -0.0663  0.0744  0.2177
33115W        W48246   5.503   1.026   2.063 -0.1651 -0.0737 -0.2219
33116W        W48247   0.579  13.640  11.494 -0.1527 -0.0611  0.0842
33117ION     NA48248  13.831  17.575  10.157  0.0122  0.0211 -0.0480
33118ION     NA48249   0.983   8.343   4.289 -0.0075  0.1748  0.4279
33119ION     NA48250   7.160   9.681  14.183  0.0344  0.0005  0.1807
33120ION     NA48251   8.564   7.661   5.858 -0.2749 -0.2071  0.0579
33121ION     NA48252  13.342   6.681  14.587 -0.0287  0.2251  0.0862
33122ION     NA48253  13.985  17.251   5.999  0.2464 -0.0008 -0.2621
33123ION     NA48254   7.956  17.213  15.599  0.0221  0.1872  0.1163
33124ION     NA48255   2.950  14.237  14.191 -0.0338 -0.2099 -0.1949
33125ION     NA48256  14.123   9.976   5.890 -0.1260  0.3357  0.0387
33126ION     NA48257  17.842   5.699  10.065  0.0706  0.0489  0.1934
33127ION     NA48258   7.566   0.807   3.521  0.1495 -0.1199 -0.1365
33128ION     NA48259   6.106   7.823   5.696 -0.2202  0.2261  0.2438
33129ION     NA48260  15.539   7.925   9.778 -0.0472  0.0083 -0.3356
33130ION     NA48261  13.268  11.369  10.355  0.0100 -0.4738  0.1175
33131ION     NA48262  16.635   5.829   2.315 -0.1967 -0.0147  0.5989
33132ION     NA48263   8.776   8.034   1.989  0.4206  0.0684  0.3661
33133ION     NA48264  10.033   3.611   9.813 -0.1634  0.2076  0.0673
33134ION     NA48265  11.473   5.337   3.709  0.3054  0.0111  0.0937
33135ION     NA48266   4.272   7.503   5.434 -0.1219  0.0877 -0.0075
33136ION     NA48267  15.157   3.368  14.925  0.0215 -0.2370 -0.3798
33137ION     NA48268   6.666   4.640   5.574 -0.3154  0.0442 -0.0558
33138ION     NA48269  16.024   3.297   5.462  0.0162 -0.0224  0.2958
33139ION     NA48270   8.263  17.159  10.225  0.1245  0.1576 -0.2525
33140ION     NA48271   8.075  18.753   5.714 -0.2256 -0.1792 -0.1848
33141ION     NA48272  15.078   3.747   2.648 -0.0705  0.0160 -0.0537
33142ION     NA48273  11.162   5.848   5.876 -0.2117  0.1513 -0.4100
33143ION     NA48274  16.879   1.283  11.161  0.0964 -0.0356 -0.1250
33144ION     NA48275  13.477  11.949   6.031 -0.2524  0.1068  0.0864
33145ION     NA48276  15.036   2.459  10.416  0.2000  0.2096 -0.1828
33146ION     NA48277   7.757  13.463  11.595 -0.3944  0.2041 -0.0916
33147ION     NA48278   3.607  17.023   2.763 -0.3316  0.3179 -0.1130
33148ION     NA48279   1.861   9.910  15.503  0.1750  0.1840 -0.3643
33149ION     NA48280  15.072   5.500   5.760  0.1841  0.1597 -0.2635
33150ION     NA48281   3.068   1.299   2.570 -0.0543  0.1825 -0.0868
33151ION     NA48282   2.524   6.943   9.945  0.1308  0.0427 -0.1445
33152ION     NA48283   9.610  10.973   6.299  0.2502  0.1209  0.0163
33153ION     NA48284   7.378  14.256  10.336  0.1128  0.0447 -0.0684
33154ION     NA48285  13.900  16.415   3.235  0.0544 -0.0677 -0.3907
33155ION     NA48286   3.436  14.459   0.400  0.2176  0.0917  0.3213
33156ION     NA48287  10.887   3.915   1.385 -0.0561  0.1486 -0.3220
33157ION     NA48288   0.486   4.826   1.554  0.2656  0.0935  0.0839
33158ION     NA48289   1.633  16.750   5.645  0.0253 -0.1115 -0.3083
33159ION     NA48290   9.820   0.248   4.775 -0.1587  0.1611 -0.0019
33160ION     NA48291  14.814  17.955   3.792 -0.1341  0.0197 -0.2344
33161ION     NA48292  10.913  14.783  10.145 -0.3471 -0.0795 -0.0116
33162ION     NA48293  17.834   6.338   2.632  0.1366 -0.2124  0.0901
33163ION     NA48294   0.592   0.809  14.750  0.4019  0.0274  0.0646
33164ION     NA48295  14.754   5.122  10.522  0.0663 -0.1885  0.0923
33165ION     NA48296   5.318  12.462   4.174  0.1628  0.2466 -0.0815
33166ION     NA48297   8.475  17.112   4.485  0.2474  0.1793 -0.2618
33167ION     NA48298   4.910   0.302   1.831 -0.0348  0.3149 -0.0041
33168ION     NA48299  14.857   0.884   5.155 -0.1696 -0.2407 -0.0841
33169ION     NA48300   9.561   1.934   4.298  0.0104  0.5900 -0.1600
33170ION     NA48301  18.318   4.023  10.214  0.1167  0.2424  0.1128
33171ION     NA48302   9.106   1.962   3.230  0.1186  0.2285 -0.1643
33172ION     NA48303   9.113   1.077  15.475  0.0002  0.0542 -0.1646
33173ION     NA48304  16.294   7.329   9.982  0.1414 -0.0619 -0.1190
33174ION     NA48305  13.025   3.024   5.629 -0.1349 -0.0949 -0.0144
33175ION     NA48306  16.574  13.082   5.145  0.0247  0.1262 -0.0831
33176ION     NA48307   3.555  18.039  14.027  0.1066 -0.2401 -0.2262
33177ION     NA48308   5.429  15.112   5.469 -0.2897  0.2136 -0.1121
33178ION     NA48309   5.170   1.055   9.504 -0.1169 -0.2465  0.3991
33179ION     NA48310  16.757   1.597   1.535  0.3597 -0.1304  0.3960
33180ION     NA48311   5.460   7.321  13.907  0.0532  0.1491  0.2922
33181ION     NA48312   0.099   7.292  12.007  0.1037  0.3640 -0.0702
33182ION     NA48313   9.918   8.123  15.416  0.2156 -0.1371  0.2342
33183ION     NA48314  14.067   9.550  10.008  0.0832  0.0471  0.0503
33184ION     NA48315   8.528  18.371   3.517  0.0961 -0.2029  0.1963
33185ION     NA48316  14.706   4.082   5.571 -0.1858 -0.2654 -0.3872
33186ION     NA48317  18.665  14.977   6.054 -0.3584  0.2721 -0.1981
33187ION     NA48318  10.486  13.407  10.363 -0.0375  0.0768  0.0254
33188ION     NA48319  18.060  14.170   9.980 -0.2676 -0.2165  0.1693
33189ION     NA48320   9.117  15.789   5.568 -0.1988  0.0584 -0.1007
33190ION     NA48321  10.848   0.422   3.630  0.3944  0.3256  0.2242
33191ION     NA48322   7.461   9.944  11.303 -0.1977  0.0198 -0.0928
33192ION     NA48323   9.333  10.480   6.504 -0.0496  0.2535 -0.2856
33193ION     NA48324   2.590   6.740  15.070 -0.0192  0.0354 -0.0229
33194ION     NA48325   9.635  17.393   0.599 -0.0384 -0.3759  0.1627
33195ION     NA48326  18.108   8.330   9.469 -0.0686 -0.0548  0.0916
33196ION     NA48327  11.218   3.464   9.836 -0.0440  0.1521  0.3354
33197ION     NA48328   8.039  13.605  14.866 -0.1399  0.1907 -0.0858
33198ION     NA48329   5.082  14.042  15.415  0.1840  0.1292 -0.1711
33199ION     NA48330   0.882  10.641   0.935 -0.3395 -0.0187 -0.0017
33200ION     NA48331   3.545   8.844   2.569 -0.1396 -0.1736  0.0770
33201ION     NA48332   5.022   8.558   5.684  0.2501 -0.0665 -0.0046
33202ION     NA48333  15.570  11.900   2.119 -0.1183 -0.3212  0.0224
33203ION     NA48334   1.892  15.510   9.960 -0.2873 -0.2650  0.2448
33204ION     NA48335   1.249  16.818  15.749 -0.0597  0.2231  0.1783
33205ION     NA48336   9.231  15.175  10.053 -0.0656 -0.1707  0.2196
33206ION     NA48337   7.897  18.466   0.276  0.1240  0.0663 -0.0616
33207ION     NA48338  12.016   8.095   1.394 -0.3133  0.1039  0.3381
33208ION     NA48339  13.719  12.815   0.535  0.2531  0.0940  0.4460
33209ION     NA48340   2.043   3.466   4.762 -0.1225 -0.2802 -0.3325
33210ION     NA48341  12.597  12.526  11.544 -0.2987 -0.1415  0.1933
33211ION     NA48342   5.345  14.517  10.095  0.0753 -0.1296  0.1436
33212ION     NA48343   0.945   4.316   0.129  0.2268 -0.1071 -0.0701
33213ION     NA48344   8.911  10.175  10.554 -0.0521 -0.0479  0.0001
33214ION     NA48345  11.263   8.228  10.793  0.0889 -0.0302  0.0827
33215ION     NA48346  11.276   5.469  12.222  0.2444 -0.0423  0.3858
33216ION     NA48347   9.381   4.567   5.711  0.1114  0.3866  0.1782
33217ION     NA48348   6.838  16.771   9.560 -0.1004 -0.1193 -0.2207
33218ION     NA48349   8.579  10.887   6.434 -0.0070  0.1873  0.0856
33219ION     NA48350   9.133   5.249   2.220 -0.0474  0.0427  0.0809
33220ION     NA48351   8.310   7.085   1.417  0.2282 -0.1778  0.0214
33221ION     NA48352   0.323  18.545   6.121 -0.0141 -0.2549  0.2234
33222ION     NA48353   2.314  10.634   9.872  0.0714 -0.4798 -0.3105
33223ION     NA48354   5.644  17.857   3.174  0.2142 -0.0057 -0.1591
33224ION     NA48355  12.902   7.735   4.469  0.1107  0.1729  0.1648
33225ION     NA48356  17.574   2.134  10.307 -0.0780  0.3457 -0.2554
33226ION     NA48357  12.557   8.857   5.982 -0.1236 -0.0529 -0.1740
33227ION     NA48358   3.476   3.314   0.114 -0.0745  0.4055  0.1088
33228ION     NA48359   9.336   6.596   1.069 -0.1956  0.0075 -0.3871
33229ION     NA48360   0.953   1.172   2.047  0.0327  0.0278  0.0968
33230ION     NA48361  18.659  14.217  14.169  0.0431  0.1032 -0.0645
33231ION     NA48362  17.684   1.674   5.455  0.0535 -0.1485 -0.1220
33232ION     NA48363  10.773   5.546  10.328  0.3233 -0.1107  0.1077
33233ION     NA48364  10.352  10.907   4.292  0.2930  0.2635 -0.1881
33234ION     NA48365   2.043   1.440   9.588  0.0105 -0.2157  0.1148
33235ION     NA48366  10.219   2.702   9.834 -0.2675  0.1863  0.0865
33236ION     NA48367  14.225  13.087   4.136 -0.0221  0.2461  0.1019
33237ION     NA48368  11.918   8.441  10.647  0.1538  0.1114 -0.1694
33238ION     NA48369   3.463  13.613   1.576 -0.1373  0.0586  0.3268
33239ION     NA48370   4.965  16.479   4.951  0.1073  0.0340 -0.2406
33240ION     NA48371  11.961   5.811  15.558 -0.1985  0.0307 -0.2315
33241ION     NA48372  16.103  10.811  14.884 -0.0603 -0.1274 -0.0935
33242ION     NA48373   0.491  11.371   3.694  0.1567 -0.0536  0.0322
33243ION     NA48374  15.929   7.052   5.275 -0.1655  0.0721  0.1064
33244ION     NA48375  10.020  12.107  12.737  0.2959 -0.1267 -0.0563
33245ION     NA48376   1.747  18.377   5.787  0.1754 -0.1727 -0.2496
33246ION     NA48377  10.049   1.057   5.900 -0.1566 -0.0499 -0.1579
33247ION     NA48378   8.580  11.194  10.286  0.0471  0.1739  0.1668
33248ION     NA48379  18.550   2.455  14.676  0.3159  0.1242 -0.1190
33249ION     NA48380   7.946   1.507   9.867 -0.0119  0.1281  0.1624
33250ION     NA48381   6.922  13.486  13.698 -0.2409 -0.0781  0.0775
33251ION     NA48382   1.700  15.310   5.706  0.0431  0.0047  0.0455
33252ION     NA48383   7.677  11.172   1.250  0.1102  0.3209 -0.2107
33253ION     NA48384   2.947  13.087  15.686 -0.0579 -0.1650  0.2410
33254ION     NA48385  15.622  13.218   4.210  0.3099 -0.1561  0.1406
33255ION     NA48386  17.058  12.983  10.100  0.1358 -0.1123  0.0625
33256ION     NA48387   7.846   0.720   5.427 -0.0386  0.0512  0.1581
33257ION     NA48388   1.088   6.661   9.716 -0.0035  0.0604  0.3637
33258ION     NA48389   0.934  12.481   2.380  0.0650 -0.1911 -0.2088
33259ION     NA48390   1.474   4.435   0.052 -0.1540 -0.1328  0.1475
33260ION     NA48391  18.674  17.348  15.621 -0.0043 -0.1855  0.0407
33261ION     NA48392  15.476   8.542   2.417  0.0587 -0.1075 -0.2702
33262ION     NA48393   8.691   8.507   6.080  0.0942 -0.5700 -0.0240
33263ION     NA48394   8.267   9.649   2.285 -0.0559 -0.0866  0.2173
33264ION     NA48395  11.600   6.726  10.551  0.0725 -0.3465  0.0480
33265ION     NA48396   2.833   1.020  12.569 -0.1064 -0.3420  0.0835
33266ION     NA48397  17.275  15.816  10.261  0.0284 -0.3523  0.2075
33267ION     NA48398   6.501   6.657   9.774  0.0530 -0.0762 -0.1174
33268ION     NA48399  11.533   1.951   1.697 -0.0565  0.2060  0.0106
33269ION     NA48400  11.095  12.258   4.142  0.2885 -0.1617 -0.3717
33270ION     NA48401  17.377   7.735   9.235  0.2804 -0.0333 -0.0757
33271ION     NA48402  15.328  15.784   1.665 -0.0972  0.1113  0.0160
33272ION     NA48403   5.562   9.989  10.042 -0.0651  0.1561 -0.1415
33273ION     NA48404  17.623   6.320   9.324  0.2326 -0.2912 -0.3152
33274ION     NA48405   2.924  10.566   4.680 -0.1745  0.2783  0.0534
33275ION     NA48406   3.494  18.270  12.358 -0.2110 -0.0376 -0.3265
33276ION     NA48407  16.173   6.705   0.937 -0.0394 -0.0004 -0.0430
33277ION     NA48408  16.333   4.757  10.045 -0.3423  0.0429  0.0988
33278ION     NA48409   2.566   0.068   5.519 -0.1323  0.3788  0.1000
33279ION     NA48410  16.631   5.263   5.402  0.0357 -0.2011 -0.2582
33280ION     NA48411   4.165  11.461   0.037  0.1806  0.0362  0.0005
33281ION     NA48412   3.975  13.368  14.495  0.0660  0.3677  0.2470
33282ION     NA48413  17.052  14.783   3.937 -0.1378  0.2185  0.0641
33283ION     NA48414  17.006  15.635   5.995  0.1870  0.2072 -0.1355
33284ION     NA48415   9.744   4.224   9.565 -0.2474  0.1477 -0.0115
33285ION     NA48416  17.584  16.068   4.552 -0.0972  0.0036 -0.1604
33286ION     NA48417  11.069   5.464   0.976  0.0013  0.0958  0.0259
33287ION     NA48418  12.384   7.042   3.352 -0.2064  0.0415  0.3136
33288ION     NA48419   5.256   8.821   9.933 -0.1271 -0.2173 -0.0977
33289ION     NA48420  12.306  13.527   6.156  0.1201 -0.2810 -0.3036
33290ION     NA48421   0.504  14.932  10.065 -0.0083 -0.1969  0.0815
33291ION     NA48422  15.883   2.727  10.315  0.1742  0.0245  0.1724
33292ION     NA48423  14.072   1.332   3.540  0.0170 -0.1457  0.0697
33293ION     NA48424  14.250  15.789   0.954 -0.0985 -0.2374 -0.1063
33294ION     NA48425   1.469   2.179   0.494 -0.4109 -0.0217 -0.1087
33295ION     NA48426   2.884   1.329   9.367  0.2243  0.0557 -0.0182
33296ION     NA48427   0.792   6.498   5.550  0.1677 -0.1466 -0.0700
33297ION     NA48428  14.906  16.179   5.309 -0.3691 -0.0589  0.1834
33298ION     NA48429  12.021   2.711  13.811 -0.2392 -0.2353 -0.0470
33299ION     NA48430  17.358   1.554   5.131 -0.0760 -0.0149 -0.1858
33300ION     NA48431   6.429  10.358  12.671 -0.1348 -0.3717 -0.1193
33301ION     NA48432   1.396   3.468   5.674  0.2885 -0.1170  0.1049
33302ION     NA48433  14.966  18.413  15.462  0.1821  0.1863 -0.0347
33303ION     NA48434   9.653   1.731  14.894  0.0759 -0.3356 -0.0843
33304ION     NA48435  16.569  17.194  10.326  0.2689 -0.0379 -0.0520
33305ION     NA48436   6.992   4.946   0.410  0.0945 -0.1229 -0.2156
33306ION     NA48437  12.580   2.263  15.123 -0.1653 -0.0548 -0.1597
33307ION     NA48438  11.079  10.822  14.489  0.0738 -0.1378 -0.0456
33308ION     NA48439  14.116   6.068   9.921 -0.0240 -0.3558 -0.4225
33309ION     NA48440   6.305  12.742  10.017  0.0428  0.4187  0.1032
33310ION     NA48441   7.181  11.180  10.198 -0.1574  0.0535 -0.1258
33311ION     NA48442   2.796  12.887   1.643 -0.2142 -0.2127 -0.1497
33312ION     NA48443   7.096  14.842  13.333  0.4124  0.0827  0.1967
33313ION     NA48444  17.613   7.434  13.093 -0.0563 -0.0766  0.1746
33314ION     NA48445  18.720   3.829   3.528  0.0044 -0.0695 -0.1786
33315ION     NA48446   8.662   9.528   6.037  0.2273 -0.1016  0.2608
33316ION     NA48447   0.748  17.902  15.352 -0.1966 -0.2227  0.0621
33317ION     NA48448  12.819   6.491   5.789 -0.4184 -0.0927 -0.0483
33318ION     NA48449   1.432  14.294   1.455  0.1250 -0.0229 -0.2862
33319ION     NA48450  14.949   3.236   5.809  0.0613 -0.0758 -0.0111
33320ION     NA48451  15.222   3.710  10.054 -0.0708 -0.0654 -0.0448
33321ION     NA48452  10.733   4.344  11.074  0.2399 -0.0441  0.4412
33322ION     NA48453  16.580  10.449   4.581 -0.0826 -0.3731  0.0630
33323ION     NA48454  14.246  17.719   5.061  0.0410  0.0345 -0.2545
33324ION     NA48455  13.802  13.743  10.589  0.0743 -0.0739  0.1232
33325ION     NA48456  15.400   7.039   9.715 -0.0201 -0.0987 -0.1677
33326ION     NA48457   6.720   1.753   9.724 -0.0894 -0.0640  0.0008
33327ION     NA48458  14.702  16.505   9.956  0.0545 -0.3546 -0.1186
33328ION     NA48459   8.692   2.421  15.343 -0.0869  0.1123 -0.1091
33329ION     NA48460   9.332  17.620   9.820 -0.1678 -0.1273  0.1909
33330ION     NA48461   3.081   3.882   5.801  0.0004  0.2336 -0.1521
33331ION     NA48462  11.906  14.710  10.282 -0.1151  0.2348  0.1345
33332ION     NA48463   6.349   1.675  10.524  0.3870  0.1532  0.0840
33333ION     NA48464   1.935  12.659  13.041  0.0805  0.0451  0.1217
33334ION     NA48465   3.746  16.534   5.339 -0.2897  0.0170  0.1360
33335ION     NA48466  13.507   1.122  10.168 -0.1505  0.0202 -0.2457
33336ION     NA48467   3.725  17.178   1.381  0.0502 -0.3096  0.0375
33337ION     NA48468  10.330   6.335   4.704 -0.0516  0.1878  0.1685
33338ION     NA48469  13.416   0.241  10.116  0.1911 -0.3588 -0.1819
33339ION     NA48470  16.786   4.445  12.752  0.0427 -0.0731  0.1036
33340ION     NA48471   5.319   4.183  12.205 -0.2371 -0.3402 -0.0939
33341ION     NA48472  10.505  13.511   4.695  0.2548 -0.1664 -0.1999
33342ION     NA48473  16.609  12.815   6.172 -0.0303  0.1315  0.0175
33343ION     NA48474   9.637   7.528   3.562  0.0971 -0.0368 -0.1563
33344ION     NA48475  18.456   4.282   0.646  0.0820  0.0577  0.1138
33345ION     NA48476   6.286   9.121   5.638  0.0716 -0.2010  0.0616
33346ION     NA48477  12.954   4.768  14.760 -0.0972 -0.1879  0.0060
33347ION     NA48478   5.195  15.360   4.562 -0.0353 -0.1579 -0.2255
33348ION     NA48479   2.312  18.533  13.316  0.1121  0.2782 -0.4107
33349ION     NA48480  17.037  13.601   6.281  0.4610 -0.2827 -0.2247
33350ION     NA48481   2.967   2.460   4.947 -0.3758 -0.1312 -0.4308
33351ION     NA48482   0.779  11.695   9.592  0.5895 -0.1342 -0.0869
33352ION     NA48483   3.990  17.646   2.204  0.1219  0.2078  0.0151
33353ION     NA48484  15.165  18.426  10.578  0.0659  0.4506  0.1655
33354ION     NA48485  13.007  12.907  14.384 -0.1437 -0.0377  0.0210
33355ION     NA48486  18.261  17.279   2.617 -0.2199  0.0157  0.0451
33356ION     NA48487   9.474   7.252  12.862 -0.2815  0.2218 -0.0033
33357ION     NA48488  16.167   3.508  11.254 -0.2757 -0.0045  0.1996
33358ION     NA48489   8.440  16.128   9.790  0.0529 -0.1050  0.1850
33359ION     NA48490  14.263  15.171   9.918 -0.0999  0.2701 -0.1992
33360ION     NA48491  15.363   3.502  10.531 -0.0615  0.1330  0.3865
33361ION     NA48492  17.858   6.754   5.003  0.0571  0.1495 -0.0921
33362ION     NA48493   7.566  10.047  15.227 -0.3999  0.1312 -0.1086
33363ION     NA48494   2.396   1.491   3.809  0.2606 -0.3083 -0.3845
33364ION     NA48495   0.045   2.110   0.490 -0.0340  0.5000  0.0693
33365ION     NA48496  15.984   5.582   9.763  0.1786 -0.2180  0.1087
33366ION     NA48497   9.878   3.124   3.413 -0.0768 -0.0312 -0.1123
33367ION     NA48498  16.694   0.753   6.140  0.0077  0.2068  0.3009
33368ION     NA48499  14.579  11.988  10.571 -0.0678 -0.1682  0.1184
33369ION     NA48500   1.172  10.261   9.650 -0.1908  0.0983  0.0482
33370ION     NA48501   3.343  16.321   9.964 -0.0209 -0.2066  0.2009
33371ION     NA48502   8.542   6.022   1.728 -0.0421 -0.2140  0.0044
33372ION     NA48503   7.657   4.509   1.774 -0.0456 -0.2665 -0.1319
33373ION     NA48504  10.614  16.993  12.964 -0.0467 -0.3157 -0.1379
33374ION     NA48505   5.804  14.949   9.403 -0.0361 -0.1931  0.0329
33375ION     NA48506   6.253   2.487   0.417 -0.1814  0.2586  0.0823
33376ION     NA48507   6.553  10.562   6.062  0.0356 -0.0012 -0.1471
33377ION     NA48508   3.791   0.089   0.009  0.0266  0.0973  0.0252
33378ION     NA48509   1.126  17.835   6.116  0.2717 -0.0917  0.1763
33379ION     NA48510   8.577   6.730  10.086 -0.3584  0.2013  0.2792
33380ION     NA48511  15.511   6.141   3.706  0.1811  0.1547  0.0153
33381ION     NA48512   9.283   8.530   4.934 -0.0980 -0.2041 -0.0209
33382ION     NA48513   1.031   0.762   5.380  0.0168 -0.0476 -0.1516
33383ION     NA48514  15.187   5.056   4.880  0.1881 -0.4457  0.1524
33384ION     NA48515  12.074   9.269  13.469  0.2877 -0.0786  0.5482
33385ION     NA48516   9.877   1.903   5.653 -0.3559  0.0337 -0.0816
33386ION     NA48517   8.756   2.028   1.285 -0.2151 -0.0551 -0.0271
33387ION     NA48518   0.221   6.973   3.926 -0.0130  0.0184 -0.0312
33388ION     NA48519   4.311   5.673   5.081 -0.6026  0.0478 -0.2396
33389ION     NA48520   0.331   6.977  15.756  0.4419  0.4302  0.1442
33390ION     NA48521   2.181   4.174   5.443 -0.0268 -0.0976 -0.0516
33391ION     NA48522   8.497   0.751   5.920 -0.0052  0.1520 -0.0299
33392ION     NA48523   2.779   6.345   4.381 -0.3144 -0.2242  0.1225
33393ION     NA48524   1.937   9.676   9.888 -0.5486  0.0647 -0.0953
33394ION     NA48525  15.729   9.605   4.636  0.1008 -0.4936 -0.1972
33395ION     NA48526   6.461   9.448  10.181  0.0059  0.0207  0.1323
33396ION     NA48527  13.735   2.279  11.417  0.1723  0.0810  0.0737
33397ION     NA48528  10.765  16.628  14.169 -0.3364  0.2579 -0.1068
33398ION     NA48529   5.886   7.494  11.933  0.2103 -0.0634  0.1322
33399ION     NA48530   5.841   4.118   5.815 -0.3293  0.2170 -0.0888
33400ION     NA48531   7.108   9.462  10.475 -0.0013  0.0161 -0.5011
33401ION     NA48532  11.655  12.016  10.597 -0.1608 -0.0640 -0.1447
33402ION     NA48533  18.707  11.974   9.696  0.1029 -0.1709  0.1798
33403ION     NA48534   0.096   6.543   9.477 -0.0338 -0.0055 -0.2806
33404ION     NA48535   5.173   7.523   5.467 -0.0439 -0.2056 -0.1758
33405ION     NA48536   3.380   4.906  15.762 -0.0747  0.0934  0.0422
33406ION     NA48537   5.089  10.723  10.075  0.1834  0.1447  0.0416
33407ION     NA48538   6.123   3.128  15.594 -0.1762  0.1480  0.3195
33408ION     NA48539   4.800   2.495   4.134 -0.0415  0.0857  0.0559
33409ION     NA48540  16.045   6.446   9.705 -0.0694  0.2407 -0.1029
33410ION     NA48541  13.258  12.253  10.765 -0.0380 -0.0996 -0.5490
33411ION     NA48542   7.141  12.566   5.969 -0.3019  0.1716  0.2917
33412ION     NA48543  17.185  15.026   0.025  0.0366 -0.1709  0.0232
33413ION     NA48544  12.729  13.791   5.353  0.1780  0.1776  0.3275
33414ION     NA48545   7.068   6.282   3.777  0.0509 -0.3712  0.2738
33415ION     NA48546  12.589   7.451  10.341 -0.1325 -0.1018  0.1893
33416ION     NA48547   1.166  18.704  15.112  0.2586  0.0323  0.1696
33417ION     NA48548  11.409  18.127   9.996 -0.2063  0.0108 -0.0138
33418ION     NA48549  17.870   5.625   3.153  0.2112 -0.2146  0.1300
33419ION     NA48550   0.536  14.763   3.671 -0.3163 -0.0588  0.3164
33420ION     NA48551  14.434   5.785  13.521  0.2207  0.4719 -0.1649
33421ION     NA48552   9.059  12.190   4.096  0.1952 -0.0176 -0.1970
33422ION     NA48553  17.776   8.039   2.572  0.0013  0.0374  0.0539
33423ION     NA48554  10.383   8.757  15.749  0.0029  0.1066  0.3749
33424ION     NA48555   4.188   7.169   1.356 -0.1851  0.1399  0.3817
33425ION     NA48556  13.103   2.058  12.171 -0.0166 -0.1119 -0.0897
33426ION     NA48557  16.968   9.799   5.309 -0.0048  0.0065 -0.6355
33427ION     NA48558  14.249   7.888   3.642 -0.0700 -0.1238  0.0329
33428ION     NA48559   2.797  16.738   5.525 -0.2057  0.2911 -0.0941
33429ION     NA48560  14.330   0.188  13.650  0.0686 -0.0579  0.0365
33430ION     NA48561   2.968   3.020   4.360 -0.3389  0.0069  0.1944
33431ION     NA48562  11.135  15.239   9.951 -0.3091 -0.1955  0.0068
33432ION     NA48563  13.685   5.757   0.130  0.0929 -0.0683 -0.0941
33433ION     NA48564   0.583  18.195  10.400  0.0699 -0.0728 -0.3986
33434ION     NA48565  16.210  18.217  11.056 -0.2169 -0.1986  0.1533
33435ION     NA48566  11.154  15.057  15.080 -0.0604  0.1460  0.3288
33436ION     NA48567   5.509  13.467   4.421  0.0461  0.0777  0.2436
33437ION     NA48568   3.013  13.757  10.015  0.1983 -0.0198 -0.4126
33438ION     NA48569  16.928   5.332   9.868 -0.2769  0.0301  0.0450
33439ION     NA48570   8.075   5.079   4.765  0.3034  0.0883 -0.0246
33440ION     NA48571   1.304  17.670  10.122 -0.1506 -0.2288  0.0511
33441ION     NA48572  11.672  13.956   3.031  0.0466  0.3639  0.2630
33442ION     NA48573   7.074  13.498   1.133  0.1281 -0.2383 -0.0570
33443ION     NA48574   2.764   8.975  13.843  0.0548  0.1900 -0.4986
33444ION     NA48575   9.273   6.773   5.683 -0.0478  0.1550  0.1449
33445ION     NA48576   4.585   0.440   9.713  0.0867 -0.4236 -0.3459
33446ION     NA48577  14.762  14.124   9.976  0.1535 -0.2190  0.0638
33447ION     NA48578   1.242   7.797  11.317  0.0547 -0.2799 -0.0369
33448ION     NA48579  13.112   4.629  15.593 -0.1985  0.1369  0.3076
33449ION     NA48580  14.474   1.542  10.795  0.2717 -0.1635  0.1555
33450ION     NA48581  14.263   2.161  12.265 -0.2273 -0.0257  0.0265
33451ION     NA48582  10.571   1.906   9.953  0.0553  0.2654 -0.3082
33452ION     NA48583   0.863   6.415   3.384 -0.1029 -0.2479 -0.1755
33453ION     NA48584  17.811  13.778   5.986 -0.1748  0.2384  0.0927
33454ION     NA48585  10.785   0.664   5.552  0.1163  0.0808 -0.1670
33455ION     NA48586  13.299  14.911   9.934  0.0931 -0.0294  0.0510
33456ION     NA48587   9.138  13.131  10.557 -0.2944 -0.3379  0.4373
33457ION     NA48588  12.254  17.028   9.845 -0.0810 -0.0895 -0.1571
33458ION     NA48589  16.079   7.310   9.354  0.2262  0.1228 -0.0474
33459ION     NA48590   1.038   9.322   9.594  0.0277 -0.2307  0.1217
33460ION     NA48591  12.416  13.897  10.046  0.1063 -0.1128  0.0772
33461ION     NA48592   6.745  13.353  11.152  0.0351 -0.0781 -0.3078
33462ION     NA48593  14.652   5.316   9.668  0.1133  0.1290  0.2416
33463ION     NA48594  15.488  16.843  10.243  0.1218 -0.3171 -0.2393
33464ION     NA48595   4.582   5.364   9.573 -0.0440 -0.6327 -0.0782
33465ION     NA48596   7.096   7.476   0.863  0.0150  0.1185 -0.2367
33466ION     NA48597   9.212   0.973   4.284  0.3862 -0.2406 -0.3786
33467ION     NA48598  10.580  14.085   1.962  0.0874 -0.0602  0.1259
33468ION     NA48599  15.696   7.977  14.271 -0.1051  0.2835  0.0839
33469ION     NA48600   7.748  14.459   3.431  0.0486  0.0070  0.3386
33470ION     NA48601  10.294  17.624   3.411 -0.2377  0.1144  0.1567
33471ION     NA48602   2.736  17.065  13.924  0.1556  0.4126  0.0583
33472ION     NA48603   2.118  15.857   4.007 -0.1540 -0.2363  0.1404
33473ION     NA48604  12.683  13.546   2.982 -0.1290  0.0490 -0.0258
33474ION     NA48605   4.611   8.953   5.578 -0.0348 -0.2734  0.0235
33475ION     NA48606  15.569   5.463  14.326  0.1934 -0.1888  0.2867
33476ION     NA48607  17.887   6.505   0.904 -0.2212  0.3481  0.1079
33477ION     NA48608  15.089  11.402  13.004 -0.1765  0.0787 -0.0370
33478ION     NA48609   9.021  11.955  10.464  0.1211  0.0448  0.2058
33479ION     NA48610   7.699   0.466  14.649 -0.1249 -0.1487 -0.2927
33480ION     NA48611  12.875  16.900  15.026 -0.1170  0.0583  0.2688
33481ION     NA48612  15.273   7.247   4.929 -0.0033  0.4134  0.0651
33482ION     NA48613  13.739  10.126   1.956  0.2917 -0.2414  0.2565
33483ION     NA48614  14.019  11.552   0.131  0.0135  0.2009  0.2986
33484ION     NA48615   8.085   3.586   1.833  0.1082 -0.1737 -0.2645
33485ION     NA48616   4.089   3.796   9.788  0.0648  0.0067 -0.3627
33486ION     NA48617   5.643   5.067   9.487  0.4170 -0.0442 -0.1973
33487ION     NA48618   9.365  16.432   1.619 -0.2361 -0.0871 -0.0085
33488ION     NA48619   4.825   5.893   3.888  0.1780  0.0180  0.1443
33489ION     NA48620  14.207   3.879  15.484 -0.0735 -0.0589  0.0079
33490ION     NA48621   0.529   5.859   9.438 -0.1218 -0.2767 -0.1169
33491ION     NA48622   4.179  18.228   5.004  0.1946  0.0462 -0.1037
33492ION     NA48623   0.551  10.489   5.750  0.1551 -0.2238  0.1196
33493ION     NA48624   7.291   5.321   5.356 -0.2235 -0.3349  0.0399
33494ION     NA48625   0.053   7.666   9.486 -0.0139 -0.4340 -0.3088
33495ION     NA48626  13.512  14.520   4.947 -0.0312  0.0987 -0.0037
33496ION     NA48627   7.803   6.632  13.728  0.2650 -0.2361 -0.1753
33497ION     NA48628  17.182   2.356   6.185  0.0809  0.0808 -0.0097
33498ION     NA48629   0.143  13.993   0.328 -0.0258 -0.1948  0.2913
33499ION     NA48630  10.778   5.670   1.780  0.1480  0.1757  0.1480
33500ION     NA48631  14.806  14.316   5.441 -0.0420  0.1682  0.0663
33501ION     NA48632   8.758  14.233   5.823  0.1701  0.1405 -0.2560
33502ION     NA48633  12.950  11.416   5.705 -0.1533  0.1652  0.0701
33503ION     NA48634  18.335  17.853   3.515  0.1955  0.0038  0.3882
33504ION     NA48635  12.543   6.764  10.193  0.0787 -0.2868  0.3439
33505ION     NA48636   3.930   4.602   9.753 -0.3145  0.3139  0.0510
33506ION     NA48637   0.600   5.225   5.413  0.1700 -0.1790 -0.0089
33507ION     NA48638  13.423   3.012  10.120  0.4465 -0.0577  0.0556
33508ION     NA48639   7.666   5.756   9.646  0.0171 -0.0734  0.0519
33509ION     NA48640  18.147  10.442   9.735 -0.0717  0.1116  0.1477
33510ION     NA48641   1.803   4.918  11.485 -0.2189 -0.1348  0.0174
33511ION     NA48642   1.042  15.709   9.937  0.5893 -0.0564 -0.1135
33512ION     NA48643  16.662  16.186  10.652  0.0133  0.1092 -0.0823
33513ION     NA48644   3.932   8.739   9.756  0.0302 -0.0637 -0.2873
33514ION     NA48645   4.429   9.778  13.251  0.0221 -0.3541 -0.2242
33515ION     NA48646   0.493  14.159   4.267  0.1793 -0.2062 -0.1554
33516ION     NA48647  16.316   1.108   2.030 -0.2701 -0.2975  0.1671
33517ION     NA48648  17.128   2.790  10.375  0.0299  0.0870  0.2804
33518ION     NA48649  12.116  10.872   6.276  0.0504  0.0484 -0.0439
33519ION     NA48650  10.954   7.980   5.864 -0.1089  0.1166  0.0479
33520ION     NA48651  14.112  11.200   6.312  0.0825  0.1279  0.5001
33521ION     NA48652  17.278   1.045   5.895  0.0057 -0.0462  0.0057
33522ION     NA48653   3.714   5.396  13.940  0.2492 -0.3795 -0.2656
33523ION     NA48654   4.834  17.444   9.542  0.2803  0.2249 -0.0738
33524ION     NA48655   0.452   3.358  12.927  0.0720  0.1013 -0.2064
33525ION     NA48656   2.971   5.966   9.569 -0.1710 -0.4239  0.0733
33526ION     NA48657   9.037  14.817   3.552 -0.3010 -0.0103  0.2139
33527ION     NA48658   2.123   5.776   9.416  0.0369 -0.1479  0.1632
33528ION     NA48659   4.749  16.297  11.203  0.0954 -0.3610  0.0292
33529ION     NA48660  12.177  15.457   3.134  0.1497 -0.0418  0.0593
33530ION     NA48661   7.843   7.414  10.025  0.6018  0.0817  0.3187
33531ION     NA48662   9.775   9.517  10.598  0.0403  0.3284 -0.1544
33532ION     NA48663  12.967   0.982  15.138  0.2728  0.0421 -0.0050
33533ION     NA48664   1.110  15.957   5.579 -0.1903  0.0413 -0.0120
33534ION     NA48665   9.663   0.044  14.027 -0.0454  0.2254 -0.3231
33535ION     NA48666  11.167  16.222  10.221 -0.1085  0.0380  0.1571
33536ION     NA48667  16.996   1.778  14.929  0.1196  0.1863  0.5166
33537ION     NA48668   0.293   5.511   5.089  0.0565 -0.1427  0.1880
33538ION     NA48669   4.245  18.015  10.697  0.0787  0.0372  0.0442
33539ION     NA48670   1.949  16.888  12.403 -0.0659  0.0651  0.0200
33540ION     NA48671   7.861  16.962   1.445  0.0056 -0.1627 -0.1962
33541ION     NA48672   1.363   0.102  10.043  0.1643  0.0606 -0.3181
33542ION     NA48673   7.838   9.029   5.992  0.1812 -0.2934  0.1942
33543ION     NA48674  10.813  11.886  10.575 -0.3585  0.3808  0.1858
33544ION     NA48675   6.427  17.599   0.055  0.0251  0.0337  0.1602
33545ION     NA48676  11.241   9.365  10.922  0.0727  0.1327  0.0929
33546ION     NA48677   1.868   9.615   5.667  0.2217  0.2422  0.1483
33547ION     NA48678   1.381   7.964  12.719  0.1997 -0.0603  0.1120
33548ION     NA48679  16.920   6.824   9.388 -0.1296  0.0940  0.2591
33549ION     NA48680   1.432  12.347   9.867  0.2482  0.0172  0.0505
33550ION     NA48681  15.357   9.156  10.072  0.1510 -0.1400 -0.2419
33551ION     NA48682  11.724  11.935   1.632  0.1129  0.0052  0.2881
33552ION     NA48683  17.568  11.976   0.669 -0.2962  0.1158 -0.0469
33553ION     NA48684   6.551  14.614   5.370  0.1114 -0.2484  0.0009
33554ION     NA48685   2.681   7.720  14.648 -0.0815 -0.0937 -0.3218
33555ION     NA48686   2.135   3.951  12.746  0.3935 -0.0852 -0.0196
33556ION     NA48687  10.613  16.301  12.280 -0.1681  0.0285 -0.6360
33557ION     NA48688   3.718   0.862   9.565 -0.0102  0.2861 -0.0801
33558ION     NA48689   5.444  10.789   3.699  0.0393 -0.0014 -0.2436
33559ION     NA48690  10.508   2.459  13.911  0.1687 -0.1556 -0.2131
33560ION     NA48691  15.244  14.908  10.095 -0.0558 -0.0133 -0.1470
33561ION     NA48692   5.020   6.821   2.144  0.4302  0.0081 -0.1994
33562ION     NA48693   7.121  13.283  10.352  0.0090  0.1704  0.0145
33563ION     NA48694   5.900   9.087   3.085 -0.1953 -0.1797 -0.0890
33564ION     NA48695  12.405  15.650  10.203  0.0998  0.0274 -0.4440
33565ION     NA48696   0.024   5.886   1.659  0.0518 -0.0869 -0.1766
33566ION     NA48697   6.679  14.380   9.726 -0.3896  0.4167 -0.1790
33567ION     NA48698   2.780  13.914  12.182  0.2872  0.2608 -0.4317
33568ION     NA48699   3.567   3.197   9.359  0.0324  0.0793 -0.0166
33569ION     NA48700  11.757  13.315   2.122 -0.2151 -0.3139 -0.3877
33570ION     NA48701   2.830   5.252   4.925 -0.0841  0.0752  0.4303
33571ION     NA48702   6.501  13.630   5.511  0.4952 -0.1249 -0.0629
33572ION     NA48703  16.017  14.675   1.253  0.0945  0.1368 -0.0129
33573ION     NA48704  14.338   3.608  10.186 -0.1959 -0.3286  0.0220
33574ION     NA48705   4.630   3.359  11.330 -0.1258 -0.2693 -0.1050
33575ION     NA48706  13.950  14.997  11.613 -0.0960 -0.0177  0.1648
33576ION     NA48707   8.249  13.221  10.445  0.1035 -0.2167  0.1308
33577ION     NA48708   7.783  10.733   6.233 -0.3148 -0.4826  0.0230
33578ION     NA48709  16.732  13.199  13.113 -0.0745 -0.2647 -0.1218
33579ION     NA48710   5.546   9.483   1.072  0.1986  0.0638 -0.3858
33580ION     NA48711   2.456   7.533  12.202  0.0327  0.1409 -0.1498
33581ION     NA48712   6.050   6.229  14.051 -0.1843 -0.3411  0.1096
33582ION     NA48713  15.028   6.497   9.813  0.0034  0.2844 -0.1150
33583ION     NA48714  10.462   9.608  10.998  0.0481 -0.0889  0.1656
33584ION     NA48715   8.821   9.742  14.765  0.0551  0.2268  0.3771
33585ION     NA48716  15.303  12.478  10.412 -0.4729 -0.3779  0.1142
33586ION     NA48717  10.904   1.854   2.893 -0.2858 -0.0544  0.0915
33587ION     NA48718   7.150  13.193   2.906 -0.4235  0.0178  0.0487
33588ION     NA48719  11.124  11.380   3.638 -0.1601 -0.1807 -0.1048
33589ION     NA48720   5.568  14.290   3.240 -0.0322 -0.1176 -0.1201
33590ION     NA48721  10.055  16.120   5.498  0.0053 -0.2143 -0.0034
33591ION     NA48722  10.639  15.339   0.044  0.0005 -0.1061  0.1146
33592ION     NA48723  15.786  15.811  14.168  0.2714 -0.1778 -0.0418
33593ION     NA48724  17.016  11.144   9.929  0.5216 -0.0039 -0.0309
33594ION     NA48725  14.398  11.899   1.676  0.2239 -0.0667  0.2792
33595ION     NA48726   5.440  12.021  10.126 -0.2701 -0.0814  0.2642
33596ION     NA48727   8.414   8.175   5.078 -0.2298 -0.1473  0.1487
33597ION     NA48728   5.011  13.707   5.595  0.1228  0.0737 -0.0392
33598ION     NA48729   7.516   7.719   1.867 -0.4443 -0.1437  0.2294
33599ION     NA48730  11.805   6.302  10.162 -0.0976 -0.0484  0.4057
33600ION     NA48731  16.842  13.721   5.857  0.5278  0.0719  0.1730
33601ION     NA48732   0.045   5.060  11.397  0.1211  0.2873  0.2114
33602ION     NA48733  12.422   5.840   9.895 -0.3781  0.1535 -0.0360
33603ION     NA48734  13.319   9.834   6.238  0.2684 -0.0714  0.3177
33604ION     NA48735  17.327   1.183  14.026 -0.0918 -0.1025 -0.2338
33605ION     NA48736   4.190  17.857  12.012  0.0614  0.1431  0.0101
33606ION     NA48737  15.991   2.264  10.084 -0.2725  0.2323  0.1516
33607ION     NA48738  14.833   2.952   2.729 -0.1471  0.1455 -0.0102
33608ION     NA48739   4.535   7.111   9.683  0.3425 -0.4092  0.0335
33609ION     NA48740   2.383  13.828   1.211  0.2960  0.0544  0.0663
33610ION     NA48741   5.727   3.664   5.593  0.1238  0.2191 -0.0395
33611ION     NA48742  11.666   3.106   1.176 -0.0458 -0.0278  0.0287
33612ION     NA48743  15.601  15.609   3.323  0.0616 -0.0404 -0.0367
33613ION     NA48744   2.166   2.864   0.555  0.5246 -0.3385 -0.0810
33614ION     NA48745  10.463   4.684   3.750  0.2164  0.1879  0.2416
33615ION     NA48746   2.884  14.615   4.830  0.0971 -0.3606  0.0704
33616ION     NA48747  10.271  12.428   3.349 -0.1051  0.0310 -0.0018
33617ION     NA48748  15.937   7.347  12.506  0.3130 -0.0026  0.0178
33618ION     NA48749  17.727  15.240  10.035  0.1558  0.0740  0.1837
33619ION     NA48750  15.949  14.687   9.951 -0.0533 -0.1789  0.2754
33620ION     NA48751   1.384   5.813   9.352 -0.0865 -0.1402  0.2793
33621ION     NA48752   0.963  16.022  15.274 -0.2663 -0.0996  0.0506
33622ION     NA48753  13.016  14.618   1.117 -0.1167  0.1715  0.1694
33623ION     NA48754   0.398   9.288  14.791  0.3283 -0.0401  0.0254
33624ION     NA48755   8.418   5.506   9.954 -0.0171 -0.1413 -0.0361
33625ION     NA48756  11.989  11.219  12.805 -0.1605 -0.2591 -0.2785
33626ION     NA48757  12.722  10.091   4.516 -0.0784  0.1773  0.0767
33627ION     NA48758   6.464  10.649   1.844  0.1004  0.2696 -0.1528
33628ION     NA48759   6.557  11.245  10.997  0.1327  0.1516 -0.0507
33629ION     NA48760   2.380  12.821  14.510 -0.2604 -0.1073  0.0870
33630ION     NA48761  14.517   6.157   5.551 -0.2562  0.0067  0.1651
33631ION     NA48762   0.394  11.581   5.432 -0.0352 -0.1744  0.0687
33632ION     NA48763   8.783   2.785   0.728 -0.0894  0.3005  0.2266
33633ION     NA48764   3.150   4.595   9.650 -0.3198 -0.4577  0.0665
33634ION     NA48765   0.147  12.833   5.575 -0.0512 -0.2521  0.3176
33635ION     NA48766  13.588  16.858  10.049  0.1657 -0.1977 -0.3020
33636ION     NA48767  12.736  14.017  14.659 -0.3676 -0.0543 -0.1914
33637ION     NA48768   5.640   4.458   3.126 -0.2616 -0.3601 -0.0593
33638ION     NA48769  12.930   3.006   3.101 -0.2729 -0.1108 -0.1113
33639ION     NA48770   1.284  11.622  13.558  0.2104  0.0918 -0.0710
33640ION     NA48771   9.690   5.047   5.347  0.2273 -0.1274  0.0259
33641ION     NA48772  12.988  17.555   1.620 -0.0677  0.1507  0.0796
33642ION     NA48773  13.027   1.692   1.836  0.2023 -0.0964  0.1065
33643ION     NA48774   3.162   6.816  10.494 -0.0762  0.1544  0.1296
33644ION     NA48775  16.053  18.592  10.738  0.1389 -0.2061  0.1238
33645ION     NA48776  13.162   7.865  14.958  0.3384 -0.1252  0.0377
33646ION     NA48777  16.522   9.641  13.621 -0.0192  0.0710  0.2848
33647ION     NA48778   5.309   8.617  14.679 -0.0476  0.3334 -0.2710
33648ION     NA48779   1.548   6.721   3.655  0.1261 -0.3943  0.1200
33649ION     NA48780  11.433  13.727  13.702  0.1152  0.0908  0.2957
33650ION     NA48781  10.205   8.562  10.688 -0.2013 -0.0645  0.5159
33651ION     NA48782   9.264  15.323   1.485  0.0695  0.1671  0.0090
33652ION     NA48783   5.349   4.734  10.399 -0.5403  0.1288  0.2921
33653ION     NA48784  10.538   5.098   5.876  0.1348  0.2928  0.0905
33654ION     NA48785  15.732   9.762   3.771 -0.0627 -0.1815 -0.0039
33655ION     NA48786  12.603  15.594   5.315  0.0710 -0.0158 -0.0699
33656ION     NA48787   7.150   1.603   2.857  0.1094  0.2485 -0.2624
33657ION     NA48788  12.514   0.249  15.651  0.2339  0.4863 -0.0308
33658ION     NA48789  13.874   4.889   0.471  0.1717 -0.3501 -0.0480
33659ION     NA48790   7.586  12.472  12.070  0.0423  0.0267 -0.0868
33660ION     NA48791  12.799  12.257   1.819  0.0521 -0.1028  0.0071
33661ION     NA48792  15.547   0.423   3.755 -0.0701  0.0252 -0.2422
33662ION     NA48793   8.501   6.857   5.675  0.0367  0.2394 -0.1281
33663ION     NA48794   1.231  17.533   5.730 -0.1877 -0.3723  0.1313
33664ION     NA48795  10.981  13.411  11.535 -0.0180 -0.0908  0.1092
33665ION     NA48796   2.193  14.122   5.351  0.3119 -0.0468 -0.2126
33666ION     NA48797   7.971  15.241   3.253 -0.0350  0.1302  0.3400
33667ION     NA48798  10.507  15.633   9.826  0.0363  0.0571  0.2258
33668ION     NA48799  17.764   5.273  15.004 -0.2357 -0.0907 -0.3419
33669ION     NA48800  16.859  12.340   5.748  0.0315  0.0812 -0.4255
33670ION     NA48801   0.400   4.937   9.764  0.0205  0.3356  0.0083
33671ION     NA48802   8.752  11.299   6.108  0.0194 -0.1143 -0.1033
33672ION     NA48803   1.625   0.318   0.196 -0.2947  0.2463  0.0495
33673ION     NA48804   6.322   8.596   0.777 -0.2554 -0.0494  0.1001
33674ION     NA48805   1.009   5.785  15.642  0.2170 -0.0274 -0.0426
33675ION     NA48806  12.961  13.084  10.400  0.0633 -0.0548  0.0994
33676ION     NA48807   0.726   1.225  11.840 -0.2878 -0.2715 -0.1829
33677ION     NA48808  18.244  18.527  14.418  0.2711  0.0465 -0.0878
33678ION     NA48809   3.824  16.263  13.780 -0.3625 -0.1778 -0.0588
33679ION     NA48810   9.586   1.958   9.960 -0.0591  0.2266 -0.2988
33680ION     NA48811   3.005  12.209  15.493 -0.2098  0.2255 -0.2184
33681ION     NA48812   5.769   7.488  13.018  0.0333  0.1196 -0.3125
33682ION     NA48813   6.995   4.011   5.132  0.0096 -0.2767  0.2877
33683ION     NA48814   2.358   4.160   9.755  0.2822 -0.2926 -0.1144
33684ION     NA48815  17.748  18.604  10.421  0.0539  0.1857 -0.2423
33685ION     NA48816   6.195  13.517   1.606 -0.1242  0.0752 -0.1351
33686ION     NA48817   8.565   7.710  10.135 -0.2309 -0.1956  0.0169
33687ION     NA48818  10.313  15.613   3.719  0.2547 -0.0873 -0.0281
33688ION     NA48819   8.121  12.635   5.695 -0.0301 -0.0262  0.1959
33689ION     NA48820  12.564   7.603   6.101  0.0649  0.1475 -0.0040
33690ION     NA48821  16.843  17.445   6.239 -0.0460 -0.0627 -0.1907
33691ION     NA48822  13.122   8.151   5.872 -0.0313 -0.0637 -0.0627
33692ION     NA48823   6.242  16.111  13.751  0.0085 -0.0731 -0.3796
33693ION     NA48824  17.519   1.696  15.430 -0.2287  0.0970  0.1942
33694ION     NA48825  12.343  14.403   5.950 -0.3695  0.3643  0.2013
33695ION     NA48826   6.907   9.088   4.941 -0.1095  0.3727  0.1527
33696ION     NA48827   0.334  10.655   9.456  0.0601  0.0274  0.0534
33697ION     NA48828   6.313  17.845   5.568  0.1922  0.2246  0.0657
33698ION     NA48829  17.690  14.788   0.249  0.2465 -0.0545  0.2079
33699ION     NA48830  10.487  11.094  10.655  0.1582 -0.0759 -0.3161
33700ION     NA48831  16.177  10.921   9.957  0.0820  0.1604 -0.1392
33701ION     NA48832  17.923  17.892   6.128 -0.2759  0.2250 -0.0478
33702ION     NA48833   9.636  16.156   9.990  0.1269 -0.1581  0.2389
33703ION     NA48834   2.802  11.390  14.955 -0.1604  0.1013 -0.2262
33704ION     NA48835   7.178  18.455   5.808  0.0541  0.0600  0.0432
33705ION     NA48836  11.783  10.933  11.975  0.1802  0.4275 -0.1838
33706ION     NA48837  16.079   8.839   0.015 -0.5486  0.0290  0.1711
33707ION     NA48838   6.554   3.025   1.087 -0.1116  0.0808  0.0172
33708ION     NA48839  10.782   4.788   0.030  0.1508  0.0465  0.0945
33709ION     NA48840  16.884   6.563   5.107  0.1039 -0.1859  0.0222
33710ION     NA48841  18.339   0.494   1.929  0.1200 -0.1970 -0.1825
33711ION     NA48842  10.649  18.311  13.252 -0.1490  0.1438 -0.1995
33712ION     NA48843   1.457   6.116  11.078 -0.1954  0.2059  0.0199
33713ION     NA48844   6.036   4.136   9.769 -0.1762  0.0132  0.2425
33714ION     NA48845  15.752   2.214   5.749  0.0444 -0.1667 -0.1994
33715ION     NA48846   7.090   9.653   2.256 -0.0017  0.1764  0.2646
33716ION     NA48847  18.211  18.553   5.312  0.3149 -0.1270  0.2237
33717ION     NA48848   7.652  16.009   9.509 -0.0860  0.2861  0.2516
33718ION     NA48849   1.613   5.086   1.541  0.2371  0.1436  0.1136
33719ION     NA48850  10.162   1.771   0.815  0.1469 -0.1541  0.0129
33720ION     NA48851   4.370  11.902   1.883  0.1375  0.0041 -0.1325
33721ION     NA48852   0.911   8.837   5.147 -0.1547  0.1782  0.2685
33722ION     NA48853  11.832   4.489   9.908 -0.4770 -0.0884  0.0301
33723ION     NA48854   0.801   3.440  10.063 -0.2756  0.2157 -0.0266
33724ION     NA48855   2.420  11.193   1.818  0.0317  0.0066  0.0881
33725ION     NA48856  15.108   3.330   3.972 -0.1515 -0.1196 -0.2686
33726ION     NA48857  15.373   2.096  15.718  0.2608  0.1809  0.2853
33727ION     NA48858  17.475  15.061  12.068  0.0939  0.3633 -0.2401
33728ION     NA48859  14.904   1.041  13.633 -0.0417 -0.1908 -0.3091
33729ION     NA48860   5.405   0.012   4.587 -0.0857  0.2371  0.2647
33730ION     NA48861  13.487   4.294   9.840 -0.1224  0.0276 -0.1594
33731ION     NA48862  17.865  11.885   5.026  0.1122 -0.1268  0.3623
33732ION     NA48863   7.932  15.356   9.838 -0.3352  0.3411 -0.1157
33733ION     NA48864   5.787   3.818  13.884  0.0823 -0.1915  0.2497
33734ION     NA48865   7.329  17.149   2.108  0.3284 -0.0855 -0.0188
33735ION     NA48866   6.247   2.371   4.897 -0.2036 -0.2354  0.1759
33736ION     NA48867   8.446  13.548   5.578  0.3122 -0.0861 -0.1961
33737ION     NA48868  15.187   0.774   6.299 -0.0273 -0.2167 -0.0612
33738ION     NA48869  14.199  11.027  10.720 -0.0781 -0.0689  0.1469
33739ION     NA48870  18.732  18.631  12.737 -0.1229 -0.0934 -0.3845
33740ION     NA48871  12.433  16.616   2.408  0.1306 -0.1396  0.0550
33741ION     NA48872   1.457   4.517   1.400 -0.2126  0.0929 -0.1571
33742ION     NA48873   6.997   9.360   6.155  0.0481  0.2884 -0.3139
33743ION     NA48874   6.687  14.337   0.079 -0.0947 -0.2612  0.2869
33744ION     NA48875  13.653   8.581  10.186  0.1952 -0.0543 -0.2562
33745ION     NA48876  18.149   0.801  10.413  0.0756  0.1132  0.0038
33746ION     NA48877   3.878   3.605   2.842 -0.3916  0.0170  0.4872
33747ION     NA48878   0.060   2.334   3.962  0.3074 -0.1369 -0.1988
33748ION     NA48879   4.016   4.677   3.926 -0.4223  0.0561  0.0782
33749ION     NA48880  18.147   9.602  12.373  0.1369  0.2412  0.1046
33750ION     NA48881  14.080  12.052  13.213  0.1165 -0.0334 -0.1174
33751ION     NA48882   8.171   4.314  14.312 -0.0082  0.1327  0.1975
33752ION     NA48883  13.970   2.485  10.583 -0.1906 -0.1482 -0.0104
33753ION     NA48884   5.368  15.668   9.282  0.0390 -0.3836 -0.3241
33754ION     NA48885  14.152   2.024  14.105 -0.1623 -0.0753 -0.1791
33755ION     NA48886   2.666   3.767   9.306  0.0942  0.0521 -0.1436
33756ION     NA48887   3.243  15.036   9.797  0.0118 -0.1142  0.2276
33757ION     NA48888   2.854   2.006   0.754 -0.0376  0.1161 -0.0647
33758ION     NA48889   3.050  16.563  15.600 -0.1808 -0.4378  0.0763
33759ION     NA48890   0.436   6.040   4.893 -0.0384 -0.0386 -0.0779
33760ION     NA48891  14.255   6.968   9.954  0.2602  0.1970  0.0943
33761ION     NA48892   2.679   9.822   5.232  0.0376  0.0462 -0.0584
33762ION     NA48893  13.337   2.322   2.203  0.0428 -0.0815  0.0268
33763ION     NA48894  14.401   8.712   9.981  0.1554 -0.1125  0.1992
33764ION     NA48895  14.321  10.876   3.689 -0.1120  0.1173 -0.3372
33765ION     NA48896   6.256   7.197   0.700 -0.1328 -0.3094 -0.2101
33766ION     NA48897   0.005  16.342   4.613  0.0126  0.0645 -0.2894
33767ION     NA48898  11.554  18.238   5.530  0.0662 -0.1154 -0.0719
33768ION     NA48899   1.563  16.913   1.390  0.1592  0.3254 -0.0099
33769ION     NA48900   4.392  12.956   9.890 -0.1244  0.2829  0.1627
33770ION     NA48901   6.261  12.833  13.888 -0.0070  0.0470 -0.1206
33771ION     NA48902  14.157   3.012   6.198  0.3953  0.4176  0.7201
33772ION     NA48903   6.045  11.214  13.710  0.2679  0.2887  0.1115
33773ION     NA48904  14.143  10.148  12.809 -0.0806 -0.0541  0.0436
33774ION     NA48905   4.298  14.412   2.388  0.0379  0.0498  0.3882
33775ION     NA48906  18.168  18.419   4.312  0.0905 -0.0739 -0.0748
33776ION     NA48907  11.379  17.904   5.212 -0.3675 -0.3431 -0.1028
33777ION     NA48908  16.846   5.585   4.626 -0.0211  0.0430  0.0074
33778ION     NA48909  11.774   6.700   0.193  0.0440  0.0305  0.0128
33779ION     NA48910   1.881  18.013  13.939  0.3218  0.1497  0.0184
33780ION     NA48911   7.164  12.750  15.424  0.5410  0.1195 -0.0900
33781ION     NA48912   9.258   4.201   2.383  0.0684  0.1399  0.2006
33782ION     NA48913  15.330   4.568   2.856  0.0119 -0.0850  0.1112
33783ION     NA48914   9.280   5.707  10.083 -0.0481  0.3147 -0.1087
33784ION     NA48915  15.401  17.773   6.038  0.3407  0.3374 -0.2219
33785ION     NA48916  17.001  15.265  12.405 -0.0105 -0.2226  0.2662
33786ION     NA48917   2.379  17.452   9.596 -0.0725 -0.1863  0.0630
33787ION     NA48918  17.923  10.814   3.160  0.1759 -0.2026  0.1370
33788ION     NA48919  14.271   3.424   4.236  0.0553 -0.2363 -0.0522
33789ION     NA48920   3.454   2.723  14.311  0.0987 -0.0617  0.3067
33790ION     NA48921  18.128   0.440  15.166 -0.2850 -0.0465 -0.2776
33791ION     NA48922   6.030  17.499  13.279 -0.0197  0.0393 -0.0824
33792ION     NA48923  12.509   5.286  15.142 -0.0153  0.2432 -0.0676
33793ION     NA48924   7.481   9.935   5.945  0.1449 -0.0542  0.3375
33794ION     NA48925   2.585  16.278   1.030  0.0961 -0.1026  0.2533
33795ION     NA48926  10.061  10.001  11.939 -0.0238  0.2221  0.1184
33796ION     NA48927  10.225  17.727   9.941 -0.2529  0.0456 -0.0606
33797ION     NA48928  12.728   1.872   9.977  0.1490 -0.1461  0.0684
33798ION     NA48929   0.627   1.125   4.818  0.0416 -0.4338  0.4881
33799ION     NA48930  10.511  18.001  15.278 -0.2043 -0.0810  0.0093
33800ION     NA48931   4.596  11.053  10.024  0.1781 -0.0593 -0.1938
33801ION     NA48932   7.398   3.458  10.061 -0.2493 -0.2895 -0.0128
33802ION     NA48933   6.562   3.170   9.754  0.0353  0.0624  0.1034
33803ION     CL48934  13.150  13.541   2.882  0.0771  0.1339 -0.0200
33804ION     CL48935   0.982   8.792   1.249 -0.0110 -0.1170  0.1391
33805ION     CL48936  11.856   2.127   1.255 -0.0021 -0.1073  0.2210
33806ION     CL48937   7.788   4.083   1.611  0.2297 -0.1646  0.0436
33807ION     CL48938   1.691   3.157  13.444  0.0963 -0.0103  0.1473
33808ION     CL48939  13.958   1.853  11.351  0.3410 -0.1429  0.1738
33809ION     CL48940   1.141   8.181  14.193  0.1143  0.2726 -0.1897
33810ION     CL48941  15.512   7.445  12.300 -0.4367 -0.2940  0.0075
33811ION     CL48942   7.040  15.219  13.664  0.1388  0.2773 -0.0318
33812ION     CL48943  10.661   5.506   1.312 -0.1131  0.0947 -0.1631
33813ION     CL48944  17.141   0.661  14.392  0.2099  0.4941  0.3015
33814ION     CL48945  11.296   5.649  14.579 -0.0990 -0.0595  0.0857
33815ION     CL48946   3.101   9.727  13.657 -0.0740  0.3505 -0.0077
33816ION     CL48947   1.599  15.924   3.896 -0.0682  0.2149  0.0455
  18.75571  18.75571  15.76567
