INSANE! Membrane UpperLeaflet>loPI:POPI:DPPI:PYPI:ERGO=20.0:5.0:3.0:2.0:10.0 LowerLeaflet>PSPI:POPI:POPS:YOPS:POPE:YOPE:POPC:YOPC:ERGO=6.0:14.0:21.0:9.0:9.0:21.0:12.0:48.0:60.0
48947
    1loPI    C1    1  13.975   9.493   9.967 -0.0848  0.1894  0.0767
    1loPI    C2    2  14.022   9.458  10.363 -0.1255 -0.3147  0.0429
    1loPI    C3    3  14.301   9.316  10.114 -0.0549  0.0842 -0.1134
    1loPI   PO4    4  13.767   9.726   9.925  0.0304 -0.1038 -0.4191
    1loPI   GL1    5  13.401   9.601   9.639  0.0882  0.0370  0.1616
    1loPI   GL2    6  13.161   9.762   9.416 -0.4265  0.2201 -0.1127
    1loPI   C1A    7  13.568   9.375   9.196  0.0420  0.1272  0.0087
    1loPI   C2A    8  13.677   9.236   8.822 -0.1880  0.2156 -0.0467
    1loPI   C3A    9  13.542   9.262   8.430  0.1607 -0.1238  0.0174
    1loPI   C4A   10  13.549   9.250   7.970 -0.2613 -0.0423 -0.1216
    1loPI   C5A   11  13.257   8.992   7.673  0.1637 -0.2457  0.3137
    1loPI   C6A   12  13.204   8.608   7.520  0.2436  0.1830  0.0436
    1loPI   C1B   13  13.116   9.632   9.106 -0.1848 -0.0377  0.0945
    1loPI   C2B   14  13.255   9.642   8.721 -0.2811 -0.1905 -0.1796
    1loPI   C3B   15  13.296   9.739   8.336 -0.1979 -0.0857  0.2734
    1loPI   C4B   16  13.261  10.010   7.957  0.1197 -0.3292 -0.1071
    2loPI    C1   17  15.172  11.208  10.020 -0.2119 -0.0358 -0.0324
    2loPI    C2   18  15.557  11.137  10.099 -0.1522 -0.0362 -0.3103
    2loPI    C3   19  15.291  11.152  10.397  0.0688  0.0087 -0.1118
    2loPI   PO4   20  15.047  11.011   9.818 -0.1027 -0.1260  0.2385
    2loPI   GL1   21  14.898  11.073   9.477 -0.1227 -0.0828  0.0009
    2loPI   GL2   22  14.610  10.818   9.498  0.2352 -0.0670 -0.0141
    2loPI   C1A   23  15.118  11.053   9.174  0.0284 -0.2624  0.0821
    2loPI   C2A   24  15.339  11.090   8.826  0.3322  0.3628  0.0868
    2loPI   C3A   25  15.354  11.449   8.511  0.0813  0.1133  0.2948
    2loPI   C4A   26  15.569  11.522   8.210  0.1184  0.2241  0.3247
    2loPI   C5A   27  15.716  11.326   7.878 -0.3667  0.0147  0.1714
    2loPI   C6A   28  15.791  10.884   7.643 -0.2402 -0.1824 -0.1000
    2loPI   C1B   29  14.778  10.716   9.136 -0.3377 -0.0521 -0.0153
    2loPI   C2B   30  14.959  10.622   8.712  0.5441  0.2709 -0.0989
    2loPI   C3B   31  14.883  10.438   8.412  0.3525  0.0485  0.1091
    2loPI   C4B   32  15.165  10.572   8.099 -0.0310  0.2501  0.2032
    3loPI    C1   33   7.627   7.195  10.667 -0.1896 -0.2432 -0.2933
    3loPI    C2   34   7.452   6.853  10.778  0.0006 -0.3398 -0.2870
    3loPI    C3   35   7.755   7.002  10.993 -0.2803 -0.0037 -0.1123
    3loPI   PO4   36   7.416   7.296  10.423  0.1270  0.1409 -0.3580
    3loPI   GL1   37   7.437   7.635  10.045  0.0332  0.1277  0.2486
    3loPI   GL2   38   7.699   7.843  10.116  0.3381 -0.1957 -0.0023
    3loPI   C1A   39   7.425   7.888   9.678  0.2673  0.0052  0.1954
    3loPI   C2A   40   7.404   7.840   9.140 -0.1183  0.2764  0.1966
    3loPI   C3A   41   7.334   8.076   8.726 -0.1294 -0.2822 -0.2974
    3loPI   C4A   42   7.424   8.093   8.334  0.3897  0.0526 -0.0612
    3loPI   C5A   43   7.498   7.957   8.027 -0.0755  0.1209 -0.1368
    3loPI   C6A   44   7.569   7.787   7.592  0.2945 -0.0075 -0.1094
    3loPI   C1B   45   7.956   7.805   9.677  0.0445  0.2397  0.3899
    3loPI   C2B   46   7.949   7.830   9.261  0.1676  0.1745 -0.4516
    3loPI   C3B   47   7.889   7.792   8.812 -0.0821  0.0411 -0.0478
    3loPI   C4B   48   7.697   7.693   8.477  0.2096 -0.1791  0.0613
    4loPI    C1   49  17.730   8.979  10.623  0.1885  0.3417 -0.0918
    4loPI    C2   50  18.126   9.007  10.676  0.1929  0.0792  0.0309
    4loPI    C3   51  17.924   8.702  10.837 -0.0615  0.2142 -0.0271
    4loPI   PO4   52  17.760   9.268  10.414 -0.0276 -0.2369 -0.1409
    4loPI   GL1   53  17.738   9.364  10.058  0.1847 -0.1725  0.0407
    4loPI   GL2   54  17.667   9.599  10.016 -0.0369 -0.0193 -0.1734
    4loPI   C1A   55  17.402   9.266   9.816 -0.2753  0.2845  0.1765
    4loPI   C2A   56  17.202   8.859   9.775 -0.0101 -0.1061  0.0573
    4loPI   C3A   57  17.194   8.573   9.425  0.1203 -0.1954 -0.3107
    4loPI   C4A   58  17.038   8.521   9.041 -0.0073 -0.0119  0.1897
    4loPI   C5A   59  17.200   8.377   8.701  0.0319 -0.0810 -0.1185
    4loPI   C6A   60  17.048   8.093   8.456  0.1729 -0.1981 -0.0021
    4loPI   C1B   61  17.376   9.768   9.707  0.2177 -0.4480  0.2644
    4loPI   C2B   62  17.421   9.560   9.333  0.1442  0.3974 -0.1885
    4loPI   C3B   63  17.380   9.483   8.970 -0.0863 -0.1302  0.1504
    4loPI   C4B   64  17.420   9.296   8.506 -0.0112 -0.1726 -0.1123
    5loPI    C1   65  13.761   5.344  10.127  0.0865  0.0565  0.3165
    5loPI    C2   66  13.532   5.553  10.380 -0.1362 -0.0091  0.1718
    5loPI    C3   67  13.724   5.226  10.508  0.0587  0.1718  0.3500
    5loPI   PO4   68  13.639   5.425   9.899  0.1008  0.0489  0.0601
    5loPI   GL1   69  13.543   5.811   9.599 -0.4318 -0.1013 -0.1884
    5loPI   GL2   70  13.165   5.650   9.627  0.3401  0.3394  0.1151
    5loPI   C1A   71  13.764   5.992   9.246  0.1602 -0.1516  0.1066
    5loPI   C2A   72  14.192   6.200   8.904  0.2137 -0.0471  0.4055
    5loPI   C3A   73  14.164   6.189   8.507  0.0963  0.2271 -0.2559
    5loPI   C4A   74  14.069   6.363   8.107 -0.0283 -0.1214 -0.0444
    5loPI   C5A   75  14.190   6.701   7.808 -0.1423  0.0182 -0.3472
    5loPI   C6A   76  14.542   6.811   7.756  0.0509 -0.1941 -0.0882
    5loPI   C1B   77  13.305   5.784   9.188  0.1718 -0.0748 -0.0307
    5loPI   C2B   78  13.259   5.880   8.762 -0.2602 -0.1060  0.1600
    5loPI   C3B   79  13.187   6.099   8.400 -0.1793 -0.2132  0.0827
    5loPI   C4B   80  13.339   6.259   8.074  0.1876 -0.0742 -0.0970
    6loPI    C1   81   7.218   0.213   9.830  0.2447  0.2419 -0.0852
    6loPI    C2   82   7.462  -0.074   9.696  0.3382  0.1645  0.2439
    6loPI    C3   83   7.257  -0.127  10.036 -0.2158  0.1886 -0.0750
    6loPI   PO4   84   7.099   0.254   9.659  0.2238 -0.3585 -0.0566
    6loPI   GL1   85   6.934   0.396   9.306 -0.1960 -0.0766  0.2874
    6loPI   GL2   86   6.598   0.467   9.326 -0.0878  0.3371  0.0028
    6loPI   C1A   87   7.109   0.473   8.922  0.0356  0.0063 -0.0380
    6loPI   C2A   88   6.940   0.590   8.612 -0.2774 -0.1216  0.3933
    6loPI   C3A   89   7.042   0.784   8.285  0.0521 -0.0915 -0.0680
    6loPI   C4A   90   6.798   1.144   8.124  0.0719  0.0758 -0.5263
    6loPI   C5A   91   6.482   1.481   7.883  0.1318  0.0431  0.1442
    6loPI   C6A   92   6.248   1.738   7.586  0.1727 -0.2032  0.2465
    6loPI   C1B   93   6.576   0.422   8.910  0.1171  0.2002  0.1343
    6loPI   C2B   94   6.357   0.319   8.513  0.0018  0.0366  0.1485
    6loPI   C3B   95   6.213   0.186   8.115  0.0677  0.0331  0.4840
    6loPI   C4B   96   5.948   0.405   7.853 -0.0898 -0.0522 -0.2149
    7loPI    C1   97   9.039  14.647   9.428  0.0684  0.0520  0.1798
    7loPI    C2   98   8.742  14.383   9.386 -0.1539  0.3038  0.1389
    7loPI    C3   99   8.745  14.632   9.699  0.1052  0.1921  0.2285
    7loPI   PO4  100   9.250  14.526   9.399  0.2033  0.2567  0.0974
    7loPI   GL1  101   9.355  14.580   9.011  0.1528  0.0587 -0.2425
    7loPI   GL2  102   9.538  14.765   8.839  0.3588  0.3231 -0.0828
    7loPI   C1A  103   9.624  14.351   8.590 -0.1793 -0.0901  0.0934
    7loPI   C2A  104   9.693  14.463   8.129 -0.2191 -0.0318 -0.0628
    7loPI   C3A  105   9.761  14.685   7.698  0.2754  0.2354 -0.1597
    7loPI   C4A  106  10.033  14.627   7.345 -0.0910 -0.0442 -0.0342
    7loPI   C5A  107  10.408  14.651   7.231  0.3039 -0.1779 -0.1409
    7loPI   C6A  108  10.593  14.694   6.827 -0.2157 -0.2919 -0.2366
    7loPI   C1B  109   9.318  14.715   8.408  0.1489  0.3854 -0.0914
    7loPI   C2B  110   9.412  14.893   8.055  0.2450  0.0768  0.0493
    7loPI   C3B  111   9.338  14.987   7.618 -0.2482  0.3354  0.0798
    7loPI   C4B  112   9.369  15.337   7.296 -0.0855  0.3297 -0.2426
    8loPI    C1  113  16.768  10.673  10.677  0.2886  0.0251  0.0297
    8loPI    C2  114  16.768  10.282  10.763  0.1234 -0.0056 -0.1043
    8loPI    C3  115  16.464  10.513  10.882  0.1152  0.0396 -0.2116
    8loPI   PO4  116  16.906  10.668  10.513  0.0129 -0.0800  0.0425
    8loPI   GL1  117  17.102  10.725   9.984  0.2401  0.1413 -0.1022
    8loPI   GL2  118  17.183  11.022   9.934  0.0737  0.0975 -0.0053
    8loPI   C1A  119  17.138  10.631   9.580  0.0151 -0.1332 -0.2712
    8loPI   C2A  120  17.292  10.792   9.150 -0.0917  0.1054  0.0755
    8loPI   C3A  121  17.202  10.907   8.822  0.0051  0.0768  0.0632
    8loPI   C4A  122  16.901  11.116   8.672  0.2915  0.0768  0.1208
    8loPI   C5A  123  16.852  11.494   8.373  0.0653  0.2255  0.3645
    8loPI   C6A  124  16.543  11.617   8.099  0.1131 -0.3688 -0.2136
    8loPI   C1B  125  17.438  11.108   9.572  0.1593 -0.1803 -0.2388
    8loPI   C2B  126  17.621  11.219   9.226 -0.2613  0.5693  0.0646
    8loPI   C3B  127  17.550  11.230   8.806  0.0686 -0.0228  0.1743
    8loPI   C4B  128  17.349  11.352   8.419 -0.1073  0.3262  0.4181
    9loPI    C1  129  16.377  17.219  10.364  0.0536 -0.0543 -0.1206
    9loPI    C2  130  16.314  17.471  10.668 -0.2388  0.2106 -0.3932
    9loPI    C3  131  16.008  17.265  10.512  0.0036 -0.3601 -0.1429
    9loPI   PO4  132  16.461  17.256  10.144 -0.2612 -0.0990  0.1194
    9loPI   GL1  133  16.183  17.394   9.756 -0.2487 -0.0439  0.2989
    9loPI   GL2  134  16.207  17.742   9.681 -0.1756  0.0348 -0.0417
    9loPI   C1A  135  16.012  17.433   9.301 -0.0040 -0.0412 -0.1485
    9loPI   C2A  136  16.017  17.255   8.921 -0.3500  0.1869  0.1814
    9loPI   C3A  137  15.928  16.934   8.559 -0.0009  0.1076 -0.2030
    9loPI   C4A  138  16.060  16.489   8.567  0.0976 -0.1543 -0.4058
    9loPI   C5A  139  16.268  16.242   8.281  0.4327 -0.1861  0.3631
    9loPI   C6A  140  16.507  16.053   7.974  0.0499  0.0854  0.1147
    9loPI   C1B  141  16.403  17.832   9.181 -0.0902  0.2888 -0.1532
    9loPI   C2B  142  16.777  17.678   9.069 -0.2420 -0.2071  0.0236
    9loPI   C3B  143  17.224  17.751   8.919 -0.2666  0.0254  0.1268
    9loPI   C4B  144  17.542  18.004   8.725  0.0891 -0.2578 -0.1934
   10loPI    C1  145  14.140  10.818   9.699 -0.0058  0.2114 -0.0795
   10loPI    C2  146  14.151  11.182   9.532  0.1059  0.1705 -0.1628
   10loPI    C3  147  14.162  11.144   9.930  0.1558  0.2559 -0.1556
   10loPI   PO4  148  13.983  10.692   9.507  0.0766  0.1394 -0.2718
   10loPI   GL1  149  14.017  10.386   9.254  0.1527  0.1928 -0.2007
   10loPI   GL2  150  14.326  10.522   9.221 -0.1529  0.2169 -0.2183
   10loPI   C1A  151  14.111  10.306   8.751  0.0815  0.0884  0.4033
   10loPI   C2A  152  14.395  10.411   8.410  0.0300  0.0402  0.1318
   10loPI   C3A  153  14.516  10.067   8.224  0.2487  0.0024 -0.0904
   10loPI   C4A  154  14.761   9.814   7.846 -0.3006 -0.0944 -0.1141
   10loPI   C5A  155  14.990   9.494   7.578 -0.1053  0.1108 -0.1524
   10loPI   C6A  156  15.478   9.409   7.460 -0.1666  0.1700  0.2048
   10loPI   C1B  157  14.414  10.786   8.836 -0.1371  0.1195 -0.0852
   10loPI   C2B  158  14.585  10.883   8.454  0.1457  0.2688  0.1294
   10loPI   C3B  159  14.604  10.997   7.976 -0.2864 -0.1715 -0.1068
   10loPI   C4B  160  14.723  11.256   7.625  0.2606 -0.0829  0.4580
   11loPI    C1  161  16.655   3.295  10.293  0.0445  0.1226 -0.1258
   11loPI    C2  162  16.847   3.412  10.625  0.0012  0.1486 -0.1100
   11loPI    C3  163  16.447   3.407  10.616 -0.0021 -0.3721  0.0237
   11loPI   PO4  164  16.851   3.171  10.178  0.0959  0.0836  0.2432
   11loPI   GL1  165  17.113   3.017   9.875 -0.1263 -0.0992 -0.4579
   11loPI   GL2  166  17.325   3.059   9.663  0.0099 -0.0023 -0.0373
   11loPI   C1A  167  16.891   2.764   9.643 -0.0501 -0.0239 -0.1302
   11loPI   C2A  168  16.741   2.508   9.288  0.0382  0.1280 -0.1947
   11loPI   C3A  169  16.843   2.479   8.946  0.0463 -0.0098  0.0932
   11loPI   C4A  170  16.927   2.429   8.597  0.0334  0.1573 -0.2689
   11loPI   C5A  171  16.729   2.171   8.330  0.1934 -0.2565 -0.3083
   11loPI   C6A  172  16.381   2.288   8.075 -0.2195 -0.2582 -0.2048
   11loPI   C1B  173  17.160   3.036   9.290 -0.0576  0.1430  0.0337
   11loPI   C2B  174  17.054   2.877   8.885 -0.1223 -0.0479 -0.1508
   11loPI   C3B  175  16.942   2.978   8.500 -0.1874 -0.0747 -0.1235
   11loPI   C4B  176  16.684   3.125   8.181  0.0794 -0.1218 -0.1101
   12loPI    C1  177   1.458   7.798  10.745  0.3258 -0.2068 -0.3099
   12loPI    C2  178   1.749   7.780  11.020 -0.1198  0.2281  0.2148
   12loPI    C3  179   1.367   7.738  11.130 -0.2912  0.0469 -0.4057
   12loPI   PO4  180   1.630   7.868  10.556  0.1147  0.0220  0.1722
   12loPI   GL1  181   1.716   7.967  10.129 -0.0692  0.0111  0.2334
   12loPI   GL2  182   1.826   7.853   9.869  0.2221  0.1371  0.4294
   12loPI   C1A  183   1.553   8.415   9.943 -0.0051 -0.2799  0.0702
   12loPI   C2A  184   1.603   8.300   9.598  0.0310 -0.0469  0.0630
   12loPI   C3A  185   1.573   8.204   9.186 -0.2860 -0.0070  0.0689
   12loPI   C4A  186   1.497   8.091   8.699  0.2375 -0.1736  0.0579
   12loPI   C5A  187   1.379   8.028   8.276 -0.1412  0.1658  0.0282
   12loPI   C6A  188   1.030   8.119   8.076 -0.2091  0.0379  0.0432
   12loPI   C1B  189   1.909   7.958   9.467  0.1820 -0.1800  0.1991
   12loPI   C2B  190   1.722   7.738   9.152  0.0751  0.0866 -0.2590
   12loPI   C3B  191   1.623   7.642   8.748 -0.0566 -0.2641 -0.2503
   12loPI   C4B  192   1.826   7.713   8.388 -0.3308 -0.1337 -0.0849
   13loPI    C1  193   3.860   7.315  10.009  0.1081  0.0617 -0.1863
   13loPI    C2  194   4.225   7.320  10.173 -0.0142  0.1398  0.0882
   13loPI    C3  195   3.911   7.191  10.386 -0.1705  0.2096 -0.0973
   13loPI   PO4  196   3.907   7.330   9.808  0.1301 -0.2380 -0.6038
   13loPI   GL1  197   3.906   7.775   9.669 -0.0639  0.2078 -0.2344
   13loPI   GL2  198   3.764   8.012   9.687 -0.3102  0.2432 -0.0948
   13loPI   C1A  199   4.115   7.853   9.264  0.0344 -0.0601 -0.3133
   13loPI   C2A  200   4.453   7.744   9.001  0.0511  0.1281 -0.1322
   13loPI   C3A  201   4.745   7.396   8.796 -0.2821  0.2298 -0.2165
   13loPI   C4A  202   4.887   7.388   8.374  0.0315  0.1215 -0.1837
   13loPI   C5A  203   4.905   7.320   8.015 -0.0259 -0.1539  0.1790
   13loPI   C6A  204   5.274   7.218   7.723  0.0200 -0.2054  0.2765
   13loPI   C1B  205   3.676   8.159   9.389 -0.0797 -0.1124  0.0264
   13loPI   C2B  206   3.696   8.270   8.971 -0.0569 -0.0565 -0.0812
   13loPI   C3B  207   3.565   8.250   8.611  0.1759  0.2653  0.1325
   13loPI   C4B  208   3.515   8.367   8.234 -0.2862 -0.3117  0.0254
   14loPI    C1  209  10.386   5.373  10.488  0.0485  0.0071 -0.0776
   14loPI    C2  210  10.385   4.994  10.360  0.3506 -0.1472  0.3520
   14loPI    C3  211  10.051   5.156  10.511  0.1824 -0.1910  0.0356
   14loPI   PO4  212  10.507   5.490  10.323  0.3240  0.0163  0.0765
   14loPI   GL1  213  10.842   5.570  10.025  0.2307  0.0766  0.2047
   14loPI   GL2  214  10.770   5.238   9.990  0.0144  0.1926  0.2233
   14loPI   C1A  215  10.676   5.798   9.551  0.3895  0.2292 -0.0796
   14loPI   C2A  216  10.650   6.179   9.407 -0.1031 -0.2248 -0.2270
   14loPI   C3A  217  10.786   6.274   8.920  0.2479 -0.1147  0.0371
   14loPI   C4A  218  10.807   6.128   8.496 -0.2257 -0.0907  0.1045
   14loPI   C5A  219  10.953   6.435   8.144 -0.3709  0.2700 -0.3326
   14loPI   C6A  220  10.763   6.733   7.938  0.2245  0.0295  0.0643
   14loPI   C1B  221  10.588   5.258   9.547  0.0410  0.0160  0.0137
   14loPI   C2B  222  10.507   5.339   9.152 -0.4415  0.3726 -0.1550
   14loPI   C3B  223  10.421   5.211   8.697 -0.2086 -0.3151  0.0804
   14loPI   C4B  224  10.577   5.282   8.253  0.1301 -0.1075 -0.2194
   15loPI    C1  225   3.594   0.836  10.022  0.2557  0.1248  0.0172
   15loPI    C2  226   3.348   0.573   9.846  0.3439  0.0528  0.0008
   15loPI    C3  227   3.201   0.850  10.094  0.2233  0.1298 -0.1553
   15loPI   PO4  228   3.783   0.878   9.808 -0.0662  0.1561 -0.3281
   15loPI   GL1  229   3.594   1.024   9.478 -0.4140  0.0706  0.2132
   15loPI   GL2  230   3.471   1.278   9.370  0.0985 -0.1161 -0.2254
   15loPI   C1A  231   3.882   1.146   9.144  0.0167 -0.0785  0.2663
   15loPI   C2A  232   4.032   1.539   8.945 -0.1015  0.1053  0.0312
   15loPI   C3A  233   4.337   1.827   8.697  0.1799 -0.0192  0.0412
   15loPI   C4A  234   4.686   1.847   8.337 -0.3441  0.3016  0.1652
   15loPI   C5A  235   4.722   1.997   7.895  0.1787 -0.1198 -0.0072
   15loPI   C6A  236   4.731   2.221   7.461 -0.2160  0.1468 -0.1953
   15loPI   C1B  237   3.443   1.415   8.971  0.0640 -0.1569 -0.0852
   15loPI   C2B  238   3.429   1.442   8.671  0.0802  0.0455 -0.1826
   15loPI   C3B  239   3.507   1.473   8.199  0.1216  0.2036 -0.1169
   15loPI   C4B  240   3.651   1.261   7.879  0.2424  0.1408 -0.0109
   16loPI    C1  241  16.602   4.727  10.462  0.0437 -0.0148  0.0185
   16loPI    C2  242  16.218   4.678  10.563  0.0545 -0.0582  0.0393
   16loPI    C3  243  16.505   4.620  10.835  0.0869 -0.2235 -0.0286
   16loPI   PO4  244  16.619   4.578  10.224 -0.1153  0.1797  0.0492
   16loPI   GL1  245  16.803   4.446   9.850  0.1647  0.4420  0.0528
   16loPI   GL2  246  16.871   4.103   9.884 -0.0946  0.0352 -0.0429
   16loPI   C1A  247  16.701   4.245   9.458  0.1801 -0.2939 -0.0683
   16loPI   C2A  248  16.615   4.078   9.067 -0.0934  0.0597  0.2874
   16loPI   C3A  249  16.449   4.031   8.666  0.1122  0.1497  0.3186
   16loPI   C4A  250  16.428   4.043   8.219 -0.1208 -0.3578 -0.1441
   16loPI   C5A  251  16.253   4.300   7.958 -0.0482  0.1912  0.0220
   16loPI   C6A  252  15.928   4.642   8.025  0.0978 -0.1500  0.2114
   16loPI   C1B  253  17.057   3.986   9.622  0.0967 -0.1573 -0.0152
   16loPI   C2B  254  17.105   3.942   9.193 -0.0229 -0.2236  0.0616
   16loPI   C3B  255  17.049   4.005   8.761  0.0749  0.1716 -0.0266
   16loPI   C4B  256  16.861   4.095   8.417  0.2374  0.0699  0.1082
   17loPI    C1  257  13.486  16.071   9.890 -0.0310 -0.1289 -0.3397
   17loPI    C2  258  13.478  15.674   9.934  0.1325 -0.0946  0.0376
   17loPI    C3  259  13.212  15.854   9.695 -0.0972 -0.4064  0.0512
   17loPI   PO4  260  13.706  16.086   9.831  0.0755  0.2181  0.0488
   17loPI   GL1  261  14.148  16.181   9.649  0.1031  0.0272 -0.4408
   17loPI   GL2  262  14.264  15.984   9.613  0.1495  0.0002  0.0367
   17loPI   C1A  263  14.154  16.363   9.228  0.2169 -0.1847  0.0869
   17loPI   C2A  264  14.187  16.259   8.740  0.0930  0.0722 -0.3756
   17loPI   C3A  265  14.065  16.296   8.384 -0.1052 -0.2210  0.0656
   17loPI   C4A  266  13.993  16.401   8.063  0.3488  0.1305 -0.0471
   17loPI   C5A  267  13.674  16.317   7.765  0.0260 -0.0341 -0.2309
   17loPI   C6A  268  13.310  16.699   7.825 -0.0804 -0.1046 -0.1786
   17loPI   C1B  269  14.526  15.931   9.184 -0.1720 -0.0211  0.0716
   17loPI   C2B  270  14.822  15.947   8.880 -0.2231  0.3432 -0.2444
   17loPI   C3B  271  14.744  15.893   8.449 -0.0340 -0.0153 -0.0459
   17loPI   C4B  272  14.983  15.898   7.959 -0.1637 -0.2861  0.0878
   18loPI    C1  273   8.532   5.112  10.107  0.1327 -0.1448  0.1523
   18loPI    C2  274   8.296   5.175  10.424 -0.0979 -0.0651 -0.0323
   18loPI    C3  275   8.690   5.236  10.453 -0.1372  0.0925  0.1943
   18loPI   PO4  276   8.388   5.191   9.920  0.0258 -0.0536 -0.2378
   18loPI   GL1  277   8.041   5.532   9.778 -0.4493  0.0788  0.2671
   18loPI   GL2  278   7.745   5.625   9.752  0.0167 -0.4011  0.2403
   18loPI   C1A  279   8.099   5.622   9.356  0.0530 -0.0771  0.1236
   18loPI   C2A  280   8.262   5.420   8.897  0.2209 -0.0082  0.1116
   18loPI   C3A  281   8.396   5.442   8.526  0.0701  0.1906 -0.4922
   18loPI   C4A  282   8.557   5.305   8.143 -0.3314  0.2233 -0.1159
   18loPI   C5A  283   8.660   4.921   8.012  0.2269  0.2688 -0.0126
   18loPI   C6A  284   8.867   4.631   7.849 -0.1114  0.0847  0.0538
   18loPI   C1B  285   7.599   5.562   9.431  0.1430 -0.2839  0.0653
   18loPI   C2B  286   7.530   5.262   9.181 -0.1128  0.2763  0.0735
   18loPI   C3B  287   7.476   5.166   8.738  0.2588  0.1526  0.1741
   18loPI   C4B  288   7.363   5.421   8.337 -0.1679 -0.4171  0.0521
   19loPI    C1  289  15.016   1.988  10.120  0.1680  0.2853 -0.0939
   19loPI    C2  290  14.995   1.745  10.437 -0.0893  0.1277 -0.2280
   19loPI    C3  291  15.244   2.058  10.441  0.1071 -0.0275  0.0214
   19loPI   PO4  292  14.853   2.029  10.070 -0.1890 -0.4462  0.3294
   19loPI   GL1  293  14.789   2.137   9.675  0.3853 -0.0195 -0.0467
   19loPI   GL2  294  14.807   1.756   9.654 -0.0288  0.0021  0.1778
   19loPI   C1A  295  14.656   2.306   9.358 -0.0321  0.0130 -0.0933
   19loPI   C2A  296  14.604   2.452   9.010 -0.2144 -0.0269 -0.0659
   19loPI   C3A  297  14.794   2.588   8.673 -0.1630  0.0179 -0.4110
   19loPI   C4A  298  14.976   2.393   8.413 -0.0395 -0.2327  0.4251
   19loPI   C5A  299  14.916   2.156   8.120 -0.3987 -0.2566  0.0981
   19loPI   C6A  300  15.113   1.682   7.981  0.0159 -0.0261  0.4753
   19loPI   C1B  301  14.661   1.805   9.263 -0.1835 -0.0375  0.0183
   19loPI   C2B  302  14.878   1.671   9.018  0.0565  0.0616 -0.1020
   19loPI   C3B  303  15.091   1.558   8.733  0.2340  0.1647 -0.0030
   19loPI   C4B  304  15.207   1.803   8.471 -0.0132 -0.1273  0.1162
   20loPI    C1  305   2.935   5.695  10.672  0.0007 -0.4213 -0.0556
   20loPI    C2  306   3.206   5.866  10.910 -0.0129 -0.0383 -0.3068
   20loPI    C3  307   2.919   5.637  11.067  0.0832  0.0629  0.0254
   20loPI   PO4  308   3.100   5.641  10.437 -0.3222 -0.0309 -0.1585
   20loPI   GL1  309   3.045   5.800   9.950  0.1538  0.0998  0.0859
   20loPI   GL2  310   3.296   5.671   9.838  0.0468  0.0899  0.3528
   20loPI   C1A  311   3.178   6.065   9.570  0.1944 -0.1044 -0.2825
   20loPI   C2A  312   3.380   6.346   9.310  0.2004 -0.1468  0.2897
   20loPI   C3A  313   3.244   6.475   8.875 -0.0965 -0.2408 -0.0091
   20loPI   C4A  314   3.107   6.474   8.505 -0.1713 -0.1585  0.1393
   20loPI   C5A  315   2.812   6.587   8.094 -0.0977  0.0562 -0.2225
   20loPI   C6A  316   2.579   6.547   7.683  0.0184  0.2132  0.1824
   20loPI   C1B  317   3.437   5.627   9.494 -0.1306 -0.0688  0.3240
   20loPI   C2B  318   3.105   5.684   9.157  0.2225 -0.2274  0.0546
   20loPI   C3B  319   3.141   6.007   8.816 -0.0375  0.1588 -0.1400
   20loPI   C4B  320   3.475   6.125   8.479  0.2384 -0.0151 -0.0556
   21loPI    C1  321  13.424   7.100  10.606  0.0079  0.0152  0.0980
   21loPI    C2  322  13.702   6.855  10.757  0.0911 -0.0052 -0.0862
   21loPI    C3  323  13.355   6.706  10.624 -0.0408  0.0285  0.2121
   21loPI   PO4  324  13.477   7.259  10.352 -0.0649  0.1054  0.0881
   21loPI   GL1  325  13.447   7.474   9.978 -0.3413  0.1907  0.0675
   21loPI   GL2  326  13.716   7.641  10.049  0.0193  0.3954 -0.0235
   21loPI   C1A  327  13.403   7.597   9.636 -0.1229 -0.0797 -0.0531
   21loPI   C2A  328  13.378   7.515   9.129  0.2870  0.0314  0.0189
   21loPI   C3A  329  13.455   7.673   8.702 -0.1806 -0.2106  0.2786
   21loPI   C4A  330  13.314   7.958   8.395  0.0004 -0.2236 -0.5556
   21loPI   C5A  331  12.998   7.809   8.146  0.0704  0.1815  0.0965
   21loPI   C6A  332  12.564   7.837   8.221 -0.1198  0.3363 -0.0595
   21loPI   C1B  333  13.897   7.625   9.731  0.1558 -0.3501  0.2170
   21loPI   C2B  334  13.864   7.748   9.310 -0.0674  0.1826  0.1986
   21loPI   C3B  335  13.616   7.954   9.104 -0.1103 -0.0958  0.0854
   21loPI   C4B  336  13.539   8.320   8.838  0.0089 -0.0792  0.2827
   22loPI    C1  337  17.734  17.255  10.353 -0.1237 -0.2437 -0.1177
   22loPI    C2  338  17.973  17.054  10.602  0.1231 -0.0143 -0.1657
   22loPI    C3  339  17.640  17.227  10.740  0.1882 -0.0029 -0.0215
   22loPI   PO4  340  17.802  17.233  10.023 -0.0372  0.0010  0.1422
   22loPI   GL1  341  17.542  17.238   9.656  0.0026  0.1849  0.0066
   22loPI   GL2  342  17.642  17.538   9.664 -0.0007 -0.1400 -0.0229
   22loPI   C1A  343  17.856  17.027   9.416 -0.1056 -0.0178  0.0768
   22loPI   C2A  344  17.874  16.692   9.091  0.2560 -0.2345  0.1648
   22loPI   C3A  345  18.171  16.481   8.848  0.0703  0.0565 -0.2163
   22loPI   C4A  346  18.574  16.380   8.694 -0.0134  0.2943  0.1138
   22loPI   C5A  347  18.715  16.026   8.513 -0.1854 -0.0712  0.0882
   22loPI   C6A  348  18.510  15.654   8.597  0.1788 -0.0392 -0.1811
   22loPI   C1B  349  17.927  17.509   9.339 -0.1084  0.0041  0.1712
   22loPI   C2B  350  18.272  17.589   8.974 -0.2379  0.1187 -0.0082
   22loPI   C3B  351  18.675  17.467   8.647  0.0317 -0.1220 -0.0522
   22loPI   C4B  352  18.984  17.343   8.605 -0.0502 -0.2051  0.1296
   23loPI    C1  353  15.595  18.135  10.105 -0.0595 -0.0556  0.0368
   23loPI    C2  354  15.977  18.151   9.987 -0.0944 -0.2168 -0.1014
   23loPI    C3  355  15.888  18.170  10.376  0.0300  0.1837 -0.0882
   23loPI   PO4  356  15.446  18.199   9.880 -0.2074  0.1497 -0.0331
   23loPI   GL1  357  15.533  18.059   9.497 -0.1622 -0.1155 -0.1468
   23loPI   GL2  358  15.667  18.451   9.501  0.1996  0.2007 -0.1285
   23loPI   C1A  359  15.868  17.923   9.198 -0.1394 -0.3091  0.1576
   23loPI   C2A  360  16.077  17.960   8.740  0.0132 -0.0387  0.1513
   23loPI   C3A  361  16.313  17.592   8.630 -0.2443  0.0864 -0.0011
   23loPI   C4A  362  16.331  17.178   8.413  0.1996 -0.2255 -0.0379
   23loPI   C5A  363  16.707  17.018   8.238  0.0341  0.0152 -0.5466
   23loPI   C6A  364  17.006  16.906   8.520  0.0341 -0.1032 -0.3402
   23loPI   C1B  365  15.668  18.506   9.073 -0.0033  0.1229 -0.1985
   23loPI   C2B  366  15.934  18.502   8.721  0.0898 -0.4324 -0.4081
   23loPI   C3B  367  16.375  18.536   8.619 -0.1796 -0.0950 -0.2885
   23loPI   C4B  368  16.747  18.642   8.573  0.0634 -0.2926 -0.4044
   24loPI    C1  369  12.444   8.966  10.133 -0.2995 -0.3119  0.1058
   24loPI    C2  370  12.589   8.805  10.470 -0.2360 -0.0628  0.1994
   24loPI    C3  371  12.218   8.954  10.462 -0.2008  0.0254  0.1896
   24loPI   PO4  372  12.732   8.936   9.998  0.1495 -0.2373  0.2471
   24loPI   GL1  373  12.847   8.695   9.619 -0.3348  0.2016  0.0460
   24loPI   GL2  374  13.123   8.539   9.580 -0.3388  0.1165  0.0187
   24loPI   C1A  375  12.687   8.747   9.178  0.0311  0.2388  0.2064
   24loPI   C2A  376  12.656   8.792   8.713 -0.0795 -0.0520  0.0298
   24loPI   C3A  377  12.765   8.810   8.398  0.1194 -0.3529  0.2742
   24loPI   C4A  378  12.747   8.751   7.993  0.0423  0.0781 -0.3227
   24loPI   C5A  379  12.452   8.867   7.551  0.4725  0.2441 -0.0140
   24loPI   C6A  380  12.056   8.747   7.427  0.1505  0.2812 -0.2635
   24loPI   C1B  381  13.126   8.453   9.088  0.0396 -0.0794  0.2976
   24loPI   C2B  382  13.107   8.445   8.586 -0.2376 -0.1178  0.0644
   24loPI   C3B  383  13.240   8.345   8.122  0.2121 -0.1487 -0.2274
   24loPI   C4B  384  13.107   8.209   7.878 -0.0074 -0.2468 -0.3225
   25loPI    C1  385   8.575   7.924  10.452  0.1234  0.1569  0.2661
   25loPI    C2  386   8.432   7.787  10.800  0.0560 -0.0191  0.1702
   25loPI    C3  387   8.687   8.096  10.796 -0.2104  0.2083  0.3521
   25loPI   PO4  388   8.280   8.059  10.265  0.0880  0.1693  0.3639
   25loPI   GL1  389   8.116   8.262   9.872 -0.2194  0.3576 -0.1111
   25loPI   GL2  390   8.361   8.108   9.644  0.1550 -0.2052  0.2427
   25loPI   C1A  391   7.897   8.280   9.440 -0.3034 -0.1706 -0.0896
   25loPI   C2A  392   7.702   8.233   9.062  0.2331  0.0048  0.4185
   25loPI   C3A  393   7.826   8.262   8.602 -0.0107  0.1357  0.2423
   25loPI   C4A  394   7.940   8.138   8.205 -0.0603 -0.0272 -0.0922
   25loPI   C5A  395   8.295   8.361   7.946 -0.0909 -0.1455 -0.1463
   25loPI   C6A  396   8.355   8.453   7.525 -0.0056 -0.1249  0.1021
   25loPI   C1B  397   8.390   8.098   9.251  0.1083  0.1441 -0.2477
   25loPI   C2B  398   8.305   8.159   8.863  0.3064 -0.2343 -0.2140
   25loPI   C3B  399   8.336   8.241   8.468 -0.0354  0.1121 -0.1216
   25loPI   C4B  400   8.524   7.927   8.168 -0.4243  0.1420  0.3676
   26loPI    C1  401  17.168   5.426  10.504 -0.0107 -0.1401  0.0092
   26loPI    C2  402  17.514   5.589  10.619 -0.0050  0.0467 -0.2637
   26loPI    C3  403  17.168   5.757  10.728 -0.0096 -0.0792 -0.0803
   26loPI   PO4  404  17.179   5.370  10.298  0.3271 -0.3042 -0.2170
   26loPI   GL1  405  17.135   5.584   9.912 -0.0419 -0.0896  0.1470
   26loPI   GL2  406  16.991   5.866   9.713 -0.0833  0.0432 -0.0483
   26loPI   C1A  407  17.271   5.402   9.476  0.1058  0.3077 -0.1927
   26loPI   C2A  408  17.347   5.309   9.135  0.0858 -0.1242  0.2509
   26loPI   C3A  409  17.344   5.453   8.639  0.1834  0.1620  0.1976
   26loPI   C4A  410  17.199   5.201   8.358 -0.2342  0.1178 -0.1207
   26loPI   C5A  411  17.335   5.003   8.087  0.0373 -0.1048  0.0651
   26loPI   C6A  412  17.372   4.552   7.842  0.0909  0.2526 -0.1604
   26loPI   C1B  413  17.026   5.887   9.223 -0.2744 -0.5058 -0.1406
   26loPI   C2B  414  16.906   5.898   8.821 -0.2210 -0.0879 -0.2820
   26loPI   C3B  415  16.716   6.141   8.574 -0.2183 -0.2070 -0.0228
   26loPI   C4B  416  16.700   6.240   8.155 -0.1360 -0.3292 -0.0998
   27loPI    C1  417   6.555  17.287  10.027  0.0846 -0.0915  0.0141
   27loPI    C2  418   6.188  17.431  10.097  0.1500  0.0575  0.0554
   27loPI    C3  419   6.290  17.069  10.233  0.0632  0.0735  0.1646
   27loPI   PO4  420   6.559  17.344   9.744 -0.1089 -0.0556  0.2429
   27loPI   GL1  421   6.956  17.435   9.520  0.1268  0.0043 -0.2894
   27loPI   GL2  422   6.662  17.504   9.313 -0.1842 -0.1918  0.2758
   27loPI   C1A  423   7.064  17.425   9.047  0.0969  0.1756 -0.3180
   27loPI   C2A  424   7.123  17.331   8.602 -0.1601  0.1118  0.2853
   27loPI   C3A  425   7.312  17.244   8.096 -0.1691 -0.3385  0.1095
   27loPI   C4A  426   7.195  17.518   7.758 -0.1969  0.0787  0.0788
   27loPI   C5A  427   7.304  17.970   7.636  0.2234 -0.1357  0.1081
   27loPI   C6A  428   7.320  18.379   7.446  0.0678  0.0505 -0.1036
   27loPI   C1B  429   6.572  17.359   8.963  0.0351  0.0499 -0.0060
   27loPI   C2B  430   6.631  17.288   8.554 -0.2316 -0.0821  0.2645
   27loPI   C3B  431   6.805  17.389   8.143  0.2128  0.1093 -0.1127
   27loPI   C4B  432   6.763  17.322   7.692  0.0667 -0.0564 -0.1609
   28loPI    C1  433  11.072   7.477  10.158  0.1606 -0.0039 -0.2657
   28loPI    C2  434  10.985   7.142  10.359 -0.0497 -0.0048 -0.3549
   28loPI    C3  435  11.208   7.426  10.531  0.2368 -0.2431 -0.3245
   28loPI   PO4  436  11.205   7.361   9.899 -0.3268 -0.1505  0.0704
   28loPI   GL1  437  10.953   7.087   9.540  0.1599 -0.0346 -0.0590
   28loPI   GL2  438  11.185   6.883   9.428 -0.0104 -0.1093  0.0337
   28loPI   C1A  439  10.813   7.212   9.049 -0.2456  0.0642 -0.1875
   28loPI   C2A  440  10.767   7.410   8.641 -0.0264 -0.0489 -0.1182
   28loPI   C3A  441  11.106   7.457   8.326 -0.0242  0.0775  0.2190
   28loPI   C4A  442  11.543   7.498   8.288 -0.1492  0.0654  0.1318
   28loPI   C5A  443  11.927   7.593   8.463  0.1443  0.6203 -0.0849
   28loPI   C6A  444  12.225   7.895   8.565 -0.0129 -0.1589 -0.2187
   28loPI   C1B  445  11.229   6.553   9.059  0.2458  0.0383  0.5880
   28loPI   C2B  446  11.289   6.388   8.670  0.0749 -0.1194  0.1126
   28loPI   C3B  447  11.577   6.386   8.338  0.0999  0.1902 -0.1231
   28loPI   C4B  448  11.457   6.412   7.875 -0.1520 -0.0260 -0.2259
   29loPI    C1  449   6.613  15.183  10.279 -0.3980  0.0168  0.1501
   29loPI    C2  450   6.721  15.492  10.509 -0.0022  0.0388 -0.0573
   29loPI    C3  451   6.859  15.125  10.589 -0.0881 -0.0016 -0.0939
   29loPI   PO4  452   6.755  15.304  10.024 -0.0148 -0.2364 -0.1683
   29loPI   GL1  453   6.585  15.351   9.624  0.0907  0.0125 -0.2843
   29loPI   GL2  454   6.301  15.308   9.757 -0.0698  0.2071  0.0544
   29loPI   C1A  455   6.577  15.590   9.141 -0.0924  0.0902 -0.0986
   29loPI   C2A  456   6.387  15.682   8.843 -0.1279 -0.1078 -0.0820
   29loPI   C3A  457   6.395  15.777   8.428 -0.1422 -0.0717 -0.2461
   29loPI   C4A  458   6.341  15.747   8.048 -0.0540  0.5811 -0.2005
   29loPI   C5A  459   6.370  15.420   7.819 -0.2215 -0.0789  0.0559
   29loPI   C6A  460   6.285  14.981   7.745  0.3394  0.1802 -0.4291
   29loPI   C1B  461   6.155  15.294   9.251 -0.1605 -0.1196 -0.1347
   29loPI   C2B  462   6.082  15.334   8.823  0.2006 -0.0422  0.1541
   29loPI   C3B  463   6.068  15.365   8.428  0.2143 -0.2014  0.1072
   29loPI   C4B  464   5.945  15.390   8.072  0.0092  0.1887 -0.0355
   30loPI    C1  465  12.026  11.558  10.199 -0.0326 -0.1059 -0.0848
   30loPI    C2  466  12.040  11.902  10.403  0.0491 -0.0303 -0.2160
   30loPI    C3  467  12.238  11.581  10.537  0.0063 -0.0151 -0.1151
   30loPI   PO4  468  12.018  11.668   9.881  0.2985 -0.0194  0.0422
   30loPI   GL1  469  12.169  11.569   9.555 -0.0674 -0.1032  0.1121
   30loPI   GL2  470  12.603  11.495   9.641 -0.1912  0.0219 -0.1227
   30loPI   C1A  471  12.096  11.436   9.177  0.0504  0.1202 -0.2357
   30loPI   C2A  472  12.105  11.244   8.767  0.2428 -0.2254 -0.0668
   30loPI   C3A  473  12.307  11.137   8.235 -0.0902  0.2362  0.3090
   30loPI   C4A  474  12.202  11.024   7.894  0.0823  0.0128  0.0894
   30loPI   C5A  475  12.021  11.200   7.544  0.0086 -0.1489  0.0589
   30loPI   C6A  476  11.862  11.605   7.428  0.0987  0.0361 -0.0951
   30loPI   C1B  477  12.592  11.492   9.176  0.0292  0.0390 -0.2633
   30loPI   C2B  478  12.649  11.474   8.659 -0.2306 -0.0269 -0.0183
   30loPI   C3B  479  12.777  11.459   8.218  0.1110 -0.1979 -0.0024
   30loPI   C4B  480  12.695  11.067   7.877 -0.2162  0.0803 -0.1537
   31loPI    C1  481   3.630  10.323  10.475 -0.1941 -0.1021 -0.0488
   31loPI    C2  482   3.824   9.981  10.550 -0.0043 -0.0141 -0.1303
   31loPI    C3  483   3.481  10.063  10.739  0.0582 -0.1535  0.0455
   31loPI   PO4  484   3.521  10.314  10.214  0.1043  0.2973 -0.0280
   31loPI   GL1  485   3.349  10.270   9.832  0.3820  0.1636 -0.1599
   31loPI   GL2  486   3.120  10.203   9.639 -0.1231 -0.0737 -0.0548
   31loPI   C1A  487   3.545   9.990   9.483 -0.2048 -0.1139  0.4846
   31loPI   C2A  488   3.554   9.829   9.108  0.0089  0.3149 -0.1544
   31loPI   C3A  489   3.536   9.603   8.768 -0.1530 -0.0237 -0.1058
   31loPI   C4A  490   3.521   9.468   8.357  0.1010  0.1642  0.0424
   31loPI   C5A  491   3.517   9.224   7.907 -0.2455 -0.1664  0.0617
   31loPI   C6A  492   3.651   9.115   7.524 -0.1932  0.2724  0.1928
   31loPI   C1B  493   3.109  10.360   9.350 -0.2023  0.2821  0.0533
   31loPI   C2B  494   3.212  10.158   9.060 -0.0354 -0.1989 -0.2979
   31loPI   C3B  495   3.196  10.104   8.674 -0.0931  0.3959 -0.0739
   31loPI   C4B  496   3.099  10.133   8.214  0.4067  0.3616 -0.2103
   32loPI    C1  497  18.482   7.658  10.662 -0.0578  0.1444 -0.0660
   32loPI    C2  498  18.589   7.937  10.928  0.0913 -0.0625  0.0945
   32loPI    C3  499  18.235   7.754  10.962  0.1305 -0.1232  0.1803
   32loPI   PO4  500  18.616   7.819  10.412  0.3042 -0.0581  0.1338
   32loPI   GL1  501  18.624   8.262  10.181 -0.1626  0.0784  0.1463
   32loPI   GL2  502  18.334   8.411  10.208  0.0095  0.0267  0.2802
   32loPI   C1A  503  18.564   8.218   9.768 -0.1920 -0.2364  0.0891
   32loPI   C2A  504  18.639   8.130   9.394 -0.0088 -0.1649  0.3145
   32loPI   C3A  505  18.556   7.919   9.066 -0.2866  0.2124 -0.1834
   32loPI   C4A  506  18.772   8.032   8.665  0.0464  0.1835 -0.2707
   32loPI   C5A  507  19.056   7.939   8.290 -0.3150 -0.0420 -0.2510
   32loPI   C6A  508  18.902   7.654   7.990 -0.0869  0.0239 -0.2071
   32loPI   C1B  509  18.070   8.377   9.828 -0.0408 -0.0228  0.2811
   32loPI   C2B  510  18.196   8.389   9.306  0.0066  0.1346  0.0613
   32loPI   C3B  511  18.283   8.366   8.890  0.1799  0.3552  0.1603
   32loPI   C4B  512  18.250   8.126   8.483 -0.0309 -0.0199 -0.1076
   33loPI    C1  513  13.693   4.389  10.417  0.0543 -0.1664 -0.3927
   33loPI    C2  514  13.997   4.631  10.512 -0.1174 -0.1502  0.1515
   33loPI    C3  515  13.637   4.785  10.431 -0.0640 -0.1893 -0.1747
   33loPI   PO4  516  13.817   4.175  10.145  0.3097 -0.2898  0.0773
   33loPI   GL1  517  14.069   4.129   9.715  0.1152 -0.2044  0.3814
   33loPI   GL2  518  14.347   4.065   9.514 -0.0076  0.2069  0.1109
   33loPI   C1A  519  13.849   4.035   9.432 -0.3451 -0.0362  0.0188
   33loPI   C2A  520  13.723   4.207   9.032  0.3043 -0.1708 -0.2028
   33loPI   C3A  521  13.748   4.106   8.660  0.1138 -0.1113 -0.0750
   33loPI   C4A  522  13.558   4.058   8.255 -0.0754  0.0376 -0.0668
   33loPI   C5A  523  13.814   3.726   8.076 -0.0759 -0.0748 -0.5454
   33loPI   C6A  524  13.709   3.290   8.005  0.0102  0.0736  0.3243
   33loPI   C1B  525  14.252   4.085   9.018  0.3763 -0.2335 -0.1010
   33loPI   C2B  526  14.315   4.177   8.536 -0.1873 -0.0132  0.1919
   33loPI   C3B  527  14.059   4.149   8.120 -0.2487  0.1554  0.0101
   33loPI   C4B  528  13.780   4.144   7.714 -0.1839 -0.1048  0.0556
   34loPI    C1  529   6.454  16.182   9.972  0.1521 -0.1883  0.0300
   34loPI    C2  530   6.426  15.855   9.743 -0.1006 -0.1514  0.0059
   34loPI    C3  531   6.101  16.000   9.925  0.0528 -0.0407  0.1950
   34loPI   PO4  532   6.684  16.335   9.774 -0.0780  0.1081 -0.3481
   34loPI   GL1  533   6.561  16.398   9.320 -0.0432  0.0788 -0.5109
   34loPI   GL2  534   6.940  16.443   9.235 -0.1439 -0.0880 -0.1033
   34loPI   C1A  535   6.427  16.126   9.027  0.1684  0.1762  0.0835
   34loPI   C2A  536   6.204  16.199   8.675  0.2155 -0.1273 -0.1366
   34loPI   C3A  537   6.147  16.261   8.230  0.0444 -0.2422  0.0011
   34loPI   C4A  538   6.114  16.219   7.814 -0.0844 -0.2779 -0.0416
   34loPI   C5A  539   6.133  16.188   7.362 -0.0245  0.0322  0.0369
   34loPI   C6A  540   6.235  16.124   6.954  0.0216  0.0951 -0.2842
   34loPI   C1B  541   6.737  16.451   8.813  0.0823  0.1818  0.3423
   34loPI   C2B  542   6.587  16.265   8.430 -0.2802 -0.0208  0.0272
   34loPI   C3B  543   6.605  16.460   7.988  0.2548 -0.0650 -0.0941
   34loPI   C4B  544   6.812  16.843   7.782  0.1718  0.0546 -0.0550
   35loPI    C1  545   5.981   6.052  10.684 -0.1104 -0.1588 -0.1992
   35loPI    C2  546   6.264   5.770  10.704 -0.0272 -0.0635 -0.0123
   35loPI    C3  547   6.016   5.827  11.013 -0.0490  0.0628 -0.0527
   35loPI   PO4  548   5.965   6.076  10.453  0.0439  0.3703 -0.1341
   35loPI   GL1  549   5.710   6.137  10.173 -0.0365 -0.2497  0.2080
   35loPI   GL2  550   5.635   5.837  10.040 -0.4227  0.0296  0.4071
   35loPI   C1A  551   5.929   6.329   9.768 -0.0860  0.1582  0.1998
   35loPI   C2A  552   5.802   6.257   9.280  0.3397  0.3159  0.3405
   35loPI   C3A  553   5.873   6.211   8.813  0.2242 -0.1938 -0.2985
   35loPI   C4A  554   6.153   6.197   8.310  0.1970  0.4335 -0.5400
   35loPI   C5A  555   6.358   5.879   7.988  0.0189 -0.3770 -0.2727
   35loPI   C6A  556   6.837   5.874   7.929 -0.0551  0.0120  0.3181
   35loPI   C1B  557   5.737   5.817   9.567 -0.0600 -0.1082  0.0363
   35loPI   C2B  558   5.689   5.808   9.163  0.0453  0.1194  0.1090
   35loPI   C3B  559   5.729   5.753   8.702  0.2423  0.0545  0.2429
   35loPI   C4B  560   5.755   5.869   8.310 -0.2466  0.2921 -0.2151
   36loPI    C1  561   9.852   8.293  10.255 -0.0800  0.0284  0.0298
   36loPI    C2  562   9.679   8.250  10.613  0.0236 -0.0937  0.0658
   36loPI    C3  563   9.916   8.564  10.541 -0.2135  0.0758  0.0153
   36loPI   PO4  564   9.973   8.056  10.206 -0.0351  0.0452  0.4958
   36loPI   GL1  565   9.738   7.844   9.915  0.0560 -0.1258 -0.1872
   36loPI   GL2  566   9.953   7.570   9.901 -0.2476 -0.0306 -0.0640
   36loPI   C1A  567   9.854   7.901   9.422  0.1003 -0.1815 -0.3950
   36loPI   C2A  568   9.671   8.118   8.937  0.0001  0.2803 -0.1890
   36loPI   C3A  569   9.461   8.114   8.487  0.4194  0.0790 -0.1726
   36loPI   C4A  570   9.766   8.285   8.098  0.0532 -0.2530 -0.0025
   36loPI   C5A  571   9.926   8.312   7.731  0.3700 -0.1315 -0.0650
   36loPI   C6A  572  10.351   8.384   7.632 -0.0136 -0.1564 -0.0504
   36loPI   C1B  573  10.343   7.592   9.675  0.0032 -0.2611  0.1823
   36loPI   C2B  574  10.519   7.672   9.075 -0.0263 -0.0694 -0.2814
   36loPI   C3B  575  10.801   7.992   8.808  0.2962  0.2020 -0.2392
   36loPI   C4B  576  11.209   7.903   8.673 -0.0169 -0.1633 -0.6123
   37loPI    C1  577  18.107  15.462  10.119  0.2136 -0.0840 -0.0057
   37loPI    C2  578  18.205  15.652  10.457 -0.2579 -0.0459  0.1164
   37loPI    C3  579  18.371  15.298  10.371 -0.0162  0.0182  0.3074
   37loPI   PO4  580  18.056  15.578   9.942 -0.0666 -0.2418 -0.1013
   37loPI   GL1  581  17.967  15.551   9.560  0.1258  0.1567  0.1421
   37loPI   GL2  582  18.281  15.737   9.445  0.0744 -0.1151  0.1854
   37loPI   C1A  583  17.489  15.377   9.441  0.2607  0.2311 -0.0948
   37loPI   C2A  584  17.288  15.229   9.035 -0.4646 -0.0432  0.0373
   37loPI   C3A  585  17.006  15.022   8.838  0.0139  0.0821 -0.0269
   37loPI   C4A  586  16.814  14.689   8.654 -0.4233 -0.0132 -0.0140
   37loPI   C5A  587  16.488  14.421   8.538 -0.0455 -0.1838  0.2573
   37loPI   C6A  588  16.534  13.976   8.419 -0.0685 -0.0159  0.0606
   37loPI   C1B  589  18.610  15.556   9.088 -0.0637 -0.1333  0.2945
   37loPI   C2B  590  18.593  15.257   8.890 -0.3466 -0.3032 -0.1033
   37loPI   C3B  591  18.270  14.967   8.667 -0.0090 -0.0324 -0.1309
   37loPI   C4B  592  18.100  14.757   8.324  0.0765  0.0077 -0.0203
   38loPI    C1  593   8.694   1.127   9.951  0.1638  0.0955  0.1271
   38loPI    C2  594   8.860   0.874  10.212  0.1142 -0.0244  0.0433
   38loPI    C3  595   8.465   0.865  10.149  0.1347 -0.0427 -0.0854
   38loPI   PO4  596   8.850   1.083   9.681 -0.1688  0.1048  0.2830
   38loPI   GL1  597   9.227   1.077   9.363  0.2559  0.0096  0.2717
   38loPI   GL2  598   9.254   1.379   9.639  0.2293 -0.3768 -0.0420
   38loPI   C1A  599   9.045   1.123   8.979  0.2160 -0.1343 -0.0177
   38loPI   C2A  600   9.013   1.306   8.580  0.2135  0.1000 -0.2128
   38loPI   C3A  601   9.121   1.700   8.290 -0.2211 -0.0096  0.1365
   38loPI   C4A  602   8.957   1.749   7.822 -0.1202 -0.0550 -0.1703
   38loPI   C5A  603   8.760   1.926   7.424 -0.2049  0.1559 -0.2105
   38loPI   C6A  604   9.067   1.932   7.041 -0.1992  0.0549 -0.1379
   38loPI   C1B  605   9.148   1.563   9.229  0.1619 -0.1378 -0.2180
   38loPI   C2B  606   9.309   1.673   8.789 -0.1697  0.1109 -0.1791
   38loPI   C3B  607   9.560   1.556   8.524 -0.1899  0.1113  0.1027
   38loPI   C4B  608   9.554   1.194   8.233  0.5089  0.2637 -0.3203
   39loPI    C1  609   4.595  15.159   9.973  0.0887 -0.1250 -0.1105
   39loPI    C2  610   4.474  15.426  10.246 -0.1863  0.0164 -0.3654
   39loPI    C3  611   4.350  15.046  10.269 -0.0453 -0.0198 -0.1804
   39loPI   PO4  612   4.565  15.249   9.795  0.2371  0.3668 -0.0202
   39loPI   GL1  613   4.883  15.470   9.564 -0.1246  0.1031 -0.0377
   39loPI   GL2  614   5.137  15.430   9.331 -0.1901  0.0979  0.1732
   39loPI   C1A  615   4.675  15.442   9.188  0.2684  0.0164  0.0580
   39loPI   C2A  616   4.642  15.244   8.786  0.1570 -0.3083 -0.1364
   39loPI   C3A  617   4.634  15.039   8.417  0.1388  0.0251  0.0730
   39loPI   C4A  618   4.560  14.686   8.130  0.2749 -0.2594  0.0862
   39loPI   C5A  619   4.832  14.313   8.015 -0.4335 -0.3072  0.0814
   39loPI   C6A  620   5.333  14.292   8.015 -0.0065 -0.2258 -0.0798
   39loPI   C1B  621   5.143  15.076   9.101  0.1802  0.1020  0.0367
   39loPI   C2B  622   5.068  14.969   8.742 -0.0740  0.1021 -0.1333
   39loPI   C3B  623   5.095  14.778   8.298  0.3212  0.1355 -0.0048
   39loPI   C4B  624   5.013  14.742   7.890  0.0123 -0.0540  0.2881
   40loPI    C1  625  11.590   7.151  10.200 -0.2841  0.0449 -0.0649
   40loPI    C2  626  11.756   6.860  10.419  0.1676  0.0736 -0.3548
   40loPI    C3  627  11.665   7.210  10.589 -0.2120 -0.1659 -0.0450
   40loPI   PO4  628  11.724   7.311  10.008  0.3570 -0.3775  0.3075
   40loPI   GL1  629  11.939   7.035   9.701 -0.3542 -0.1573 -0.0665
   40loPI   GL2  630  11.598   7.023   9.630  0.1958 -0.2551  0.2023
   40loPI   C1A  631  12.132   7.069   9.332 -0.1741  0.1165 -0.0293
   40loPI   C2A  632  12.209   7.087   8.917  0.2554 -0.0109  0.3527
   40loPI   C3A  633  12.076   7.054   8.444  0.0599  0.0285  0.2739
   40loPI   C4A  634  12.036   7.236   8.058  0.0192  0.0352  0.1200
   40loPI   C5A  635  12.140   7.612   7.978 -0.0821  0.1264 -0.1308
   40loPI   C6A  636  12.358   7.993   7.795  0.1077 -0.0886  0.0626
   40loPI   C1B  637  11.645   6.931   9.153 -0.1650 -0.3005  0.0205
   40loPI   C2B  638  11.826   6.697   8.755  0.2321  0.2588  0.0911
   40loPI   C3B  639  12.020   6.545   8.492 -0.0667  0.0375 -0.1191
   40loPI   C4B  640  11.960   6.379   8.034 -0.2585 -0.1122 -0.0658
   41loPI    C1  641   4.845   7.910  10.009 -0.0290 -0.2614  0.1406
   41loPI    C2  642   5.138   8.169  10.093  0.0576 -0.2966 -0.0475
   41loPI    C3  643   5.092   7.840  10.316 -0.0671 -0.1105  0.2066
   41loPI   PO4  644   4.892   7.910   9.740  0.0403  0.2008  0.3393
   41loPI   GL1  645   5.059   8.255   9.555  0.3260  0.1551 -0.0241
   41loPI   GL2  646   5.292   8.137   9.617  0.1405 -0.3696 -0.1399
   41loPI   C1A  647   5.029   8.446   9.171  0.1875  0.1292  0.1351
   41loPI   C2A  648   5.174   8.580   8.753 -0.3092 -0.0859 -0.0355
   41loPI   C3A  649   4.973   8.446   8.371 -0.1000  0.2696  0.0773
   41loPI   C4A  650   4.998   8.123   8.090  0.0020 -0.0194  0.1469
   41loPI   C5A  651   4.821   7.784   7.920 -0.0137 -0.1557  0.2876
   41loPI   C6A  652   4.703   7.458   7.615 -0.2387  0.1032 -0.1791
   41loPI   C1B  653   5.515   8.353   9.349 -0.0902 -0.0450  0.0982
   41loPI   C2B  654   5.621   8.617   8.975 -0.1586 -0.0410  0.1247
   41loPI   C3B  655   5.687   8.771   8.585 -0.1277  0.3606  0.0681
   41loPI   C4B  656   5.373   8.781   8.366  0.2899 -0.0848  0.1876
   42loPI    C1  657  14.850   8.925  10.839 -0.0002  0.2145  0.1827
   42loPI    C2  658  14.522   8.782  11.018  0.1209 -0.2127  0.0747
   42loPI    C3  659  14.879   8.743  11.194  0.1399  0.0878  0.1075
   42loPI   PO4  660  14.817   8.780  10.571 -0.0149 -0.0055  0.0401
   42loPI   GL1  661  14.907   8.531  10.136  0.0984  0.1790  0.1678
   42loPI   GL2  662  14.932   8.235   9.965 -0.2969  0.0641  0.3896
   42loPI   C1A  663  15.130   8.719   9.788  0.2883 -0.0004 -0.0656
   42loPI   C2A  664  15.069   8.592   9.398  0.0951 -0.2444 -0.0751
   42loPI   C3A  665  15.149   8.644   8.955 -0.2190  0.1383 -0.0035
   42loPI   C4A  666  15.371   8.922   8.688 -0.0955 -0.2052  0.1820
   42loPI   C5A  667  15.586   9.131   8.435  0.5351  0.0222  0.2409
   42loPI   C6A  668  15.935   9.303   8.186 -0.3749 -0.2052  0.2523
   42loPI   C1B  669  14.961   8.033   9.559  0.1931  0.2744 -0.0497
   42loPI   C2B  670  14.732   8.042   9.209  0.1593 -0.1536 -0.0565
   42loPI   C3B  671  14.668   8.078   8.863 -0.2644  0.1516  0.2889
   42loPI   C4B  672  14.683   8.319   8.505  0.2173 -0.4708 -0.2690
   43loPI    C1  673   0.781  15.602  10.469  0.0358 -0.1529  0.3020
   43loPI    C2  674   0.985  15.371  10.213 -0.0482  0.1420 -0.0387
   43loPI    C3  675   1.166  15.680  10.391 -0.0796  0.1392 -0.0016
   43loPI   PO4  676   0.571  15.623  10.328  0.2109  0.1036  0.0520
   43loPI   GL1  677   0.767  15.838   9.996 -0.0565  0.2516  0.1777
   43loPI   GL2  678   0.600  15.878   9.766  0.3478 -0.2706  0.0817
   43loPI   C1A  679   0.961  15.498   9.648 -0.1336 -0.1556  0.1011
   43loPI   C2A  680   1.235  15.229   9.372 -0.1915 -0.1095 -0.2346
   43loPI   C3A  681   1.445  14.892   9.161  0.1050 -0.1208 -0.0124
   43loPI   C4A  682   1.344  14.549   9.020  0.2200  0.0225  0.0861
   43loPI   C5A  683   1.174  14.674   8.645  0.1811  0.0561  0.1694
   43loPI   C6A  684   0.957  14.778   8.303  0.2269 -0.0263 -0.2929
   43loPI   C1B  685   0.483  15.551   9.456 -0.2591 -0.2351 -0.0560
   43loPI   C2B  686   0.524  15.481   9.003  0.0102  0.0822  0.0066
   43loPI   C3B  687   0.459  15.502   8.619  0.1877  0.1654 -0.2191
   43loPI   C4B  688   0.629  15.663   8.206  0.4993  0.4739  0.0627
   44loPI    C1  689  18.094   3.431  10.600  0.1041 -0.0051 -0.1371
   44loPI    C2  690  18.493   3.416  10.621  0.0880 -0.0899  0.1572
   44loPI    C3  691  18.296   3.730  10.772  0.0468  0.0014 -0.0809
   44loPI   PO4  692  18.079   3.118  10.448 -0.0022  0.0537 -0.0451
   44loPI   GL1  693  18.127   2.978  10.020  0.1613 -0.0440 -0.0775
   44loPI   GL2  694  17.814   3.008  10.000  0.5365 -0.0939  0.0570
   44loPI   C1A  695  18.201   2.923   9.527 -0.2772 -0.0827 -0.0405
   44loPI   C2A  696  18.222   3.040   9.145 -0.2881 -0.0333 -0.4934
   44loPI   C3A  697  18.050   2.894   8.770 -0.1219 -0.0331  0.3508
   44loPI   C4A  698  18.264   2.986   8.407 -0.0023 -0.1360 -0.1860
   44loPI   C5A  699  18.457   3.049   7.951  0.0210 -0.1990 -0.0572
   44loPI   C6A  700  18.820   3.118   7.626 -0.3172  0.0292 -0.1411
   44loPI   C1B  701  17.847   3.335   9.603 -0.2090 -0.0536 -0.3291
   44loPI   C2B  702  17.591   3.504   9.347  0.1022  0.2761  0.0174
   44loPI   C3B  703  17.393   3.345   9.004 -0.2322 -0.1285 -0.1852
   44loPI   C4B  704  17.569   3.024   8.792  0.0196  0.2172  0.0443
   45loPI    C1  705   4.683   7.451   9.828  0.0988  0.3833  0.0166
   45loPI    C2  706   4.496   7.632   9.524 -0.0735  0.4128  0.1389
   45loPI    C3  707   4.361   7.678   9.898  0.0775  0.2956  0.2086
   45loPI   PO4  708   4.915   7.445   9.787 -0.1591  0.0808 -0.0291
   45loPI   GL1  709   5.172   7.464   9.482 -0.0244 -0.2904 -0.0115
   45loPI   GL2  710   5.309   7.145   9.733  0.1142 -0.1520 -0.3894
   45loPI   C1A  711   5.226   7.431   9.063  0.3115 -0.1325  0.0637
   45loPI   C2A  712   5.267   7.411   8.646  0.2312 -0.2844 -0.2067
   45loPI   C3A  713   5.333   7.189   8.282  0.0341 -0.3344 -0.2114
   45loPI   C4A  714   5.678   7.035   7.973 -0.0712 -0.0136  0.0640
   45loPI   C5A  715   6.185   7.007   7.722  0.2176  0.1665  0.1907
   45loPI   C6A  716   6.515   7.284   7.882 -0.0720 -0.6185  0.0847
   45loPI   C1B  717   5.500   7.113   9.339 -0.1096  0.2448  0.2198
   45loPI   C2B  718   5.690   7.213   8.984 -0.3461 -0.0258  0.0109
   45loPI   C3B  719   6.112   7.188   8.740 -0.0759 -0.4165  0.0185
   45loPI   C4B  720   6.376   7.484   8.550  0.0727  0.2545  0.1673
   46loPI    C1  721   6.697   6.054  10.377  0.0354 -0.2548  0.0911
   46loPI    C2  722   6.729   5.962  10.765  0.0817  0.0000  0.1492
   46loPI    C3  723   6.863   6.314  10.630  0.0683 -0.0877 -0.0994
   46loPI   PO4  724   6.492   5.833  10.297 -0.2190  0.1172  0.2769
   46loPI   GL1  725   6.593   5.481  10.011  0.2128 -0.0823  0.0028
   46loPI   GL2  726   6.379   5.138   9.829 -0.1467 -0.1280  0.0240
   46loPI   C1A  727   6.647   5.684   9.666  0.0952 -0.1938 -0.6144
   46loPI   C2A  728   6.615   5.763   9.220  0.1375  0.0086  0.2823
   46loPI   C3A  729   6.720   5.907   8.786 -0.0911 -0.0114  0.0872
   46loPI   C4A  730   7.051   5.926   8.471  0.1141  0.3533 -0.3174
   46loPI   C5A  731   7.201   6.231   8.153 -0.2361 -0.1262  0.1812
   46loPI   C6A  732   7.519   6.426   8.154  0.2732  0.0190 -0.3484
   46loPI   C1B  733   5.973   5.038   9.622  0.0356 -0.0990  0.2322
   46loPI   C2B  734   5.910   4.660   9.369 -0.0936  0.0648  0.0911
   46loPI   C3B  735   6.106   4.487   9.163  0.0418 -0.0865  0.1120
   46loPI   C4B  736   6.335   4.368   8.774  0.3543  0.0500  0.1268
   47loPI    C1  737  14.181   6.509  10.690 -0.0583  0.1056 -0.1249
   47loPI    C2  738  14.195   6.882  10.833  0.0470  0.0804 -0.0687
   47loPI    C3  739  14.267   6.572  11.075 -0.0496  0.0227 -0.1132
   47loPI   PO4  740  14.099   6.535  10.495  0.1527 -0.0513 -0.1642
   47loPI   GL1  741  14.143   6.674  10.034 -0.0905 -0.1415  0.0226
   47loPI   GL2  742  14.435   6.946   9.895 -0.3035  0.3324 -0.1101
   47loPI   C1A  743  13.946   6.757   9.657  0.2644 -0.3954  0.0303
   47loPI   C2A  744  14.025   6.866   9.248 -0.1207 -0.0084 -0.0442
   47loPI   C3A  745  13.899   7.211   8.803  0.1989  0.1067 -0.2166
   47loPI   C4A  746  13.667   7.222   8.376 -0.1562 -0.2833  0.0787
   47loPI   C5A  747  13.548   7.162   7.946  0.2613  0.2490  0.0254
   47loPI   C6A  748  13.257   6.870   7.898 -0.1904  0.0100  0.1380
   47loPI   C1B  749  14.484   6.948   9.468 -0.0788 -0.3297 -0.0274
   47loPI   C2B  750  14.375   7.072   8.996  0.0277  0.0636 -0.0929
   47loPI   C3B  751  14.438   7.409   8.711 -0.0596  0.4336  0.3175
   47loPI   C4B  752  14.317   7.718   8.437 -0.0007 -0.2094 -0.0339
   48loPI    C1  753  10.670  18.386  10.031 -0.2860 -0.3909  0.0026
   48loPI    C2  754  10.925  18.240  10.302 -0.0553  0.1019  0.0620
   48loPI    C3  755  10.626  18.480  10.417 -0.1538  0.0505 -0.0837
   48loPI   PO4  756  10.808  18.517   9.846  0.2509 -0.1680 -0.2566
   48loPI   GL1  757  10.807  18.913   9.562 -0.1460 -0.3298  0.0870
   48loPI   GL2  758  10.659  18.683   9.418 -0.1090 -0.1439 -0.1007
   48loPI   C1A  759  10.828  19.239   9.253  0.0819  0.0091 -0.0803
   48loPI   C2A  760  10.915  19.579   8.931  0.0119  0.2177 -0.0255
   48loPI   C3A  761  10.881  19.662   8.533 -0.0733  0.0312 -0.1531
   48loPI   C4A  762  11.027  19.580   8.261  0.1189  0.1214 -0.2522
   48loPI   C5A  763  11.077  19.736   7.890  0.2867 -0.0713  0.1339
   48loPI   C6A  764  11.027  20.143   7.830  0.1052 -0.1427 -0.0108
   48loPI   C1B  765  10.966  18.552   9.065 -0.2694 -0.2263  0.1992
   48loPI   C2B  766  11.173  18.602   8.642 -0.2029  0.1480 -0.1715
   48loPI   C3B  767  11.143  18.802   8.277  0.0378  0.2633 -0.3074
   48loPI   C4B  768  11.134  18.944   7.937 -0.5700 -0.0968  0.1130
   49loPI    C1  769  15.064   0.358   9.934  0.0188 -0.0673 -0.2912
   49loPI    C2  770  15.336   0.517  10.180 -0.0248 -0.2381 -0.1300
   49loPI    C3  771  15.104   0.755   9.957 -0.0922 -0.0748  0.1096
   49loPI   PO4  772  15.175   0.182   9.835  0.1467  0.0708 -0.0166
   49loPI   GL1  773  15.000   0.144   9.492 -0.1674  0.2248 -0.1418
   49loPI   GL2  774  15.177  -0.064   9.386  0.0217 -0.0126 -0.1172
   49loPI   C1A  775  14.637   0.304   9.215  0.0101 -0.3008 -0.1973
   49loPI   C2A  776  14.643   0.362   8.753 -0.2710 -0.1149  0.1334
   49loPI   C3A  777  14.370   0.277   8.412  0.0414  0.0264  0.1120
   49loPI   C4A  778  14.194  -0.033   8.037 -0.1271 -0.0689  0.2783
   49loPI   C5A  779  14.466   0.011   7.664 -0.1917  0.3031  0.1205
   49loPI   C6A  780  14.517  -0.164   7.301 -0.3842 -0.0173  0.3554
   49loPI   C1B  781  15.263   0.258   9.019 -0.0570 -0.1655  0.0291
   49loPI   C2B  782  15.464   0.324   8.664  0.2910  0.0417  0.1470
   49loPI   C3B  783  15.477   0.454   8.246  0.3519 -0.0504 -0.0059
   49loPI   C4B  784  15.486   0.714   7.963  0.3576 -0.0403  0.1733
   50loPI    C1  785   6.301   3.504  10.199 -0.1197 -0.0147 -0.0107
   50loPI    C2  786   6.138   3.587  10.555  0.0051 -0.0854  0.0636
   50loPI    C3  787   6.313   3.233  10.493  0.2341  0.0334  0.0232
   50loPI   PO4  788   6.062   3.750  10.062 -0.0636  0.1641 -0.1291
   50loPI   GL1  789   6.189   3.983   9.668 -0.0867  0.1182  0.2328
   50loPI   GL2  790   6.086   3.649   9.553  0.0828  0.1710  0.1174
   50loPI   C1A  791   6.523   4.192   9.422  0.0196 -0.0095  0.2784
   50loPI   C2A  792   6.738   4.330   9.118  0.3534 -0.2798  0.0683
   50loPI   C3A  793   6.911   4.307   8.737  0.3624 -0.1981 -0.3402
   50loPI   C4A  794   6.918   4.084   8.387 -0.4352  0.0416  0.1150
   50loPI   C5A  795   6.961   3.560   8.347 -0.0553  0.1681  0.0493
   50loPI   C6A  796   7.155   3.203   8.486  0.3525  0.1183  0.1657
   50loPI   C1B  797   6.175   3.868   9.120 -0.0072 -0.2371 -0.1151
   50loPI   C2B  798   6.005   4.044   8.701  0.2409  0.1515  0.0939
   50loPI   C3B  799   6.071   4.315   8.343 -0.0443 -0.1073  0.0468
   50loPI   C4B  800   6.263   4.674   7.993 -0.1143  0.3693  0.1106
   51loPI    C1  801  15.462  15.985  10.581  0.3676  0.3453 -0.0466
   51loPI    C2  802  15.749  15.713  10.634 -0.0214 -0.1260 -0.2786
   51loPI    C3  803  15.546  15.853  10.949  0.2156 -0.0601 -0.1524
   51loPI   PO4  804  15.323  15.937  10.351 -0.0094 -0.1044  0.0485
   51loPI   GL1  805  15.436  15.816   9.943 -0.0808  0.0879  0.0031
   51loPI   GL2  806  15.623  16.096   9.847 -0.0722  0.2947  0.1732
   51loPI   C1A  807  15.505  15.791   9.430  0.0170  0.1911 -0.2143
   51loPI   C2A  808  15.312  15.861   8.995 -0.1895  0.0384  0.0394
   51loPI   C3A  809  15.308  15.634   8.634 -0.1524  0.3657  0.1019
   51loPI   C4A  810  15.450  15.595   8.104 -0.0212  0.0071 -0.0967
   51loPI   C5A  811  15.218  15.449   7.733 -0.1721 -0.0866 -0.2520
   51loPI   C6A  812  14.734  15.600   7.560 -0.0075 -0.0128 -0.0408
   51loPI   C1B  813  15.817  16.317   9.455  0.3481 -0.2404 -0.0413
   51loPI   C2B  814  15.831  16.221   9.010  0.2103 -0.1476 -0.1953
   51loPI   C3B  815  15.668  16.088   8.679  0.0987 -0.3178 -0.1017
   51loPI   C4B  816  15.350  15.997   8.348 -0.0240 -0.0655 -0.1845
   52loPI    C1  817  13.195  12.770  10.031  0.1521  0.0143 -0.0403
   52loPI    C2  818  13.338  13.106  10.193 -0.1880  0.1410  0.0067
   52loPI    C3  819  13.291  12.780  10.419  0.1225  0.0647 -0.0342
   52loPI   PO4  820  13.331  12.718   9.750  0.0237  0.0469 -0.1098
   52loPI   GL1  821  13.581  12.764   9.455 -0.1650 -0.2467 -0.1246
   52loPI   GL2  822  13.469  12.490   9.238  0.0196  0.2262 -0.3846
   52loPI   C1A  823  13.976  12.676   9.261  0.0816  0.0651  0.1094
   52loPI   C2A  824  14.373  12.645   8.934  0.0801 -0.1309 -0.0906
   52loPI   C3A  825  14.767  12.787   8.821  0.0607 -0.0006 -0.3223
   52loPI   C4A  826  15.089  12.760   8.631  0.4213 -0.0216 -0.2974
   52loPI   C5A  827  15.180  12.797   8.232 -0.1373  0.1310  0.1185
   52loPI   C6A  828  14.822  12.674   7.837 -0.0196  0.0835 -0.2789
   52loPI   C1B  829  13.121  12.735   9.158  0.3124 -0.1427 -0.0290
   52loPI   C2B  830  12.978  12.688   8.795  0.2717  0.1427  0.0755
   52loPI   C3B  831  12.766  12.875   8.451  0.2216 -0.3340 -0.1033
   52loPI   C4B  832  12.615  12.928   7.965 -0.4771  0.1709  0.1094
   53loPI    C1  833   4.212   2.719  10.447  0.0234  0.2347  0.1555
   53loPI    C2  834   4.505   2.458  10.526 -0.0001  0.0969 -0.1969
   53loPI    C3  835   4.143   2.407  10.688  0.0738  0.0723 -0.0376
   53loPI   PO4  836   4.176   2.657  10.208  0.2379 -0.2542  0.2303
   53loPI   GL1  837   4.351   2.489   9.806  0.1087 -0.1342 -0.3116
   53loPI   GL2  838   4.295   2.296   9.618 -0.1905  0.0441 -0.1334
   53loPI   C1A  839   4.702   2.620   9.537  0.1023  0.1940 -0.1966
   53loPI   C2A  840   4.751   2.700   9.075  0.0941  0.3868 -0.3235
   53loPI   C3A  841   4.598   2.708   8.630 -0.5392 -0.1413  0.1645
   53loPI   C4A  842   4.677   2.844   8.275 -0.1267 -0.0034  0.0807
   53loPI   C5A  843   4.601   2.951   7.930 -0.1245  0.0683 -0.0460
   53loPI   C6A  844   4.706   3.471   7.726  0.2144 -0.3400  0.1871
   53loPI   C1B  845   4.235   2.542   9.162 -0.0812 -0.1866 -0.5623
   53loPI   C2B  846   4.040   2.671   8.855  0.3589 -0.2848  0.0340
   53loPI   C3B  847   4.065   2.724   8.441  0.1667 -0.0770  0.4621
   53loPI   C4B  848   4.160   2.696   8.050 -0.2748  0.2647  0.2636
   54loPI    C1  849  15.051   5.107  10.420  0.0081 -0.0222 -0.2312
   54loPI    C2  850  15.335   4.854  10.544 -0.1080  0.0222  0.1356
   54loPI    C3  851  15.361   5.243  10.633 -0.2233  0.0455  0.0694
   54loPI   PO4  852  15.054   5.114  10.215  0.2303 -0.0922 -0.0324
   54loPI   GL1  853  15.228   5.167   9.751 -0.1900  0.0806 -0.1121
   54loPI   GL2  854  14.859   5.309   9.601  0.1078  0.2124  0.1782
   54loPI   C1A  855  15.620   5.243   9.716  0.2968  0.2117 -0.3803
   54loPI   C2A  856  15.796   5.143   9.307 -0.5545 -0.3286  0.1695
   54loPI   C3A  857  15.891   5.089   8.912 -0.2059  0.2888 -0.0651
   54loPI   C4A  858  15.832   5.402   8.462 -0.0577 -0.2479  0.1022
   54loPI   C5A  859  15.914   5.594   8.107  0.2342  0.2263  0.1538
   54loPI   C6A  860  16.021   5.782   7.799  0.1276 -0.0759 -0.1695
   54loPI   C1B  861  15.145   5.094   9.153 -0.3226 -0.2714 -0.2550
   54loPI   C2B  862  15.438   5.071   8.841  0.2646  0.2221 -0.1143
   54loPI   C3B  863  15.287   5.230   8.455 -0.2213  0.0626 -0.1612
   54loPI   C4B  864  15.420   5.633   8.305 -0.1080  0.1792  0.2683
   55loPI    C1  865  13.658  17.227  10.202 -0.0176  0.1507 -0.1264
   55loPI    C2  866  13.317  17.361  10.042 -0.1153  0.1183  0.0528
   55loPI    C3  867  13.312  17.045  10.287  0.0937 -0.1237 -0.2474
   55loPI   PO4  868  13.881  17.389  10.095  0.1945  0.0190  0.0125
   55loPI   GL1  869  13.900  17.674   9.685  0.2245  0.2497  0.1934
   55loPI   GL2  870  13.580  17.556   9.589  0.4107  0.0472 -0.2060
   55loPI   C1A  871  13.965  17.832   9.278  0.1826 -0.1379  0.0144
   55loPI   C2A  872  14.237  17.995   9.017 -0.2944 -0.1159 -0.0546
   55loPI   C3A  873  14.472  18.293   8.775  0.2369  0.3018  0.3080
   55loPI   C4A  874  14.628  18.393   8.350  0.1146  0.1479  0.1730
   55loPI   C5A  875  14.611  18.149   7.957 -0.1641  0.3302  0.1472
   55loPI   C6A  876  14.296  18.017   7.764  0.4123 -0.0754  0.0867
   55loPI   C1B  877  13.945  17.329   9.313  0.1161 -0.1076  0.1726
   55loPI   C2B  878  14.150  17.425   8.931 -0.2711  0.0656 -0.0622
   55loPI   C3B  879  14.194  17.610   8.580  0.0200 -0.2114 -0.3751
   55loPI   C4B  880  14.252  17.981   8.267 -0.3030 -0.2097 -0.0386
   56loPI    C1  881  12.196   8.468  10.038  0.1462  0.2879  0.0574
   56loPI    C2  882  11.970   8.587  10.346 -0.0079  0.0599  0.0355
   56loPI    C3  883  12.297   8.365  10.411 -0.0505 -0.0034  0.0334
   56loPI   PO4  884  12.084   8.317   9.832  0.0367 -0.1306 -0.2127
   56loPI   GL1  885  12.193   8.130   9.451  0.2549 -0.1075  0.1054
   56loPI   GL2  886  12.175   7.856   9.386 -0.0268 -0.2554  0.2776
   56loPI   C1A  887  12.028   8.158   8.963 -0.1605 -0.2475  0.2234
   56loPI   C2A  888  11.682   8.014   8.687 -0.3717 -0.2512 -0.0761
   56loPI   C3A  889  11.493   7.947   8.314  0.0736  0.0590 -0.1108
   56loPI   C4A  890  11.589   8.265   8.090  0.2068  0.1303  0.1252
   56loPI   C5A  891  11.391   8.686   8.083  0.3327 -0.3882 -0.1880
   56loPI   C6A  892  11.047   8.823   7.962  0.2432 -0.0318 -0.1011
   56loPI   C1B  893  12.307   7.625   8.994  0.1427 -0.0404  0.2420
   56loPI   C2B  894  12.471   7.472   8.591 -0.1687  0.3847  0.0683
   56loPI   C3B  895  12.572   7.321   8.167 -0.0241  0.1641  0.1953
   56loPI   C4B  896  12.731   6.980   7.851  0.0808  0.2020  0.1871
   57loPI    C1  897   3.898   8.712  10.471  0.1015 -0.0067 -0.0260
   57loPI    C2  898   4.149   8.974  10.640 -0.0425  0.0633  0.0807
   57loPI    C3  899   3.966   8.699  10.866 -0.0578  0.0091  0.0024
   57loPI   PO4  900   3.903   8.883  10.204  0.1386  0.1216 -0.1801
   57loPI   GL1  901   3.984   9.115   9.814  0.0300  0.1194 -0.1520
   57loPI   GL2  902   4.234   8.790   9.765  0.1376 -0.1112  0.0876
   57loPI   C1A  903   3.963   9.116   9.513  0.2068  0.1419 -0.0693
   57loPI   C2A  904   3.913   9.271   9.091 -0.1568  0.0150  0.1266
   57loPI   C3A  905   3.752   9.116   8.739  0.1798 -0.2263  0.3613
   57loPI   C4A  906   3.970   9.181   8.317 -0.0936  0.2675 -0.1682
   57loPI   C5A  907   4.290   9.415   8.144  0.2602 -0.2455  0.1596
   57loPI   C6A  908   4.585   9.854   8.079  0.1287  0.5609  0.1205
   57loPI   C1B  909   4.313   8.994   9.231 -0.0550  0.3044  0.2607
   57loPI   C2B  910   4.315   9.110   8.874 -0.0357 -0.0363  0.2674
   57loPI   C3B  911   4.378   9.071   8.501  0.0359  0.2156  0.0736
   57loPI   C4B  912   4.714   9.406   8.406  0.2133  0.0358 -0.1090
   58loPI    C1  913   4.311   9.977  10.261  0.1578  0.0549  0.2594
   58loPI    C2  914   4.130  10.332  10.230  0.1772  0.0378 -0.0844
   58loPI    C3  915   4.273  10.212  10.583 -0.1899  0.1929  0.1237
   58loPI   PO4  916   4.450  10.030   9.970  0.0844  0.2191  0.0024
   58loPI   GL1  917   4.418   9.982   9.546  0.3723  0.1449  0.0631
   58loPI   GL2  918   4.642   9.769   9.489 -0.1283 -0.0778  0.1234
   58loPI   C1A  919   4.428  10.044   9.073 -0.2788  0.1243  0.0012
   58loPI   C2A  920   4.150  10.283   8.831  0.0359 -0.1459 -0.0796
   58loPI   C3A  921   3.725  10.137   8.646 -0.1482 -0.2616 -0.2202
   58loPI   C4A  922   3.548   9.928   8.236  0.1494 -0.1979  0.0144
   58loPI   C5A  923   3.276   9.678   7.989 -0.0274 -0.1794  0.1311
   58loPI   C6A  924   2.983   9.303   7.857 -0.3079 -0.0743 -0.2769
   58loPI   C1B  925   4.958   9.677   9.184 -0.2324  0.1854  0.0316
   58loPI   C2B  926   5.018   9.619   8.752  0.3353  0.0230 -0.1259
   58loPI   C3B  927   4.919  10.041   8.359 -0.2114  0.2284  0.0229
   58loPI   C4B  928   4.780  10.440   8.230 -0.4018 -0.2016  0.0456
   59loPI    C1  929  10.803   9.765   9.994 -0.0627 -0.0476 -0.1130
   59loPI    C2  930  11.191   9.745  10.089 -0.1031  0.0224  0.0719
   59loPI    C3  931  10.914   9.634  10.355 -0.2103 -0.0357 -0.0626
   59loPI   PO4  932  10.902   9.875   9.689 -0.0936  0.2606  0.0839
   59loPI   GL1  933  11.217  10.082   9.354 -0.2745 -0.0350 -0.0440
   59loPI   GL2  934  11.188   9.815   9.275 -0.0875  0.1971 -0.0171
   59loPI   C1A  935  11.131  10.442   9.068  0.0173  0.1358  0.1680
   59loPI   C2A  936  10.928  10.519   8.749 -0.1656  0.3185 -0.2359
   59loPI   C3A  937  10.666  10.695   8.353 -0.0549 -0.1002 -0.4646
   59loPI   C4A  938  10.890  10.661   7.914 -0.1498  0.2610 -0.1374
   59loPI   C5A  939  10.606  10.604   7.614 -0.2469  0.0799 -0.2933
   59loPI   C6A  940  10.359  10.456   7.222 -0.3222 -0.0811  0.1860
   59loPI   C1B  941  11.341   9.953   8.907  0.1968 -0.0444 -0.2119
   59loPI   C2B  942  11.322  10.318   8.597 -0.3116  0.2628 -0.0661
   59loPI   C3B  943  11.280  10.511   8.240  0.0120  0.0928  0.0671
   59loPI   C4B  944  11.428  10.595   7.817  0.5431 -0.0815 -0.3913
   60loPI    C1  945   7.592  13.259  10.327 -0.0694  0.0534 -0.0073
   60loPI    C2  946   7.794  13.313  10.668 -0.1199  0.1262  0.0115
   60loPI    C3  947   7.414  13.435  10.639 -0.1106  0.1353 -0.0765
   60loPI   PO4  948   7.609  13.036  10.236 -0.1468  0.0993  0.1950
   60loPI   GL1  949   7.694  12.935   9.827  0.0549  0.1271  0.1464
   60loPI   GL2  950   7.484  12.744   9.767  0.0196  0.2460  0.2103
   60loPI   C1A  951   8.021  12.813   9.570 -0.1662  0.2892 -0.3365
   60loPI   C2A  952   7.945  12.865   9.250  0.0105  0.2529  0.2473
   60loPI   C3A  953   8.021  12.996   8.809 -0.3311 -0.0785 -0.1301
   60loPI   C4A  954   7.955  13.281   8.491  0.0809  0.2615  0.0572
   60loPI   C5A  955   8.017  13.503   8.162 -0.0740 -0.0410 -0.0839
   60loPI   C6A  956   8.355  13.596   7.943 -0.0867 -0.3751  0.0276
   60loPI   C1B  957   7.744  12.429   9.527  0.2870 -0.0011 -0.0455
   60loPI   C2B  958   7.618  12.209   9.117 -0.2180 -0.2535 -0.3915
   60loPI   C3B  959   7.510  12.171   8.635 -0.1648 -0.4197 -0.0674
   60loPI   C4B  960   7.278  12.066   8.246  0.0549 -0.1805  0.0722
   61loPI    C1  961  15.236   5.951  10.385  0.1335 -0.1229 -0.2777
   61loPI    C2  962  15.527   6.114  10.607  0.0291 -0.1818 -0.0956
   61loPI    C3  963  15.451   5.722  10.632 -0.0049 -0.1832 -0.2122
   61loPI   PO4  964  15.296   5.999  10.079  0.2086 -0.0391  0.1814
   61loPI   GL1  965  15.355   5.684   9.704  0.0571  0.2403 -0.2201
   61loPI   GL2  966  15.068   5.762   9.650  0.1252 -0.0661  0.0394
   61loPI   C1A  967  15.522   5.809   9.421  0.0129  0.0591 -0.3787
   61loPI   C2A  968  15.309   5.955   9.094 -0.0324 -0.2190  0.2426
   61loPI   C3A  969  15.292   6.102   8.723  0.1033  0.1863 -0.0077
   61loPI   C4A  970  15.124   6.075   8.331  0.0715 -0.0259  0.0411
   61loPI   C5A  971  15.016   6.011   7.940 -0.1959 -0.1644  0.5348
   61loPI   C6A  972  15.197   5.641   7.729 -0.4091 -0.1573  0.0728
   61loPI   C1B  973  15.058   5.566   9.172  0.2087 -0.4613 -0.0633
   61loPI   C2B  974  15.009   5.561   8.706 -0.1084  0.0579  0.1213
   61loPI   C3B  975  14.948   5.530   8.182 -0.0639  0.1178 -0.0689
   61loPI   C4B  976  14.826   5.310   7.709 -0.2162  0.0270 -0.1468
   62loPI    C1  977   9.137   3.868  10.471  0.1389  0.1828  0.0981
   62loPI    C2  978   8.838   3.987  10.709  0.2049  0.2704  0.1374
   62loPI    C3  979   9.157   4.223  10.654  0.1657  0.2746 -0.0810
   62loPI   PO4  980   9.039   3.842  10.252  0.0929  0.2766  0.0725
   62loPI   GL1  981   8.815   4.009   9.937 -0.2695  0.0797 -0.3894
   62loPI   GL2  982   8.973   4.227   9.835 -0.1345  0.4775 -0.0920
   62loPI   C1A  983   8.850   3.829   9.524 -0.1671 -0.0687  0.0235
   62loPI   C2A  984   8.930   4.004   9.095 -0.1957  0.0494  0.2581
   62loPI   C3A  985   9.350   3.941   8.901 -0.0470  0.0175  0.1178
   62loPI   C4A  986   9.704   4.002   8.653 -0.0659  0.3106  0.3959
   62loPI   C5A  987  10.050   3.897   8.371 -0.0235  0.0619 -0.0366
   62loPI   C6A  988  10.169   3.481   8.300  0.4913  0.0936 -0.4877
   62loPI   C1B  989   9.280   4.089   9.451 -0.1816 -0.0738  0.0735
   62loPI   C2B  990   9.678   3.994   9.362 -0.4159 -0.0213  0.1324
   62loPI   C3B  991   9.930   3.879   9.110  0.0981  0.3177 -0.0718
   62loPI   C4B  992  10.102   3.581   8.864  0.1605 -0.1105 -0.2570
   63loPI    C1  993  13.082  14.929   9.970  0.0793  0.2793  0.0906
   63loPI    C2  994  12.818  15.005  10.260  0.3072  0.6202  0.2150
   63loPI    C3  995  13.102  14.729  10.316 -0.2617 -0.0538 -0.0755
   63loPI   PO4  996  13.266  15.201   9.861 -0.0971  0.0706  0.2930
   63loPI   GL1  997  13.317  15.220   9.498  0.2201 -0.1051 -0.0664
   63loPI   GL2  998  13.589  15.109   9.270 -0.0078  0.0329  0.3586
   63loPI   C1A  999  13.195  15.464   9.134  0.0785 -0.1682 -0.0206
   63loPI   C2A 1000  13.000  15.449   8.833  0.3461 -0.1785 -0.0752
   63loPI   C3A 1001  13.092  15.147   8.581 -0.1975 -0.1476 -0.0809
   63loPI   C4A 1002  13.002  15.257   8.159  0.0165 -0.0669 -0.3717
   63loPI   C5A 1003  13.139  15.384   7.651  0.3755 -0.0290 -0.0350
   63loPI   C6A 1004  12.954  15.796   7.584  0.1117 -0.1629  0.0235
   63loPI   C1B 1005  13.614  15.045   8.810 -0.1987 -0.0633 -0.1479
   63loPI   C2B 1006  13.604  15.091   8.348 -0.1877  0.0909  0.1294
   63loPI   C3B 1007  13.543  15.129   7.846  0.1312 -0.0925  0.0162
   63loPI   C4B 1008  13.836  15.274   7.633 -0.0917  0.2677 -0.1374
   64loPI    C1 1009   2.975   2.612  10.335 -0.0767  0.0164  0.0682
   64loPI    C2 1010   3.271   2.467  10.562  0.2189  0.0533 -0.2849
   64loPI    C3 1011   2.905   2.306  10.583  0.2472  0.0371  0.1897
   64loPI   PO4 1012   3.104   2.643  10.108  0.1439  0.3652 -0.2968
   64loPI   GL1 1013   3.453   2.609   9.926 -0.1832 -0.0404 -0.1247
   64loPI   GL2 1014   3.407   3.003   9.765  0.1336 -0.1384  0.0412
   64loPI   C1A 1015   3.283   2.621   9.475  0.0105 -0.2949 -0.0532
   64loPI   C2A 1016   3.115   2.619   9.033  0.0279  0.0308 -0.1232
   64loPI   C3A 1017   3.072   2.809   8.615  0.3380  0.2090 -0.2247
   64loPI   C4A 1018   3.079   2.711   8.205 -0.3475  0.3230  0.2030
   64loPI   C5A 1019   3.041   2.737   7.789  0.1057 -0.3376  0.2764
   64loPI   C6A 1020   2.983   2.943   7.307 -0.1916 -0.0512 -0.1714
   64loPI   C1B 1021   2.963   3.037   9.570  0.3186  0.0751  0.2189
   64loPI   C2B 1022   2.855   3.040   9.104 -0.0488  0.1545 -0.2161
   64loPI   C3B 1023   2.837   3.321   8.739 -0.2100  0.0524 -0.0982
   64loPI   C4B 1024   2.912   3.676   8.624  0.0746  0.1964 -0.2966
   65loPI    C1 1025   9.048   5.969  10.398  0.0465 -0.0919  0.1671
   65loPI    C2 1026   8.768   5.708  10.515  0.0554 -0.0986  0.1737
   65loPI    C3 1027   9.144   5.672  10.649  0.0919 -0.1748  0.0526
   65loPI   PO4 1028   9.027   6.002  10.159 -0.2020  0.2190  0.1003
   65loPI   GL1 1029   8.840   6.278   9.801  0.0396 -0.1376  0.2726
   65loPI   GL2 1030   8.944   5.908   9.664 -0.2154  0.0223  0.0508
   65loPI   C1A 1031   8.859   6.239   9.288  0.1891 -0.0117  0.0694
   65loPI   C2A 1032   8.729   6.316   8.803  0.2364  0.0254  0.2215
   65loPI   C3A 1033   8.858   5.943   8.674  0.2680  0.1354  0.2842
   65loPI   C4A 1034   8.806   5.786   8.172  0.0247  0.0350  0.0115
   65loPI   C5A 1035   9.059   5.454   7.901  0.0117 -0.4594  0.1875
   65loPI   C6A 1036   9.095   5.060   8.000 -0.0238 -0.3349 -0.1245
   65loPI   C1B 1037   8.987   5.738   9.288  0.2824  0.0412 -0.0377
   65loPI   C2B 1038   9.305   5.781   8.834 -0.1938 -0.0720  0.3082
   65loPI   C3B 1039   9.617   5.887   8.505  0.0195 -0.0431 -0.1136
   65loPI   C4B 1040   9.878   5.838   8.094  0.1329  0.1508 -0.1486
   66loPI    C1 1041   9.374   8.261  10.222 -0.0613 -0.0066  0.1858
   66loPI    C2 1042   9.312   8.583  10.452 -0.0854  0.0904  0.0452
   66loPI    C3 1043   9.051   8.279  10.458  0.0493 -0.0238  0.3402
   66loPI   PO4 1044   9.372   8.349  10.043 -0.0105 -0.0678  0.2377
   66loPI   GL1 1045   9.214   8.282   9.677  0.2258  0.2587 -0.0996
   66loPI   GL2 1046   9.205   8.611   9.614 -0.0952  0.0859  0.0903
   66loPI   C1A 1047   9.110   8.252   9.195  0.2865  0.3275  0.0212
   66loPI   C2A 1048   9.265   8.479   8.843 -0.3256  0.0915 -0.0556
   66loPI   C3A 1049   9.233   8.584   8.465  0.1852  0.2898 -0.0086
   66loPI   C4A 1050   9.299   8.432   8.050  0.0793 -0.4578  0.1061
   66loPI   C5A 1051   9.421   8.128   7.743  0.3396 -0.1891 -0.2227
   66loPI   C6A 1052   9.781   7.860   7.576 -0.1029  0.2756 -0.2564
   66loPI   C1B 1053   9.131   8.837   9.206 -0.1186 -0.2250  0.1205
   66loPI   C2B 1054   8.998   8.990   8.714  0.1176 -0.2483  0.1816
   66loPI   C3B 1055   8.963   9.004   8.285  0.2441  0.3656  0.0608
   66loPI   C4B 1056   8.882   8.785   7.979  0.0484 -0.0648 -0.0473
   67loPI    C1 1057  17.266   5.949  10.239  0.1573 -0.1411  0.1201
   67loPI    C2 1058  17.254   6.344  10.179  0.0311 -0.1346  0.1847
   67loPI    C3 1059  17.387   6.199  10.527 -0.2931 -0.1349  0.3119
   67loPI   PO4 1060  17.457   5.930  10.017 -0.0122 -0.0329 -0.1022
   67loPI   GL1 1061  17.581   5.715   9.715  0.2902 -0.1844  0.0322
   67loPI   GL2 1062  17.727   5.500   9.547 -0.0989 -0.0430 -0.2409
   67loPI   C1A 1063  17.484   5.870   9.278  0.2684  0.3012 -0.0367
   67loPI   C2A 1064  17.463   5.886   8.811  0.0138 -0.4037 -0.2914
   67loPI   C3A 1065  17.399   5.935   8.308  0.1478  0.0902 -0.0526
   67loPI   C4A 1066  17.429   5.631   8.081 -0.0896 -0.0920 -0.0651
   67loPI   C5A 1067  17.541   5.547   7.708 -0.0198  0.1172  0.2930
   67loPI   C6A 1068  17.566   5.466   7.294  0.1214 -0.3039 -0.1628
   67loPI   C1B 1069  17.806   5.402   9.166 -0.2854  0.4463 -0.1523
   67loPI   C2B 1070  17.821   5.410   8.831 -0.3948 -0.0172  0.3853
   67loPI   C3B 1071  17.812   5.213   8.423  0.2119 -0.0740  0.0497
   67loPI   C4B 1072  17.899   5.210   7.986  0.0380 -0.2274 -0.1511
   68loPI    C1 1073  10.733  16.796  10.140  0.0497  0.2523 -0.0595
   68loPI    C2 1074  11.086  16.766  10.325 -0.1030  0.1453  0.2203
   68loPI    C3 1075  10.754  16.637  10.507 -0.2450 -0.0560 -0.1712
   68loPI   PO4 1076  10.746  16.836   9.917  0.0916 -0.0066 -0.2784
   68loPI   GL1 1077  10.637  16.956   9.551  0.0972 -0.0760 -0.0255
   68loPI   GL2 1078  10.755  17.062   9.268  0.4001 -0.3918 -0.1041
   68loPI   C1A 1079  10.282  16.858   9.337 -0.1218 -0.0577 -0.2910
   68loPI   C2A 1080  10.163  17.143   8.990 -0.4159  0.0403  0.3037
   68loPI   C3A 1081  10.293  17.402   8.599 -0.0430  0.1404 -0.0215
   68loPI   C4A 1082  10.137  17.443   8.312 -0.1769  0.0020  0.3771
   68loPI   C5A 1083  10.158  17.693   7.966  0.1109  0.0682 -0.3038
   68loPI   C6A 1084   9.886  17.641   7.592  0.0484  0.0296 -0.0643
   68loPI   C1B 1085  10.646  17.176   8.883 -0.1795  0.2782  0.2946
   68loPI   C2B 1086  10.740  17.237   8.416 -0.0213 -0.1115 -0.3445
   68loPI   C3B 1087  10.522  17.292   8.011 -0.2318 -0.3205  0.3324
   68loPI   C4B 1088  10.507  17.582   7.659 -0.0190 -0.3120  0.0250
   69loPI    C1 1089  17.579   6.714  10.505 -0.0412  0.2267 -0.0748
   69loPI    C2 1090  17.869   6.831  10.257  0.0867  0.0941  0.0107
   69loPI    C3 1091  17.910   6.884  10.652 -0.0242  0.1133  0.0198
   69loPI   PO4 1092  17.370   6.809  10.327 -0.1804 -0.0040 -0.2624
   69loPI   GL1 1093  17.490   6.776   9.895 -0.3323 -0.3937  0.1132
   69loPI   GL2 1094  17.796   6.698   9.741 -0.0270 -0.1070  0.2370
   69loPI   C1A 1095  17.138   6.693   9.750  0.2247 -0.0502 -0.2454
   69loPI   C2A 1096  16.742   6.840   9.653  0.2041 -0.2786  0.0975
   69loPI   C3A 1097  16.840   6.841   9.229 -0.0591  0.2463 -0.1653
   69loPI   C4A 1098  16.855   6.942   8.911 -0.1150  0.2345  0.3782
   69loPI   C5A 1099  16.591   7.066   8.669 -0.1191 -0.0317  0.0041
   69loPI   C6A 1100  16.450   7.080   8.235 -0.0419 -0.4593 -0.0717
   69loPI   C1B 1101  17.665   6.549   9.316 -0.1844  0.0074  0.1161
   69loPI   C2B 1102  17.639   6.578   8.927 -0.0629 -0.1163  0.0941
   69loPI   C3B 1103  17.700   6.307   8.577  0.1249 -0.2733  0.2313
   69loPI   C4B 1104  17.934   6.130   8.219  0.0343 -0.0293 -0.2649
   70loPI    C1 1105  15.508  17.653  10.061 -0.0973 -0.1223 -0.1468
   70loPI    C2 1106  15.146  17.822  10.031  0.0170  0.1617  0.0327
   70loPI    C3 1107  15.321  17.785  10.389  0.1759  0.0446 -0.0553
   70loPI   PO4 1108  15.704  17.722   9.808 -0.1831  0.1259 -0.1789
   70loPI   GL1 1109  15.552  17.354   9.637 -0.0255  0.1257  0.0094
   70loPI   GL2 1110  15.277  17.443   9.625 -0.1656  0.0556 -0.0971
   70loPI   C1A 1111  15.528  17.535   9.193 -0.0546 -0.2621  0.0673
   70loPI   C2A 1112  15.632  17.624   8.856 -0.0373  0.1050 -0.1496
   70loPI   C3A 1113  15.759  17.450   8.434 -0.2428  0.0467 -0.1706
   70loPI   C4A 1114  15.594  17.520   7.969  0.0527  0.1336  0.1583
   70loPI   C5A 1115  15.347  17.197   7.706 -0.3358  0.0703 -0.2733
   70loPI   C6A 1116  15.014  17.250   7.651  0.3209  0.4979  0.3297
   70loPI   C1B 1117  15.056  17.409   9.318  0.1538 -0.4238  0.2633
   70loPI   C2B 1118  15.063  17.402   8.838  0.2335 -0.1667  0.2337
   70loPI   C3B 1119  15.283  17.661   8.506  0.1753  0.1671 -0.0961
   70loPI   C4B 1120  15.608  17.943   8.390  0.1905  0.0009  0.1406
   71loPI    C1 1121  16.048  13.154   9.713  0.0930  0.2461 -0.1170
   71loPI    C2 1122  16.008  13.052  10.098  0.1120 -0.0893 -0.2011
   71loPI    C3 1123  16.369  13.043   9.925  0.1257  0.1972 -0.1920
   71loPI   PO4 1124  15.745  13.334   9.676 -0.1336  0.0971 -0.2366
   71loPI   GL1 1125  15.543  13.716   9.439 -0.1281  0.1132 -0.5246
   71loPI   GL2 1126  15.307  13.600   9.251 -0.3027  0.0604 -0.2978
   71loPI   C1A 1127  15.606  14.100   9.340 -0.1589  0.0014 -0.2210
   71loPI   C2A 1128  15.810  14.393   9.193  0.0052  0.2259  0.1353
   71loPI   C3A 1129  15.810  14.467   8.737 -0.2868  0.0358 -0.2701
   71loPI   C4A 1130  16.076  14.633   8.359 -0.0713  0.4269  0.0078
   71loPI   C5A 1131  16.481  14.875   8.124  0.1415  0.2452 -0.2346
   71loPI   C6A 1132  16.694  14.818   7.762  0.0373 -0.2950 -0.2122
   71loPI   C1B 1133  15.375  13.641   8.913  0.0422  0.0773  0.0266
   71loPI   C2B 1134  15.504  13.578   8.494  0.0678  0.2452  0.6288
   71loPI   C3B 1135  15.769  13.391   8.266  0.1730  0.1550 -0.1439
   71loPI   C4B 1136  16.038  13.395   7.932  0.1774 -0.2074 -0.1234
   72loPI    C1 1137   2.356   4.599  10.177  0.1327  0.0490  0.0141
   72loPI    C2 1138   2.624   4.618  10.473  0.0925 -0.4511  0.0905
   72loPI    C3 1139   2.250   4.748  10.532  0.2706  0.1169  0.0275
   72loPI   PO4 1140   2.397   4.275  10.076  0.2126  0.0785  0.0253
   72loPI   GL1 1141   2.095   4.324   9.650 -0.1312 -0.1326 -0.2383
   72loPI   GL2 1142   2.279   4.570   9.687 -0.1143 -0.2532  0.3796
   72loPI   C1A 1143   1.870   4.240   9.217 -0.1297  0.1133 -0.1221
   72loPI   C2A 1144   1.924   4.143   8.772 -0.0361  0.0524  0.0063
   72loPI   C3A 1145   1.762   4.251   8.299 -0.1526 -0.0607 -0.1869
   72loPI   C4A 1146   1.825   4.225   7.876  0.1915 -0.1569  0.1498
   72loPI   C5A 1147   2.136   4.466   7.634 -0.1220  0.1519 -0.0604
   72loPI   C6A 1148   2.607   4.454   7.609 -0.0442  0.3624  0.0717
   72loPI   C1B 1149   2.523   4.427   9.428  0.1909 -0.1175  0.1658
   72loPI   C2B 1150   2.756   4.348   9.100 -0.4405  0.3086  0.1579
   72loPI   C3B 1151   2.882   3.982   9.086 -0.0262 -0.1748 -0.1389
   72loPI   C4B 1152   3.033   3.861   9.338 -0.0482  0.1434  0.0608
   73loPI    C1 1153   2.633   0.750  10.002 -0.0588  0.2737  0.1058
   73loPI    C2 1154   2.724   0.841  10.380 -0.0938  0.2281  0.1252
   73loPI    C3 1155   2.377   0.661  10.296 -0.0438  0.1513  0.0824
   73loPI   PO4 1156   2.827   0.628   9.847  0.0922 -0.0108 -0.1885
   73loPI   GL1 1157   2.918   0.797   9.467  0.1653  0.2039  0.2311
   73loPI   GL2 1158   3.006   1.114   9.461  0.1986  0.0605  0.2857
   73loPI   C1A 1159   2.716   0.548   9.144 -0.1219  0.0507  0.1359
   73loPI   C2A 1160   2.751   0.146   8.867 -0.2032  0.1946 -0.1180
   73loPI   C3A 1161   2.630  -0.188   8.498 -0.1031 -0.0079 -0.1524
   73loPI   C4A 1162   2.943  -0.339   8.110  0.0230  0.0766  0.0428
   73loPI   C5A 1163   3.202  -0.308   7.884  0.0946  0.0063 -0.0736
   73loPI   C6A 1164   3.294  -0.026   7.518 -0.1987  0.3217 -0.1530
   73loPI   C1B 1165   2.613   1.093   9.161  0.0188  0.0245 -0.1800
   73loPI   C2B 1166   2.547   0.998   8.789  0.0332  0.0779 -0.2155
   73loPI   C3B 1167   2.663   0.831   8.362 -0.1625  0.2055  0.6455
   73loPI   C4B 1168   2.994   0.799   8.135  0.0030  0.0972  0.2397
   74loPI    C1 1169   6.602   1.647  10.192 -0.1317 -0.1768  0.1386
   74loPI    C2 1170   6.610   1.789  10.566 -0.0749 -0.1628  0.1322
   74loPI    C3 1171   6.928   1.596  10.419 -0.0344 -0.0242  0.0354
   74loPI   PO4 1172   6.456   1.855  10.061  0.0842 -0.1591  0.0771
   74loPI   GL1 1173   6.308   2.078   9.777 -0.0380  0.0382 -0.2071
   74loPI   GL2 1174   6.631   2.068   9.694  0.0810  0.0670  0.0013
   74loPI   C1A 1175   6.060   2.290   9.479  0.2104  0.1070 -0.3096
   74loPI   C2A 1176   6.000   2.412   9.023  0.2252 -0.3815 -0.0908
   74loPI   C3A 1177   5.991   2.593   8.701  0.1372  0.4863  0.1191
   74loPI   C4A 1178   5.733   2.742   8.332 -0.2491 -0.0459  0.3210
   74loPI   C5A 1179   5.916   3.086   8.129 -0.0896 -0.0591 -0.2568
   74loPI   C6A 1180   5.829   3.340   7.808  0.1468 -0.1573  0.0977
   74loPI   C1B 1181   6.524   2.242   9.323  0.1702  0.1650  0.0966
   74loPI   C2B 1182   6.473   2.316   8.949  0.0164  0.0963  0.1102
   74loPI   C3B 1183   6.525   2.474   8.542 -0.2904 -0.1031  0.1395
   74loPI   C4B 1184   6.957   2.244   8.415  0.1862  0.1036 -0.0189
   75loPI    C1 1185   5.354   9.266  10.507 -0.0623 -0.2307 -0.1663
   75loPI    C2 1186   5.023   9.059  10.593 -0.1739  0.0047 -0.0189
   75loPI    C3 1187   4.994   9.425  10.435  0.0182 -0.0059 -0.0808
   75loPI   PO4 1188   5.614   9.136  10.228  0.1647 -0.2918 -0.3174
   75loPI   GL1 1189   5.920   9.068   9.870 -0.0269  0.2651  0.1891
   75loPI   GL2 1190   5.505   9.198   9.784  0.0208  0.0554 -0.1412
   75loPI   C1A 1191   6.123   9.267   9.636  0.4226  0.4370  0.0239
   75loPI   C2A 1192   5.928   9.400   9.234 -0.1223  0.2125 -0.1251
   75loPI   C3A 1193   5.854   9.123   8.943  0.2866 -0.0608  0.1304
   75loPI   C4A 1194   6.126   8.929   8.628 -0.1456  0.1972 -0.0336
   75loPI   C5A 1195   6.065   8.430   8.515  0.0829 -0.0010 -0.2741
   75loPI   C6A 1196   5.904   8.041   8.335  0.1373  0.2697 -0.0436
   75loPI   C1B 1197   5.397   9.350   9.333  0.0096  0.2807 -0.0764
   75loPI   C2B 1198   5.367   9.200   8.932  0.2797  0.1113 -0.0869
   75loPI   C3B 1199   5.191   9.249   8.471  0.1705  0.2700  0.1428
   75loPI   C4B 1200   5.028   9.380   8.056 -0.0409 -0.2267  0.0425
   76loPI    C1 1201   9.532   2.950  10.242  0.2605 -0.0823 -0.0442
   76loPI    C2 1202   9.472   2.577  10.373  0.1557 -0.1062 -0.1582
   76loPI    C3 1203   9.577   2.865  10.630  0.0189 -0.1669 -0.0330
   76loPI   PO4 1204   9.442   3.014  10.055  0.3057 -0.0805  0.1834
   76loPI   GL1 1205   9.080   3.312   9.882 -0.0158 -0.0089 -0.0530
   76loPI   GL2 1206   8.719   3.431   9.971 -0.1947 -0.2926  0.0854
   76loPI   C1A 1207   8.764   3.345   9.405 -0.1838  0.1533 -0.0558
   76loPI   C2A 1208   8.817   3.250   8.981  0.0090  0.1190  0.0300
   76loPI   C3A 1209   8.743   3.195   8.581 -0.0299 -0.1286  0.0603
   76loPI   C4A 1210   8.321   3.021   8.468  0.1542 -0.1573  0.0748
   76loPI   C5A 1211   7.919   2.961   8.201 -0.0964  0.1632 -0.0975
   76loPI   C6A 1212   7.502   3.169   8.178  0.2723 -0.0942  0.0177
   76loPI   C1B 1213   8.584   3.020   9.826  0.0200 -0.3088 -0.2389
   76loPI   C2B 1214   8.438   2.719   9.449 -0.0667 -0.0043 -0.1658
   76loPI   C3B 1215   8.113   2.690   9.234  0.0888  0.0083 -0.4166
   76loPI   C4B 1216   7.952   2.703   8.819 -0.0326 -0.1167  0.0624
   77loPI    C1 1217   5.707   9.934  10.308  0.1583 -0.2356  0.2419
   77loPI    C2 1218   5.409   9.724  10.143  0.0289  0.1803 -0.0709
   77loPI    C3 1219   5.399   9.813  10.533 -0.2034  0.1027 -0.0575
   77loPI   PO4 1220   5.738  10.100  10.071  0.0253 -0.0374  0.0134
   77loPI   GL1 1221   5.986   9.895   9.782 -0.1546  0.2026 -0.1655
   77loPI   GL2 1222   5.672   9.796   9.656 -0.0250  0.2274 -0.1445
   77loPI   C1A 1223   6.241   9.752   9.397 -0.3266  0.0264 -0.0231
   77loPI   C2A 1224   6.226   9.684   8.935 -0.2430  0.0747  0.2175
   77loPI   C3A 1225   6.230   9.506   8.486 -0.1457  0.1383 -0.0774
   77loPI   C4A 1226   6.198   9.266   8.152 -0.0218 -0.3012  0.1064
   77loPI   C5A 1227   6.073   8.939   8.120 -0.3308  0.2330  0.1500
   77loPI   C6A 1228   6.181   8.530   7.827  0.2894 -0.2032 -0.0032
   77loPI   C1B 1229   5.813  10.070   9.319 -0.1116  0.4351  0.3690
   77loPI   C2B 1230   5.858  10.082   8.856 -0.2198  0.2859 -0.0005
   77loPI   C3B 1231   5.914   9.926   8.474  0.4556 -0.4158 -0.0266
   77loPI   C4B 1232   5.845   9.657   8.179 -0.0459 -0.0224 -0.0132
   78loPI    C1 1233   9.464  10.147   9.901  0.1199  0.0560  0.1273
   78loPI    C2 1234   9.366  10.231   9.523  0.0383  0.0654  0.1505
   78loPI    C3 1235   9.327  10.510   9.807  0.0443  0.0403  0.1759
   78loPI   PO4 1236   9.308   9.884   9.906 -0.2457  0.0488 -0.1099
   78loPI   GL1 1237   9.029   9.761   9.717 -0.0542 -0.2003  0.1067
   78loPI   GL2 1238   8.937  10.026   9.526 -0.0202 -0.1047 -0.2963
   78loPI   C1A 1239   9.170   9.354   9.344 -0.2064  0.0617 -0.0756
   78loPI   C2A 1240   9.266   9.397   8.880 -0.2546 -0.4012  0.4498
   78loPI   C3A 1241   9.400   9.231   8.508  0.0788  0.1977 -0.0979
   78loPI   C4A 1242   9.467   8.951   8.144  0.0223  0.2682  0.1258
   78loPI   C5A 1243   9.771   8.773   7.870 -0.3157 -0.3821  0.2077
   78loPI   C6A 1244  10.051   8.713   7.487 -0.4943 -0.1574  0.1504
   78loPI   C1B 1245   8.619   9.997   9.219  0.0648  0.0975 -0.0455
   78loPI   C2B 1246   8.205   9.973   8.965  0.0476 -0.0983  0.2463
   78loPI   C3B 1247   7.990   9.974   8.517 -0.1769  0.3488 -0.0479
   78loPI   C4B 1248   7.746  10.234   8.290 -0.2314  0.0205  0.0183
   79loPI    C1 1249   3.255  15.312  10.588  0.0001 -0.1980 -0.0883
   79loPI    C2 1250   3.252  14.943  10.741  0.1133 -0.1463  0.0401
   79loPI    C3 1251   3.138  15.254  10.966 -0.3279 -0.1430 -0.1780
   79loPI   PO4 1252   3.142  15.405  10.411  0.4110  0.2950 -0.3083
   79loPI   GL1 1253   3.047  15.163  10.006 -0.0295 -0.2328  0.0225
   79loPI   GL2 1254   2.708  15.145   9.804 -0.4257  0.0783 -0.3655
   79loPI   C1A 1255   3.202  15.199   9.582  0.0544 -0.0704 -0.1781
   79loPI   C2A 1256   3.261  15.015   9.169 -0.1855 -0.0517 -0.1975
   79loPI   C3A 1257   3.229  15.101   8.733  0.3045 -0.3936 -0.2509
   79loPI   C4A 1258   3.192  15.209   8.394 -0.2309  0.1573 -0.0811
   79loPI   C5A 1259   2.777  15.158   8.063  0.0349 -0.0943  0.0878
   79loPI   C6A 1260   2.608  15.379   7.740  0.2707 -0.0137 -0.1596
   79loPI   C1B 1261   2.772  15.032   9.404  0.0817 -0.1264 -0.1842
   79loPI   C2B 1262   2.732  15.077   8.909  0.0866  0.4132 -0.1617
   79loPI   C3B 1263   2.558  15.110   8.506  0.1893  0.0981 -0.1718
   79loPI   C4B 1264   2.109  14.978   8.372  0.1069  0.2029 -0.0832
   80loPI    C1 1265   8.861   0.206  10.024  0.0553 -0.2261  0.1513
   80loPI    C2 1266   9.149   0.021  10.230  0.0590 -0.2042  0.1658
   80loPI    C3 1267   9.049   0.398  10.320  0.1855 -0.1325  0.0089
   80loPI   PO4 1268   8.781   0.076   9.739  0.2960 -0.1457  0.0439
   80loPI   GL1 1269   8.856   0.164   9.352  0.1476 -0.2277 -0.1521
   80loPI   GL2 1270   9.142   0.197   9.256 -0.1002  0.2773  0.1685
   80loPI   C1A 1271   8.626   0.039   8.976  0.1489  0.1648 -0.1220
   80loPI   C2A 1272   8.463  -0.029   8.600 -0.0833  0.1109 -0.3945
   80loPI   C3A 1273   8.153  -0.105   8.350  0.3789  0.1807 -0.0159
   80loPI   C4A 1274   7.982   0.001   8.005 -0.2241 -0.1972 -0.0526
   80loPI   C5A 1275   7.742  -0.328   7.832 -0.0224  0.0990 -0.1495
   80loPI   C6A 1276   7.771  -0.413   7.464 -0.0543 -0.1851 -0.2488
   80loPI   C1B 1277   9.134   0.177   8.887  0.1535  0.0776  0.2689
   80loPI   C2B 1278   8.857   0.294   8.556  0.1194 -0.0011  0.1558
   80loPI   C3B 1279   8.620   0.192   8.174 -0.1213  0.2267  0.3255
   80loPI   C4B 1280   8.576   0.195   7.752  0.1467  0.1319  0.1897
   81loPI    C1 1281   1.624  16.475  10.085  0.0339  0.0673 -0.0288
   81loPI    C2 1282   1.559  16.603  10.458  0.0464  0.3186 -0.1109
   81loPI    C3 1283   1.320  16.723  10.161 -0.1324 -0.0984 -0.1433
   81loPI   PO4 1284   1.654  16.203  10.151 -0.0241 -0.0065 -0.0808
   81loPI   GL1 1285   1.759  15.794  10.008 -0.1446 -0.3462 -0.0665
   81loPI   GL2 1286   1.315  15.844   9.886 -0.2314 -0.1774 -0.0420
   81loPI   C1A 1287   1.935  15.784   9.662 -0.3606 -0.1570  0.1047
   81loPI   C2A 1288   2.046  15.695   9.203 -0.2296  0.0663 -0.0741
   81loPI   C3A 1289   1.869  15.684   8.857 -0.2617  0.1492 -0.1826
   81loPI   C4A 1290   1.763  15.447   8.486 -0.1047 -0.1863 -0.0894
   81loPI   C5A 1291   1.874  15.355   8.184  0.0617  0.0688 -0.0340
   81loPI   C6A 1292   1.738  14.932   7.837  0.2929  0.1130 -0.0168
   81loPI   C1B 1293   1.428  15.728   9.407 -0.0619  0.3114  0.1495
   81loPI   C2B 1294   1.454  15.463   8.950  0.0569 -0.0774 -0.2837
   81loPI   C3B 1295   1.409  15.092   8.681 -0.0227 -0.1625 -0.2097
   81loPI   C4B 1296   1.549  14.910   8.324  0.1385  0.1097 -0.1665
   82loPI    C1 1297  17.269  10.253  10.437 -0.0613 -0.0766 -0.0839
   82loPI    C2 1298  17.420  10.623  10.408  0.1034 -0.1371 -0.0051
   82loPI    C3 1299  17.261  10.498  10.753 -0.0594 -0.0998 -0.0659
   82loPI   PO4 1300  17.355  10.074  10.262 -0.0720  0.3895 -0.0288
   82loPI   GL1 1301  17.379  10.234   9.874 -0.0413 -0.1294  0.1189
   82loPI   GL2 1302  17.679  10.405   9.761  0.6729 -0.2333  0.1677
   82loPI   C1A 1303  17.368  10.174   9.386  0.1674  0.3259 -0.0001
   82loPI   C2A 1304  17.552  10.366   9.029 -0.1663  0.1814 -0.2085
   82loPI   C3A 1305  17.669  10.222   8.609  0.0562  0.2950  0.1149
   82loPI   C4A 1306  17.492  10.298   8.224 -0.2656 -0.1258 -0.2271
   82loPI   C5A 1307  17.100  10.184   7.981 -0.0161  0.4482  0.4441
   82loPI   C6A 1308  17.029  10.289   7.642  0.0081 -0.4590  0.1728
   82loPI   C1B 1309  17.750  10.641   9.438  0.3418 -0.2327 -0.2406
   82loPI   C2B 1310  17.812  10.823   8.982 -0.1876 -0.2780 -0.1592
   82loPI   C3B 1311  17.611  10.686   8.651  0.1033 -0.2103 -0.4182
   82loPI   C4B 1312  17.518  10.815   8.239  0.1120 -0.0235 -0.0890
   83loPI    C1 1313   0.667   6.894  10.214 -0.0182 -0.1911 -0.0987
   83loPI    C2 1314   0.407   6.813  10.507 -0.1642 -0.2391 -0.2406
   83loPI    C3 1315   0.661   6.530  10.381  0.0038 -0.1723 -0.0566
   83loPI   PO4 1316   0.630   7.090   9.990 -0.0365  0.5919  0.0954
   83loPI   GL1 1317   0.802   7.078   9.649  0.1655  0.1247 -0.0100
   83loPI   GL2 1318   1.088   6.967   9.645 -0.1405  0.3051  0.2062
   83loPI   C1A 1319   0.448   7.210   9.377 -0.4260 -0.0588  0.1242
   83loPI   C2A 1320   0.165   7.409   8.980  0.1588 -0.3026  0.0158
   83loPI   C3A 1321   0.039   7.496   8.544 -0.0477  0.0133 -0.1843
   83loPI   C4A 1322  -0.083   7.764   8.217  0.1926 -0.1937  0.1735
   83loPI   C5A 1323  -0.328   8.012   8.022  0.1093 -0.0067  0.0868
   83loPI   C6A 1324  -0.385   8.240   7.586 -0.1489  0.0603 -0.0186
   83loPI   C1B 1325   1.403   6.837   9.239 -0.3039  0.0310  0.1587
   83loPI   C2B 1326   1.586   6.841   8.793  0.1647 -0.0458  0.0659
   83loPI   C3B 1327   1.457   6.706   8.435 -0.0989 -0.0046 -0.0726
   83loPI   C4B 1328   1.699   6.813   8.086 -0.3665 -0.0124  0.0254
   84loPI    C1 1329   9.645   9.317  10.223  0.1672  0.2829  0.0274
   84loPI    C2 1330   9.791   9.034  10.465 -0.1303  0.0757 -0.0288
   84loPI    C3 1331   9.748   9.409  10.598 -0.1625 -0.0060  0.1948
   84loPI   PO4 1332   9.764   9.221   9.970  0.1951 -0.0989 -0.0615
   84loPI   GL1 1333   9.920   9.053   9.575 -0.1226 -0.1538  0.0755
   84loPI   GL2 1334   9.595   9.007   9.585  0.2643  0.1459 -0.1016
   84loPI   C1A 1335  10.151   8.987   9.106  0.0174  0.1101 -0.0198
   84loPI   C2A 1336  10.334   9.271   8.704 -0.0039 -0.0171  0.2249
   84loPI   C3A 1337  10.627   9.621   8.618  0.0675 -0.3144  0.1860
   84loPI   C4A 1338  10.796   9.580   8.300  0.2204  0.0153 -0.0893
   84loPI   C5A 1339  10.759   9.696   7.966  0.2472 -0.1764 -0.3069
   84loPI   C6A 1340  10.463   9.694   7.650 -0.2619 -0.1032  0.2276
   84loPI   C1B 1341   9.632   9.047   9.134 -0.0436 -0.1129  0.2149
   84loPI   C2B 1342   9.837   9.213   8.712 -0.0905  0.0279 -0.1907
   84loPI   C3B 1343   9.848   9.315   8.315  0.0166 -0.0458 -0.1581
   84loPI   C4B 1344   9.965   9.193   7.997 -0.1316 -0.2580  0.1778
   85loPI    C1 1345  13.597   2.450  10.179 -0.2416 -0.1020 -0.1744
   85loPI    C2 1346  13.620   2.839  10.091 -0.0801 -0.0519  0.0790
   85loPI    C3 1347  13.445   2.721  10.430 -0.1427 -0.2023 -0.0046
   85loPI   PO4 1348  13.473   2.378   9.916  0.0051 -0.2007 -0.0373
   85loPI   GL1 1349  13.571   2.581   9.641  0.0922  0.1315  0.1626
   85loPI   GL2 1350  13.835   2.623   9.524  0.4973 -0.2858 -0.1038
   85loPI   C1A 1351  13.376   2.549   9.268 -0.1606  0.1973  0.1556
   85loPI   C2A 1352  13.369   2.404   8.891 -0.0109  0.0480 -0.0335
   85loPI   C3A 1353  13.443   2.525   8.486 -0.0063  0.1374  0.1095
   85loPI   C4A 1354  13.155   2.627   8.178 -0.2035 -0.1883 -0.2698
   85loPI   C5A 1355  12.804   2.968   8.144 -0.1469 -0.0276  0.2891
   85loPI   C6A 1356  12.868   3.323   7.950 -0.0412  0.1995  0.0620
   85loPI   C1B 1357  13.725   2.843   9.047 -0.0528 -0.1356 -0.1697
   85loPI   C2B 1358  13.840   2.451   8.724  0.2440  0.0959 -0.0522
   85loPI   C3B 1359  13.928   2.312   8.285  0.1581  0.5618 -0.0194
   85loPI   C4B 1360  13.680   2.284   7.972 -0.1859 -0.0449  0.3092
   86loPI    C1 1361   2.278  17.733  10.322 -0.0168  0.1641  0.0969
   86loPI    C2 1362   2.589  17.796  10.565 -0.0527  0.1611  0.1439
   86loPI    C3 1363   2.255  18.011  10.609 -0.1463 -0.0048  0.2524
   86loPI   PO4 1364   2.393  17.722  10.083  0.1466 -0.0598 -0.0939
   86loPI   GL1 1365   2.392  17.547   9.679 -0.1496  0.2187 -0.0447
   86loPI   GL2 1366   2.636  17.485   9.432 -0.1417  0.0344  0.3230
   86loPI   C1A 1367   2.024  17.358   9.402  0.0250  0.3555  0.1772
   86loPI   C2A 1368   2.005  17.129   9.008  0.1632 -0.0007  0.0130
   86loPI   C3A 1369   1.828  16.668   8.787  0.0369  0.0154 -0.1535
   86loPI   C4A 1370   1.761  16.404   8.483  0.1343 -0.1998 -0.0794
   86loPI   C5A 1371   1.725  16.584   8.060  0.3164  0.2047  0.3291
   86loPI   C6A 1372   1.492  16.442   7.811 -0.0488  0.4267  0.1084
   86loPI   C1B 1373   2.449  17.299   9.101 -0.0161  0.0654 -0.0119
   86loPI   C2B 1374   2.284  17.371   8.665 -0.4468 -0.1273  0.3762
   86loPI   C3B 1375   2.028  17.616   8.380 -0.2847  0.0609 -0.1115
   86loPI   C4B 1376   1.625  17.828   8.219 -0.3265  0.0520  0.1782
   87loPI    C1 1377   6.942  17.608  10.024 -0.0940  0.2258 -0.0232
   87loPI    C2 1378   7.168  17.466  10.322 -0.1037  0.0743 -0.0873
   87loPI    C3 1379   7.047  17.222  10.029 -0.2515  0.1808 -0.1161
   87loPI   PO4 1380   7.151  17.873   9.909 -0.1298 -0.0759 -0.3194
   87loPI   GL1 1381   7.207  17.827   9.430 -0.0805  0.1090 -0.1636
   87loPI   GL2 1382   7.363  17.649   9.293 -0.0716 -0.2310 -0.1634
   87loPI   C1A 1383   6.857  17.964   9.180  0.1621 -0.0952 -0.1161
   87loPI   C2A 1384   6.741  17.797   8.755  0.1607  0.3634  0.0731
   87loPI   C3A 1385   6.715  18.068   8.444 -0.1077  0.3838 -0.1089
   87loPI   C4A 1386   6.616  18.279   8.013 -0.1473  0.1135  0.1080
   87loPI   C5A 1387   6.398  18.487   7.754  0.1290  0.0481  0.0767
   87loPI   C6A 1388   6.525  18.915   7.619  0.0989 -0.0102  0.1428
   87loPI   C1B 1389   7.509  17.391   8.856  0.1185 -0.0293 -0.2518
   87loPI   C2B 1390   7.642  17.237   8.623  0.0739 -0.1494  0.1230
   87loPI   C3B 1391   7.781  17.346   8.282  0.1095  0.0713 -0.2642
   87loPI   C4B 1392   7.767  17.294   7.883 -0.0836  0.0278  0.1020
   88loPI    C1 1393  16.343  18.395  10.328 -0.0686  0.0033  0.0086
   88loPI    C2 1394  16.105  18.717  10.329  0.0721  0.1083 -0.0017
   88loPI    C3 1395  16.410  18.694  10.585  0.0530 -0.0248  0.0098
   88loPI   PO4 1396  16.446  18.386  10.070  0.1127 -0.3429 -0.0539
   88loPI   GL1 1397  16.486  18.154   9.783 -0.0168 -0.5270  0.0279
   88loPI   GL2 1398  16.724  17.992   9.588  0.2728  0.3389 -0.0419
   88loPI   C1A 1399  16.168  18.283   9.503  0.0706 -0.1321  0.1531
   88loPI   C2A 1400  16.250  18.332   9.109  0.2154 -0.1936  0.0690
   88loPI   C3A 1401  16.570  18.097   8.814  0.0692 -0.0190  0.1501
   88loPI   C4A 1402  16.908  17.873   8.558 -0.3694  0.1653  0.1003
   88loPI   C5A 1403  17.297  17.755   8.372  0.0681 -0.0376 -0.0958
   88loPI   C6A 1404  17.519  17.682   7.997  0.4251 -0.4265  0.0553
   88loPI   C1B 1405  16.840  18.191   9.216  0.0462 -0.1097  0.1477
   88loPI   C2B 1406  17.057  18.317   8.896  0.0233  0.0233 -0.3181
   88loPI   C3B 1407  17.107  18.311   8.476 -0.1785 -0.1197 -0.0496
   88loPI   C4B 1408  17.266  18.172   8.124  0.3543 -0.1707 -0.1538
   89loPI    C1 1409  13.033  10.046   9.808  0.0493 -0.0425 -0.0867
   89loPI    C2 1410  13.255   9.872  10.092 -0.0607  0.1564  0.1239
   89loPI    C3 1411  13.431  10.090   9.806  0.0553 -0.0897  0.0050
   89loPI   PO4 1412  12.760   9.821   9.735  0.1338 -0.2055 -0.5112
   89loPI   GL1 1413  12.497  10.122   9.394  0.0343  0.1742  0.1159
   89loPI   GL2 1414  12.804  10.069   9.297  0.2710 -0.3332  0.0505
   89loPI   C1A 1415  12.348   9.971   9.017 -0.1145  0.1531 -0.1307
   89loPI   C2A 1416  12.352   9.916   8.613 -0.1842 -0.1501  0.1850
   89loPI   C3A 1417  12.348   9.764   8.330  0.0966  0.0374  0.0189
   89loPI   C4A 1418  12.243   9.637   7.865 -0.2556  0.2075  0.0176
   89loPI   C5A 1419  12.270   9.291   7.481 -0.0755 -0.0390  0.2283
   89loPI   C6A 1420  12.405   9.049   7.098 -0.1851 -0.2066 -0.2226
   89loPI   C1B 1421  12.811   9.920   8.859  0.3512  0.1603  0.0490
   89loPI   C2B 1422  12.857   9.693   8.445 -0.0374 -0.1011  0.0984
   89loPI   C3B 1423  12.778   9.706   8.018 -0.0898  0.0218  0.0455
   89loPI   C4B 1424  12.590   9.703   7.515 -0.3590 -0.2245  0.2071
   90loPI    C1 1425   5.327   1.380   9.996 -0.0524  0.1288  0.0683
   90loPI    C2 1426   5.275   1.341  10.390  0.0367  0.1442  0.0818
   90loPI    C3 1427   4.959   1.333  10.145 -0.0041 -0.0346  0.1384
   90loPI   PO4 1428   5.517   1.639   9.981  0.3867  0.2476 -0.3371
   90loPI   GL1 1429   5.754   1.805   9.652 -0.1854 -0.1805  0.1623
   90loPI   GL2 1430   6.036   1.632   9.744 -0.2360  0.1601 -0.1499
   90loPI   C1A 1431   5.619   2.041   9.291  0.0514 -0.2103  0.3621
   90loPI   C2A 1432   5.560   2.250   8.887 -0.6112 -0.3286 -0.1721
   90loPI   C3A 1433   5.446   2.278   8.451  0.3137  0.1099  0.1225
   90loPI   C4A 1434   5.352   2.491   8.148 -0.1524  0.3543  0.1350
   90loPI   C5A 1435   5.650   2.338   7.947  0.1536  0.0990 -0.1785
   90loPI   C6A 1436   5.636   2.252   7.469  0.0267 -0.2049 -0.1989
   90loPI   C1B 1437   6.160   1.850   9.374  0.0047 -0.0676  0.1867
   90loPI   C2B 1438   6.187   1.932   8.967  0.0576 -0.3570 -0.1840
   90loPI   C3B 1439   6.069   2.107   8.616 -0.0589  0.1514 -0.2609
   90loPI   C4B 1440   6.080   2.346   8.253 -0.0617 -0.0184  0.2834
   91loPI    C1 1441   7.099   5.063  10.481  0.0608 -0.0829 -0.0667
   91loPI    C2 1442   7.392   5.334  10.457  0.1404 -0.1622  0.0019
   91loPI    C3 1443   7.109   5.371  10.737 -0.0576  0.0516 -0.2217
   91loPI   PO4 1444   6.963   5.113  10.254  0.2402  0.0231  0.2714
   91loPI   GL1 1445   6.844   4.934   9.842  0.3186  0.2186 -0.0308
   91loPI   GL2 1446   7.060   4.710   9.707 -0.1968  0.1704  0.2485
   91loPI   C1A 1447   6.730   5.221   9.448 -0.0345 -0.0957  0.1382
   91loPI   C2A 1448   6.571   5.297   8.970 -0.2362  0.0562 -0.0310
   91loPI   C3A 1449   6.513   5.177   8.530 -0.0108 -0.0228  0.1179
   91loPI   C4A 1450   6.298   5.243   8.134 -0.1371  0.1208  0.0674
   91loPI   C5A 1451   6.319   4.983   7.677 -0.0857  0.3806 -0.3620
   91loPI   C6A 1452   6.157   4.610   7.389 -0.3544 -0.0907 -0.4020
   91loPI   C1B 1453   6.972   4.758   9.262 -0.0550  0.0035 -0.1943
   91loPI   C2B 1454   6.724   4.799   8.860 -0.1586  0.1258  0.2243
   91loPI   C3B 1455   6.595   4.671   8.522 -0.3358  0.2040 -0.1070
   91loPI   C4B 1456   6.571   4.351   8.208  0.2243  0.4491 -0.2286
   92loPI    C1 1457  13.097  11.634   9.746 -0.1483 -0.2204 -0.1260
   92loPI    C2 1458  12.912  11.958   9.889 -0.0718 -0.0273 -0.4570
   92loPI    C3 1459  13.017  11.663  10.137 -0.3700  0.0850 -0.1910
   92loPI   PO4 1460  13.372  11.695   9.527 -0.2757  0.1020 -0.1089
   92loPI   GL1 1461  13.452  11.835   9.120  0.0388 -0.4016  0.0607
   92loPI   GL2 1462  13.660  11.597   9.104 -0.1370  0.2969  0.1946
   92loPI   C1A 1463  13.357  12.170   8.837 -0.0600  0.1318 -0.0977
   92loPI   C2A 1464  13.211  12.251   8.574 -0.0887 -0.2152  0.0321
   92loPI   C3A 1465  13.047  12.192   8.134  0.0824  0.2917  0.0161
   92loPI   C4A 1466  13.042  11.885   7.826 -0.1791 -0.0960 -0.0374
   92loPI   C5A 1467  12.894  11.529   7.717  0.0640 -0.1087 -0.0745
   92loPI   C6A 1468  12.809  11.309   7.380 -0.2149 -0.2661  0.0605
   92loPI   C1B 1469  13.788  11.844   8.726  0.1358  0.0652  0.0706
   92loPI   C2B 1470  13.708  12.111   8.417 -0.1743 -0.2218 -0.0550
   92loPI   C3B 1471  13.587  12.543   8.238 -0.0024  0.2828  0.1519
   92loPI   C4B 1472  13.158  12.644   8.313 -0.1785 -0.1035  0.0425
   93loPI    C1 1473   5.819  11.758  10.143  0.1784 -0.1892 -0.1616
   93loPI    C2 1474   6.141  11.576  10.295  0.0737 -0.1568  0.1031
   93loPI    C3 1475   5.808  11.611  10.514 -0.0431 -0.0090 -0.0944
   93loPI   PO4 1476   5.741  11.565  10.002  0.2176 -0.2178  0.4094
   93loPI   GL1 1477   5.738  11.431   9.561 -0.0696 -0.0112  0.1479
   93loPI   GL2 1478   5.888  11.220   9.408  0.2089  0.1592  0.4084
   93loPI   C1A 1479   5.576  11.621   9.193  0.3517  0.1110  0.1574
   93loPI   C2A 1480   5.442  11.836   8.747  0.1506  0.0375  0.2914
   93loPI   C3A 1481   5.357  11.875   8.368 -0.2407  0.2406  0.0324
   93loPI   C4A 1482   5.068  11.614   8.062 -0.0194 -0.2646 -0.0573
   93loPI   C5A 1483   5.138  11.172   8.056 -0.3205  0.0491 -0.0722
   93loPI   C6A 1484   5.084  11.011   8.498 -0.3027 -0.0123 -0.0733
   93loPI   C1B 1485   5.800  10.944   9.013 -0.0879 -0.1653  0.0254
   93loPI   C2B 1486   5.736  10.875   8.651  0.1628 -0.1333  0.1288
   93loPI   C3B 1487   5.489  10.768   8.186 -0.1369 -0.0719  0.0732
   93loPI   C4B 1488   5.189  10.644   7.965 -0.0658  0.1406  0.2113
   94loPI    C1 1489  15.271   1.327  10.431 -0.0452  0.0641 -0.1501
   94loPI    C2 1490  15.226   0.930  10.458  0.1943  0.0362 -0.1422
   94loPI    C3 1491  15.568   1.101  10.577  0.0194  0.2671  0.0378
   94loPI   PO4 1492  15.160   1.415   9.989 -0.0760 -0.2877  0.0553
   94loPI   GL1 1493  15.357   1.737   9.682  0.2595  0.0727  0.0004
   94loPI   GL2 1494  15.592   1.469   9.759 -0.1220  0.2612 -0.1605
   94loPI   C1A 1495  15.349   1.792   9.287  0.2997 -0.0008 -0.0444
   94loPI   C2A 1496  15.416   1.966   8.931  0.3398  0.2299 -0.1175
   94loPI   C3A 1497  15.440   2.265   8.563 -0.0082  0.1821  0.1159
   94loPI   C4A 1498  15.389   2.523   8.123  0.3314  0.1443 -0.0502
   94loPI   C5A 1499  15.201   2.801   7.783  0.0399  0.1608  0.2079
   94loPI   C6A 1500  15.193   3.291   7.795  0.1916 -0.1614 -0.1776
   94loPI   C1B 1501  15.802   1.462   9.408  0.0265 -0.3516  0.0725
   94loPI   C2B 1502  15.781   1.615   8.932  0.0102 -0.2190 -0.0733
   94loPI   C3B 1503  15.694   1.739   8.536 -0.0690  0.0818 -0.0211
   94loPI   C4B 1504  15.708   1.663   8.099  0.0974 -0.0186 -0.2692
   95loPI    C1 1505   0.017  15.471   9.782  0.0509  0.1350 -0.0278
   95loPI    C2 1506   0.143  15.627  10.128  0.0072 -0.0270  0.0618
   95loPI    C3 1507   0.002  15.866   9.841  0.0217  0.1062  0.1647
   95loPI   PO4 1508  -0.085  15.201   9.892 -0.0103  0.0178  0.2587
   95loPI   GL1 1509  -0.431  15.031   9.778  0.0824  0.1303  0.0594
   95loPI   GL2 1510  -0.412  14.630   9.791  0.0567 -0.2145  0.4639
   95loPI   C1A 1511  -0.760  14.958   9.539  0.0917 -0.3050  0.0319
   95loPI   C2A 1512  -0.964  14.821   9.183 -0.0585 -0.0415  0.1978
   95loPI   C3A 1513  -1.303  14.500   9.051  0.2104 -0.0733 -0.2574
   95loPI   C4A 1514  -1.689  14.222   9.054 -0.0114 -0.0549 -0.1081
   95loPI   C5A 1515  -1.783  13.852   8.867  0.2753  0.0241 -0.0866
   95loPI   C6A 1516  -1.783  13.392   8.768  0.0399  0.1085  0.1385
   95loPI   C1B 1517  -0.406  14.577   9.255 -0.1679  0.2324  0.0493
   95loPI   C2B 1518  -0.599  14.628   8.781 -0.2516 -0.3352 -0.0550
   95loPI   C3B 1519  -0.883  14.601   8.324  0.1860  0.0652  0.1672
   95loPI   C4B 1520  -0.720  14.586   7.865  0.0084  0.5622 -0.0516
   96loPI    C1 1521  12.623   0.215  10.531  0.1513  0.0441 -0.1098
   96loPI    C2 1522  12.259   0.242  10.368  0.0715  0.0972  0.0738
   96loPI    C3 1523  12.307   0.061  10.721  0.2200  0.1115  0.0617
   96loPI   PO4 1524  12.740   0.162  10.296  0.2790  0.2836  0.0460
   96loPI   GL1 1525  12.912   0.062   9.784  0.2615 -0.2633  0.0429
   96loPI   GL2 1526  12.960  -0.125   9.651  0.0846  0.0741 -0.0926
   96loPI   C1A 1527  12.612   0.136   9.431 -0.0907  0.1430  0.1743
   96loPI   C2A 1528  12.624   0.440   9.110 -0.0781  0.0283  0.1311
   96loPI   C3A 1529  12.784   0.361   8.681 -0.2059  0.1265  0.4429
   96loPI   C4A 1530  13.014  -0.038   8.485 -0.2564 -0.1769  0.0061
   96loPI   C5A 1531  13.069  -0.512   8.231  0.1578  0.4215  0.2461
   96loPI   C6A 1532  13.055  -0.999   8.192  0.3531 -0.2369  0.1634
   96loPI   C1B 1533  13.068  -0.322   9.307  0.0892  0.2873 -0.0395
   96loPI   C2B 1534  13.256  -0.254   8.961 -0.2166  0.1853  0.1976
   96loPI   C3B 1535  13.345  -0.341   8.593 -0.2476 -0.3279 -0.2489
   96loPI   C4B 1536  13.684  -0.607   8.488  0.2593 -0.1845 -0.0523
   97loPI    C1 1537  10.818   2.868  10.488 -0.0975 -0.0036  0.2175
   97loPI    C2 1538  10.459   2.983  10.621 -0.1060 -0.0771  0.2591
   97loPI    C3 1539  10.780   3.022  10.856 -0.0812  0.0180  0.2101
   97loPI   PO4 1540  10.718   2.917  10.213  0.4121  0.1658 -0.0488
   97loPI   GL1 1541  10.740   3.137   9.873 -0.0180  0.0210  0.2140
   97loPI   GL2 1542  10.884   2.823   9.727 -0.0281 -0.1555 -0.1106
   97loPI   C1A 1543  10.379   3.425   9.769 -0.3998  0.0502  0.1297
   97loPI   C2A 1544  10.058   3.533   9.433 -0.2875 -0.2641 -0.2442
   97loPI   C3A 1545   9.719   3.363   9.238  0.0214 -0.1568  0.1614
   97loPI   C4A 1546   9.588   3.463   8.773  0.2728  0.2861 -0.0872
   97loPI   C5A 1547   9.647   3.608   8.271 -0.1453 -0.0572  0.0531
   97loPI   C6A 1548   9.244   3.799   8.098 -0.2265 -0.3771 -0.3077
   97loPI   C1B 1549  10.850   2.741   9.341  0.0229  0.1572  0.3913
   97loPI   C2B 1550  10.813   2.651   9.013 -0.0428  0.0785 -0.2991
   97loPI   C3B 1551  10.962   2.468   8.750  0.3343  0.1248  0.0046
   97loPI   C4B 1552  11.187   2.067   8.582 -0.1285  0.0437  0.0497
   98loPI    C1 1553   8.359   7.347  10.611  0.1643 -0.1071  0.2559
   98loPI    C2 1554   8.096   7.544  10.383  0.2964 -0.0729  0.1323
   98loPI    C3 1555   8.012   7.472  10.767  0.0525 -0.1715  0.0623
   98loPI   PO4 1556   8.616   7.378  10.477 -0.0316 -0.1340  0.1480
   98loPI   GL1 1557   8.583   7.626  10.060 -0.3737 -0.0980 -0.1021
   98loPI   GL2 1558   8.372   7.679   9.935  0.1924  0.2505  0.2146
   98loPI   C1A 1559   8.849   7.544   9.735  0.2109  0.2772 -0.1508
   98loPI   C2A 1560   9.048   7.261   9.529  0.2719 -0.3497  0.1627
   98loPI   C3A 1561   9.058   7.306   9.099 -0.3241 -0.0199  0.0313
   98loPI   C4A 1562   8.812   7.499   8.760  0.1923 -0.0734 -0.3241
   98loPI   C5A 1563   8.813   7.684   8.416 -0.0790  0.2607 -0.0415
   98loPI   C6A 1564   9.048   7.773   8.038 -0.3109  0.1539  0.1051
   98loPI   C1B 1565   8.349   7.608   9.438 -0.2351  0.0590 -0.1718
   98loPI   C2B 1566   8.371   7.674   8.977  0.0003 -0.3417  0.0164
   98loPI   C3B 1567   8.224   7.543   8.512 -0.1697  0.1657  0.0385
   98loPI   C4B 1568   8.107   7.660   8.212 -0.1442 -0.2318 -0.0250
   99loPI    C1 1569   5.523   0.775   9.995 -0.1329  0.1424  0.0888
   99loPI    C2 1570   5.581   0.955  10.347 -0.1127  0.0754  0.1198
   99loPI    C3 1571   5.214   0.835  10.242 -0.0815 -0.1092  0.2173
   99loPI   PO4 1572   5.626   0.959   9.838  0.1282 -0.0906  0.1666
   99loPI   GL1 1573   5.447   0.797   9.467 -0.1117 -0.1496  0.5329
   99loPI   GL2 1574   5.259   0.627   9.270  0.2215  0.2583 -0.2326
   99loPI   C1A 1575   5.610   0.934   9.151 -0.1353  0.0052  0.0644
   99loPI   C2A 1576   5.547   1.039   8.782 -0.0618  0.1491 -0.0823
   99loPI   C3A 1577   5.584   1.230   8.421  0.1212 -0.0937  0.1579
   99loPI   C4A 1578   5.703   1.349   8.008  0.0077  0.2028  0.1732
   99loPI   C5A 1579   5.589   1.254   7.545  0.1709  0.3423 -0.1521
   99loPI   C6A 1580   5.338   1.371   7.263 -0.1490  0.0558  0.1303
   99loPI   C1B 1581   5.214   0.701   8.916 -0.2100  0.2047 -0.2521
   99loPI   C2B 1582   5.177   0.738   8.454 -0.1970  0.1525 -0.2089
   99loPI   C3B 1583   5.253   0.799   8.168  0.1296 -0.1677  0.0623
   99loPI   C4B 1584   5.236   0.788   7.799 -0.3221 -0.0409  0.3007
  100loPI    C1 1585  16.227  14.112  10.393 -0.0515 -0.2566 -0.0317
  100loPI    C2 1586  16.103  14.128  10.773  0.0197  0.1806 -0.0210
  100loPI    C3 1587  16.093  13.781  10.574 -0.2631  0.0001  0.2949
  100loPI   PO4 1588  16.109  14.308  10.218 -0.0828 -0.1404 -0.0919
  100loPI   GL1 1589  15.783  14.520  10.020  0.2558  0.1976 -0.0625
  100loPI   GL2 1590  15.509  14.558   9.994  0.0346  0.1827 -0.1605
  100loPI   C1A 1591  16.030  14.686   9.645  0.0223 -0.0918 -0.2715
  100loPI   C2A 1592  16.142  14.829   9.242 -0.1455 -0.3455 -0.1469
  100loPI   C3A 1593  16.207  14.809   8.844 -0.0332 -0.0156  0.2630
  100loPI   C4A 1594  16.327  15.085   8.566  0.1072 -0.1728 -0.0005
  100loPI   C5A 1595  16.141  15.272   8.201  0.2538 -0.0706 -0.3566
  100loPI   C6A 1596  15.856  15.338   7.982  0.0843  0.1494  0.1212
  100loPI   C1B 1597  15.463  14.504   9.627 -0.1846 -0.1462  0.1470
  100loPI   C2B 1598  15.280  14.423   9.214  0.0211  0.0219 -0.3487
  100loPI   C3B 1599  15.371  14.207   8.858 -0.1754  0.1237  0.1627
  100loPI   C4B 1600  15.404  14.099   8.519 -0.2083  0.0298 -0.0284
  101loPI    C1 1601   9.106   7.555  10.472  0.0982  0.4624  0.0929
  101loPI    C2 1602   8.928   7.600  10.827  0.1969  0.0498  0.1996
  101loPI    C3 1603   9.326   7.561  10.806  0.1808 -0.0458  0.0557
  101loPI   PO4 1604   9.047   7.774  10.351 -0.2112  0.2246  0.2031
  101loPI   GL1 1605   8.932   7.983   9.975  0.1244 -0.1834 -0.0231
  101loPI   GL2 1606   8.703   8.283  10.036 -0.1943  0.1872 -0.3968
  101loPI   C1A 1607   8.805   7.984   9.519 -0.0073 -0.3766  0.2748
  101loPI   C2A 1608   8.847   7.847   9.160  0.0534 -0.1727 -0.0326
  101loPI   C3A 1609   8.823   7.991   8.809 -0.0954  0.1387  0.1322
  101loPI   C4A 1610   8.885   8.271   8.503 -0.0931 -0.0956 -0.3940
  101loPI   C5A 1611   8.848   8.298   8.088  0.1361 -0.3394 -0.2860
  101loPI   C6A 1612   8.718   8.090   7.730 -0.2640  0.1215 -0.2082
  101loPI   C1B 1613   8.735   8.447   9.667  0.0636 -0.1775 -0.1049
  101loPI   C2B 1614   8.718   8.564   9.226 -0.1625  0.2612 -0.2270
  101loPI   C3B 1615   8.678   8.595   8.831 -0.0801 -0.3583 -0.0272
  101loPI   C4B 1616   8.548   8.658   8.336  0.1641  0.2130 -0.2142
  102loPI    C1 1617   9.198  14.377  10.062  0.2381  0.2560 -0.2329
  102loPI    C2 1618   9.176  14.756   9.936 -0.1272  0.2630 -0.1574
  102loPI    C3 1619   8.872  14.595  10.141  0.1223  0.0000  0.0132
  102loPI   PO4 1620   9.213  14.181   9.762 -0.0091  0.0308  0.0011
  102loPI   GL1 1621   9.138  14.063   9.339 -0.0293  0.1588 -0.0446
  102loPI   GL2 1622   9.434  14.081   9.080 -0.1009 -0.0578  0.1852
  102loPI   C1A 1623   9.197  13.622   9.036  0.5307  0.0765  0.0312
  102loPI   C2A 1624   8.895  13.518   8.748  0.1659  0.4823  0.1073
  102loPI   C3A 1625   8.837  13.692   8.373  0.1202 -0.2607  0.0129
  102loPI   C4A 1626   8.864  13.801   7.965  0.6796 -0.2489 -0.0720
  102loPI   C5A 1627   8.871  14.003   7.730 -0.2527  0.5788 -0.0070
  102loPI   C6A 1628   8.871  14.298   7.421  0.2449 -0.1895  0.0891
  102loPI   C1B 1629   9.601  13.879   8.718  0.2247 -0.1608  0.2036
  102loPI   C2B 1630   9.849  14.021   8.223 -0.0842 -0.0490 -0.2499
  102loPI   C3B 1631   9.996  14.090   7.878 -0.1183  0.0254 -0.0917
  102loPI   C4B 1632  10.161  14.316   7.845 -0.1164 -0.0158 -0.0228
  103loPI    C1 1633   4.153   8.173  10.158 -0.0256 -0.1571 -0.0637
  103loPI    C2 1634   3.924   7.845  10.170 -0.0501 -0.1476 -0.2420
  103loPI    C3 1635   3.845   8.154  10.412 -0.2671 -0.1184 -0.3476
  103loPI   PO4 1636   4.134   8.279   9.981  0.0272 -0.2411  0.0677
  103loPI   GL1 1637   4.248   8.290   9.624 -0.1680 -0.0933 -0.3515
  103loPI   GL2 1638   3.967   8.513   9.493 -0.3588  0.0940 -0.1183
  103loPI   C1A 1639   4.523   8.199   9.268 -0.3352 -0.0504  0.1164
  103loPI   C2A 1640   4.783   8.101   8.796 -0.0602 -0.3114 -0.0489
  103loPI   C3A 1641   4.952   7.876   8.496  0.0251  0.1570  0.2954
  103loPI   C4A 1642   5.297   7.721   8.175  0.1330 -0.0053 -0.1179
  103loPI   C5A 1643   5.661   7.587   7.941 -0.2747 -0.2357 -0.0739
  103loPI   C6A 1644   6.025   7.491   7.868  0.1566 -0.2778 -0.0037
  103loPI   C1B 1645   3.962   8.735   9.067 -0.0369 -0.1135  0.0907
  103loPI   C2B 1646   4.067   8.693   8.677  0.1535  0.0339  0.1071
  103loPI   C3B 1647   3.858   8.676   8.248  0.1062  0.1206  0.0222
  103loPI   C4B 1648   3.839   8.736   7.722  0.0967  0.2155  0.0214
  104loPI    C1 1649  12.334   2.127  10.061 -0.1503  0.0122 -0.0867
  104loPI    C2 1650  12.591   1.823  10.021  0.1523  0.2535 -0.0205
  104loPI    C3 1651  12.336   1.830  10.328  0.0602  0.0096 -0.0890
  104loPI   PO4 1652  12.517   2.300  10.003  0.2767 -0.3673  0.1433
  104loPI   GL1 1653  12.629   2.349   9.603 -0.1267 -0.0528 -0.2409
  104loPI   GL2 1654  12.390   2.092   9.525  0.0258 -0.0129  0.1858
  104loPI   C1A 1655  12.842   2.417   9.255 -0.0885 -0.3856 -0.1091
  104loPI   C2A 1656  12.810   2.528   8.819 -0.2373 -0.2204  0.0312
  104loPI   C3A 1657  13.015   2.247   8.497  0.2473  0.0014  0.1215
  104loPI   C4A 1658  12.939   2.091   8.125  0.1105  0.0271 -0.0421
  104loPI   C5A 1659  13.206   1.966   7.894  0.0342  0.1252  0.0155
  104loPI   C6A 1660  13.545   1.816   7.756  0.1681  0.0331  0.2447
  104loPI   C1B 1661  12.593   1.968   9.177  0.2132 -0.0964 -0.3659
  104loPI   C2B 1662  12.665   1.928   8.737 -0.1795 -0.3027 -0.1714
  104loPI   C3B 1663  12.566   1.755   8.325 -0.0487  0.0503 -0.0040
  104loPI   C4B 1664  12.580   1.322   8.227 -0.3568 -0.0939 -0.0456
  105loPI    C1 1665   6.820   3.714  10.352  0.0082  0.2401  0.0016
  105loPI    C2 1666   7.193   3.772  10.484  0.0629  0.1400 -0.1070
  105loPI    C3 1667   6.898   3.702  10.744  0.1371  0.1228 -0.0267
  105loPI   PO4 1668   6.802   3.510  10.274  0.0117 -0.3186  0.4271
  105loPI   GL1 1669   6.808   3.364   9.963 -0.0984  0.0583 -0.1491
  105loPI   GL2 1670   6.486   3.179   9.786  0.0639  0.1948 -0.4171
  105loPI   C1A 1671   6.777   3.549   9.568  0.2347  0.0524  0.1354
  105loPI   C2A 1672   6.709   3.756   9.205 -0.3205  0.1555  0.0890
  105loPI   C3A 1673   6.572   3.983   8.805  0.0549 -0.1186 -0.0478
  105loPI   C4A 1674   6.414   3.803   8.454  0.0926  0.1107  0.1579
  105loPI   C5A 1675   6.484   3.701   8.072  0.2728  0.3244  0.0642
  105loPI   C6A 1676   6.817   3.509   7.834  0.1269  0.1990  0.0552
  105loPI   C1B 1677   6.415   3.277   9.350  0.1414  0.0440 -0.1097
  105loPI   C2B 1678   6.061   3.391   9.080  0.1226 -0.2066  0.2088
  105loPI   C3B 1679   6.072   3.512   8.683 -0.0231  0.0082 -0.2173
  105loPI   C4B 1680   5.941   3.703   8.231 -0.2350 -0.1043 -0.0341
  106loPI    C1 1681  11.597  13.735   9.926  0.2052 -0.2005 -0.2446
  106loPI    C2 1682  11.772  14.093   9.888 -0.2372  0.0656  0.1215
  106loPI    C3 1683  11.943  13.810  10.112  0.0757  0.0686 -0.1063
  106loPI   PO4 1684  11.592  13.628   9.639  0.0411 -0.0165 -0.0364
  106loPI   GL1 1685  11.490  13.530   9.228  0.2431  0.0632  0.0186
  106loPI   GL2 1686  11.655  13.207   9.307 -0.1082 -0.3975  0.2409
  106loPI   C1A 1687  11.471  13.248   8.852 -0.0328 -0.2948 -0.1302
  106loPI   C2A 1688  11.418  13.247   8.315  0.1191 -0.0881 -0.1884
  106loPI   C3A 1689  11.468  13.266   7.836 -0.1961  0.0385  0.0076
  106loPI   C4A 1690  11.431  13.334   7.451 -0.0826  0.1346 -0.2933
  106loPI   C5A 1691  11.185  13.570   7.263 -0.2218  0.2808  0.1431
  106loPI   C6A 1692  10.806  13.843   7.372 -0.2154 -0.1471  0.0990
  106loPI   C1B 1693  11.972  13.234   8.872 -0.2649 -0.0750 -0.0434
  106loPI   C2B 1694  11.847  13.371   8.548 -0.1652 -0.1112  0.2531
  106loPI   C3B 1695  12.102  13.625   8.203  0.0883  0.1463  0.3190
  106loPI   C4B 1696  12.279  13.644   7.761  0.0920 -0.4729 -0.0970
  107loPI    C1 1697  15.669  12.016   9.866  0.0935  0.0820 -0.0457
  107loPI    C2 1698  15.537  12.371   9.736  0.1041  0.0219 -0.2229
  107loPI    C3 1699  15.422  12.035   9.552 -0.0751 -0.0837  0.0745
  107loPI   PO4 1700  15.861  11.936   9.850  0.0998 -0.0360  0.1669
  107loPI   GL1 1701  15.823  11.787   9.374 -0.1378 -0.1063  0.0572
  107loPI   GL2 1702  16.101  11.727   9.476 -0.3795  0.1193 -0.0035
  107loPI   C1A 1703  15.819  11.782   8.970  0.4016  0.2303 -0.1181
  107loPI   C2A 1704  15.790  11.882   8.593  0.1320 -0.0021 -0.1036
  107loPI   C3A 1705  15.662  12.096   8.250  0.2978 -0.0286  0.2119
  107loPI   C4A 1706  15.499  11.894   7.887  0.0276  0.1879  0.1182
  107loPI   C5A 1707  15.400  11.614   7.527  0.0288  0.2140 -0.0975
  107loPI   C6A 1708  15.559  11.254   7.378 -0.0131 -0.1192  0.0762
  107loPI   C1B 1709  16.064  11.418   9.105 -0.3082  0.0829 -0.1552
  107loPI   C2B 1710  15.785  11.319   8.754 -0.2320 -0.1656  0.5943
  107loPI   C3B 1711  15.753  11.065   8.422  0.0472 -0.2751 -0.2350
  107loPI   C4B 1712  15.534  10.898   8.130  0.4990  0.0018 -0.0505
  108loPI    C1 1713   5.200  14.441  10.238  0.0484 -0.1692  0.0534
  108loPI    C2 1714   5.361  14.123  10.056 -0.2017 -0.2421 -0.0444
  108loPI    C3 1715   5.316  14.124  10.453 -0.1672 -0.3141 -0.0401
  108loPI   PO4 1716   5.263  14.679  10.003  0.0108  0.0076 -0.0668
  108loPI   GL1 1717   5.303  14.795   9.510  0.0598  0.3814 -0.0266
  108loPI   GL2 1718   5.511  15.140   9.584 -0.1036 -0.1182 -0.0234
  108loPI   C1A 1719   5.112  14.586   9.162 -0.4202  0.3343  0.1616
  108loPI   C2A 1720   5.272  14.506   8.706 -0.2271  0.1539 -0.2441
  108loPI   C3A 1721   5.388  14.159   8.476  0.3539 -0.2643  0.1552
  108loPI   C4A 1722   5.740  14.016   8.195  0.0048 -0.1080 -0.0562
  108loPI   C5A 1723   5.973  13.636   8.164  0.0092  0.2319  0.2204
  108loPI   C6A 1724   6.066  13.184   7.989 -0.2424 -0.0898  0.1589
  108loPI   C1B 1725   5.645  15.358   9.236  0.2969 -0.0368  0.2383
  108loPI   C2B 1726   5.618  15.367   8.793 -0.2549 -0.1798 -0.2491
  108loPI   C3B 1727   5.471  15.541   8.397 -0.0450 -0.0740 -0.2421
  108loPI   C4B 1728   5.474  15.426   7.978  0.1655 -0.1795 -0.1614
  109loPI    C1 1729   0.029   5.437  10.030 -0.0655 -0.0545  0.0389
  109loPI    C2 1730   0.043   5.057  10.154 -0.0180 -0.0622  0.0101
  109loPI    C3 1731  -0.283   5.279  10.225 -0.0505 -0.1120  0.0161
  109loPI   PO4 1732   0.175   5.448   9.842  0.2022 -0.1570  0.1720
  109loPI   GL1 1733   0.176   5.335   9.442 -0.1337  0.1915  0.3817
  109loPI   GL2 1734   0.490   5.235   9.497 -0.0205 -0.0931 -0.3082
  109loPI   C1A 1735   0.070   5.010   9.156  0.0188 -0.0681  0.2814
  109loPI   C2A 1736   0.105   4.895   8.837 -0.2740  0.2258  0.0220
  109loPI   C3A 1737   0.109   4.646   8.368 -0.3603  0.1206 -0.0317
  109loPI   C4A 1738   0.109   4.352   7.923 -0.2206 -0.0156 -0.0242
  109loPI   C5A 1739  -0.076   3.964   7.778  0.1308 -0.1647 -0.1060
  109loPI   C6A 1740  -0.268   3.607   7.928  0.0896  0.1457 -0.0009
  109loPI   C1B 1741   0.435   5.264   9.012 -0.2735  0.0293  0.3429
  109loPI   C2B 1742   0.419   5.317   8.619 -0.1453 -0.0592  0.0514
  109loPI   C3B 1743   0.281   5.177   8.345  0.2696 -0.1568  0.2698
  109loPI   C4B 1744  -0.141   5.074   8.205 -0.1670  0.0879  0.0590
  110loPI    C1 1745   2.846   1.286  10.128  0.0573  0.2021  0.0417
  110loPI    C2 1746   2.465   1.256  10.246  0.0365  0.1080 -0.0482
  110loPI    C3 1747   2.756   1.301  10.517 -0.0166 -0.0491  0.0358
  110loPI   PO4 1748   2.818   1.214   9.897 -0.2450 -0.3003  0.1808
  110loPI   GL1 1749   2.480   1.134   9.610  0.4922 -0.0120 -0.1179
  110loPI   GL2 1750   2.450   0.839   9.576  0.3157  0.0727 -0.1459
  110loPI   C1A 1751   2.144   1.184   9.316  0.0409  0.4191 -0.0489
  110loPI   C2A 1752   1.978   1.267   8.902 -0.1817 -0.1421  0.0652
  110loPI   C3A 1753   2.106   1.080   8.524 -0.0905  0.0509  0.4120
  110loPI   C4A 1754   2.187   0.786   8.195 -0.3181  0.2379 -0.1127
  110loPI   C5A 1755   2.521   0.644   7.824  0.1447 -0.0696 -0.1801
  110loPI   C6A 1756   2.890   0.857   7.546  0.0432 -0.0872  0.3916
  110loPI   C1B 1757   2.235   0.676   9.173 -0.1550  0.0862  0.0652
  110loPI   C2B 1758   2.340   0.484   8.672  0.1638  0.1088  0.0818
  110loPI   C3B 1759   2.180   0.175   8.413  0.3403  0.1514  0.1499
  110loPI   C4B 1760   1.767   0.075   8.223  0.0052  0.1707 -0.2035
  111loPI    C1 1761   5.652  17.297  10.239  0.0168 -0.0955  0.1426
  111loPI    C2 1762   5.493  17.273  10.605 -0.1490  0.2351  0.0967
  111loPI    C3 1763   5.662  17.614  10.482  0.1239  0.0515 -0.0498
  111loPI   PO4 1764   5.468  17.220  10.041 -0.1057 -0.1370  0.1249
  111loPI   GL1 1765   5.404  16.974   9.713 -0.0266  0.3115 -0.1135
  111loPI   GL2 1766   5.673  17.027   9.519  0.3863 -0.2066  0.0255
  111loPI   C1A 1767   5.077  17.023   9.415 -0.0190  0.0561 -0.2549
  111loPI   C2A 1768   4.753  16.819   9.162 -0.5329 -0.1790  0.0585
  111loPI   C3A 1769   4.410  16.916   9.030  0.0675 -0.0362  0.0689
  111loPI   C4A 1770   4.364  16.924   8.617 -0.2140  0.2283  0.1647
  111loPI   C5A 1771   4.236  16.956   8.087  0.0872  0.0791  0.1622
  111loPI   C6A 1772   4.231  17.211   7.820  0.0148 -0.0842 -0.1767
  111loPI   C1B 1773   5.690  16.898   9.086 -0.1388  0.0221 -0.1890
  111loPI   C2B 1774   5.771  16.916   8.675  0.3022 -0.0954 -0.1037
  111loPI   C3B 1775   5.488  17.105   8.425 -0.1021 -0.1604  0.2376
  111loPI   C4B 1776   5.192  17.434   8.311  0.2400 -0.2304 -0.1020
  112loPI    C1 1777   0.144   6.422  10.267 -0.1869  0.0525  0.0100
  112loPI    C2 1778   0.342   6.150  10.483 -0.0963  0.2166  0.1354
  112loPI    C3 1779  -0.048   6.209  10.546 -0.0624  0.2898  0.2820
  112loPI   PO4 1780   0.295   6.351  10.034  0.1940  0.1050  0.1090
  112loPI   GL1 1781   0.607   6.593   9.850 -0.0747  0.0338  0.0244
  112loPI   GL2 1782   0.846   6.432   9.647  0.2102 -0.3142 -0.3075
  112loPI   C1A 1783   0.424   6.696   9.478 -0.3286  0.1006  0.1802
  112loPI   C2A 1784   0.506   6.631   8.974  0.0710  0.1105 -0.0457
  112loPI   C3A 1785   0.503   6.569   8.581 -0.2289  0.1458 -0.0881
  112loPI   C4A 1786   0.387   6.244   8.289  0.0549  0.3825  0.1976
  112loPI   C5A 1787   0.117   6.373   7.956 -0.3247  0.0447  0.2528
  112loPI   C6A 1788  -0.077   6.816   7.914  0.0827  0.0501  0.0754
  112loPI   C1B 1789   0.990   6.577   9.321 -0.2750  0.0828 -0.0620
  112loPI   C2B 1790   1.118   6.662   8.840 -0.3378  0.0521 -0.2778
  112loPI   C3B 1791   0.973   6.699   8.459  0.1202 -0.0668 -0.2102
  112loPI   C4B 1792   0.637   6.749   8.107 -0.2925  0.0395  0.1490
  113loPI    C1 1793  13.841   4.678  10.034  0.1897 -0.2455  0.1602
  113loPI    C2 1794  13.586   4.451   9.827  0.0433 -0.1672  0.2527
  113loPI    C3 1795  13.530   4.846   9.848  0.3642 -0.1028 -0.0075
  113loPI   PO4 1796  14.117   4.595   9.974 -0.0004  0.0881  0.2039
  113loPI   GL1 1797  14.193   4.895   9.673 -0.1251  0.2809 -0.1809
  113loPI   GL2 1798  13.947   5.066   9.663  0.0310 -0.1203  0.1393
  113loPI   C1A 1799  14.126   4.531   9.338 -0.0849 -0.3782  0.0822
  113loPI   C2A 1800  14.095   4.586   8.892  0.2082 -0.3095 -0.0379
  113loPI   C3A 1801  14.286   4.793   8.538  0.2905  0.1289  0.0287
  113loPI   C4A 1802  14.532   4.956   8.140 -0.2106  0.0478 -0.0803
  113loPI   C5A 1803  15.017   4.977   8.106  0.3284 -0.0625  0.1798
  113loPI   C6A 1804  15.377   5.211   7.969  0.2241 -0.2074  0.0496
  113loPI   C1B 1805  13.914   4.998   9.284 -0.3366 -0.0782 -0.2744
  113loPI   C2B 1806  14.149   5.097   8.929 -0.3474 -0.0035  0.0631
  113loPI   C3B 1807  14.325   5.328   8.503 -0.0245  0.1027  0.3049
  113loPI   C4B 1808  14.144   5.652   8.395  0.3352 -0.1673 -0.3145
  114loPI    C1 1809  18.514   3.626  10.050  0.1358 -0.0578  0.2421
  114loPI    C2 1810  18.135   3.522  10.123  0.0825 -0.0098  0.0396
  114loPI    C3 1811  18.281   3.863  10.273 -0.0636  0.1500 -0.1740
  114loPI   PO4 1812  18.682   3.367  10.120 -0.1881  0.3484 -0.0915
  114loPI   GL1 1813  18.935   3.132   9.779 -0.1762  0.1199 -0.2429
  114loPI   GL2 1814  19.095   3.192   9.536 -0.1397  0.2810 -0.0948
  114loPI   C1A 1815  18.655   3.259   9.349 -0.1271 -0.3113  0.0609
  114loPI   C2A 1816  18.506   3.273   8.858  0.1203 -0.0218  0.2351
  114loPI   C3A 1817  18.721   3.202   8.480 -0.0909  0.0647  0.0449
  114loPI   C4A 1818  18.830   3.290   8.089  0.2300  0.2056 -0.1113
  114loPI   C5A 1819  18.772   3.622   7.771  0.0530  0.2490 -0.2980
  114loPI   C6A 1820  18.937   3.987   7.667 -0.0778 -0.2117 -0.1048
  114loPI   C1B 1821  19.122   3.090   9.195  0.2864  0.2314  0.1220
  114loPI   C2B 1822  19.127   3.189   8.768  0.2434 -0.1651  0.0209
  114loPI   C3B 1823  19.225   2.933   8.356 -0.0004 -0.2345 -0.2493
  114loPI   C4B 1824  19.541   2.659   8.239 -0.0580  0.4566 -0.0968
  115loPI    C1 1825   7.508   4.633  10.568 -0.1797  0.1010  0.1665
  115loPI    C2 1826   7.771   4.332  10.590 -0.1253  0.1276 -0.0930
  115loPI    C3 1827   7.383   4.255  10.531 -0.1024  0.1093 -0.2243
  115loPI   PO4 1828   7.619   4.846  10.366  0.0249  0.0431 -0.3589
  115loPI   GL1 1829   7.399   5.028  10.054 -0.2074  0.2041 -0.2928
  115loPI   GL2 1830   7.243   5.265   9.871  0.0324 -0.2155  0.1072
  115loPI   C1A 1831   7.771   5.137   9.712 -0.0426 -0.0997 -0.1639
  115loPI   C2A 1832   8.024   5.074   9.301  0.2296 -0.1520 -0.1411
  115loPI   C3A 1833   7.952   4.989   8.833 -0.1022  0.0215 -0.1159
  115loPI   C4A 1834   7.731   4.849   8.531 -0.1005  0.1209  0.3040
  115loPI   C5A 1835   7.461   4.840   8.235  0.2721 -0.1585 -0.1245
  115loPI   C6A 1836   7.135   5.080   7.926 -0.1931  0.1332 -0.2311
  115loPI   C1B 1837   7.302   5.090   9.535  0.2028  0.0438 -0.0698
  115loPI   C2B 1838   7.061   5.205   9.105 -0.0335  0.1630 -0.2274
  115loPI   C3B 1839   7.005   5.433   8.698 -0.2201 -0.0422  0.1126
  115loPI   C4B 1840   6.861   5.413   8.247  0.0355  0.2256  0.1739
  116loPI    C1 1841  14.861   4.549  10.714 -0.0433  0.0650 -0.0432
  116loPI    C2 1842  15.199   4.356  10.805 -0.1220  0.0010  0.1195
  116loPI    C3 1843  15.102   4.692  11.000 -0.1007  0.0777 -0.0008
  116loPI   PO4 1844  14.921   4.613  10.505  0.3039 -0.2236  0.0919
  116loPI   GL1 1845  15.023   4.618  10.073 -0.1953  0.0602  0.1731
  116loPI   GL2 1846  15.372   4.746  10.034  0.0710  0.0425  0.0024
  116loPI   C1A 1847  14.834   4.780   9.616  0.2811  0.2591  0.1443
  116loPI   C2A 1848  14.703   4.703   9.117  0.4211 -0.1344 -0.1073
  116loPI   C3A 1849  14.649   4.430   8.756 -0.0424  0.1499  0.0493
  116loPI   C4A 1850  14.713   4.485   8.411  0.2768 -0.0877 -0.1623
  116loPI   C5A 1851  14.782   4.467   8.007  0.1745  0.0837 -0.2326
  116loPI   C6A 1852  14.872   4.711   7.705 -0.1165 -0.1572 -0.1102
  116loPI   C1B 1853  15.326   4.658   9.584 -0.0718 -0.1185 -0.0825
  116loPI   C2B 1854  15.569   4.644   9.137  0.0135 -0.0399  0.0618
  116loPI   C3B 1855  15.821   4.422   8.825  0.1886  0.0886  0.2138
  116loPI   C4B 1856  16.144   4.399   8.496 -0.3029 -0.2225  0.1241
  117loPI    C1 1857  10.002   2.402  10.235  0.0800  0.1821 -0.0528
  117loPI    C2 1858  10.032   2.775  10.375 -0.4049  0.1798  0.0765
  117loPI    C3 1859   9.988   2.469  10.629  0.1010  0.0153 -0.0231
  117loPI   PO4 1860   9.799   2.406  10.040  0.0774  0.0651  0.0048
  117loPI   GL1 1861   9.786   2.536   9.630  0.1673 -0.0920  0.0325
  117loPI   GL2 1862   9.524   2.724   9.709 -0.1509 -0.0437 -0.0882
  117loPI   C1A 1863   9.875   2.409   9.296  0.3195 -0.0879 -0.0768
  117loPI   C2A 1864   9.955   2.533   8.938 -0.1552 -0.0425 -0.0656
  117loPI   C3A 1865   9.989   2.468   8.574 -0.1067  0.0329  0.0019
  117loPI   C4A 1866   9.990   2.717   8.220  0.1096  0.2215  0.0837
  117loPI   C5A 1867  10.393   2.821   7.919  0.1443 -0.5034  0.0156
  117loPI   C6A 1868  10.729   2.525   7.778  0.0726  0.1190 -0.0839
  117loPI   C1B 1869   9.565   2.883   9.383  0.3959 -0.2658 -0.0158
  117loPI   C2B 1870   9.690   2.952   8.978  0.1472  0.1600  0.0896
  117loPI   C3B 1871   9.856   3.065   8.500  0.3301 -0.2308  0.0218
  117loPI   C4B 1872   9.963   3.245   7.963  0.2496  0.1853 -0.0035
  118loPI    C1 1873   9.946   1.628  10.060 -0.0758 -0.1898  0.1830
  118loPI    C2 1874  10.299   1.651  10.247 -0.0490 -0.0318  0.1148
  118loPI    C3 1875  10.082   1.315  10.269  0.1557 -0.1693  0.0669
  118loPI   PO4 1876   9.885   1.896  10.009  0.1108 -0.0829  0.3859
  118loPI   GL1 1877  10.016   2.053   9.644 -0.1723 -0.0452 -0.3859
  118loPI   GL2 1878  10.281   2.400   9.603 -0.0329  0.4188 -0.0275
  118loPI   C1A 1879  10.215   2.006   9.136 -0.2908 -0.1805  0.0617
  118loPI   C2A 1880  10.229   1.992   8.682 -0.0945  0.2609 -0.0856
  118loPI   C3A 1881  10.117   2.094   8.201  0.0718 -0.0117  0.0329
  118loPI   C4A 1882  10.285   2.247   7.694 -0.0922 -0.0232 -0.0761
  118loPI   C5A 1883  10.381   2.332   7.242 -0.1864 -0.3399  0.3062
  118loPI   C6A 1884  10.745   2.441   7.005  0.2626  0.1468 -0.2308
  118loPI   C1B 1885  10.394   2.447   9.180 -0.1934 -0.0006  0.2230
  118loPI   C2B 1886  10.464   2.577   8.680  0.2190  0.2406  0.0592
  118loPI   C3B 1887  10.601   2.483   8.288 -0.0989  0.0679  0.2403
  118loPI   C4B 1888  10.998   2.338   8.191  0.2270  0.2002  0.3788
  119loPI    C1 1889  10.162  16.123   9.870 -0.3035  0.1691  0.1116
  119loPI    C2 1890  10.083  15.732   9.895 -0.2070  0.1399 -0.0257
  119loPI    C3 1891  10.112  15.952  10.228  0.0109 -0.0250  0.0672
  119loPI   PO4 1892  10.181  16.159   9.633 -0.1915  0.0963 -0.1079
  119loPI   GL1 1893  10.374  16.345   9.285  0.0320  0.2965 -0.1285
  119loPI   GL2 1894  10.555  16.066   9.203  0.2351 -0.0184 -0.0669
  119loPI   C1A 1895  10.705  16.591   9.040  0.0762  0.2230  0.1166
  119loPI   C2A 1896  10.730  16.689   8.585 -0.2257 -0.2112 -0.0513
  119loPI   C3A 1897  10.870  16.785   8.236  0.1558  0.0076 -0.0530
  119loPI   C4A 1898  10.984  16.879   7.829 -0.3709 -0.0222 -0.0977
  119loPI   C5A 1899  11.353  17.042   7.515  0.0879 -0.4295  0.1238
  119loPI   C6A 1900  11.382  16.942   7.161 -0.1133 -0.3362  0.0385
  119loPI   C1B 1901  10.400  16.259   8.804 -0.0965  0.2308  0.0651
  119loPI   C2B 1902  10.433  16.261   8.308  0.0324  0.0184  0.1369
  119loPI   C3B 1903  10.453  16.289   7.844  0.1084 -0.0053 -0.1069
  119loPI   C4B 1904  10.603  16.055   7.528  0.0934  0.0821 -0.2563
  120loPI    C1 1905   3.293  14.239  10.111 -0.0436 -0.0282  0.1810
  120loPI    C2 1906   3.653  14.290  10.276  0.0806 -0.0208 -0.0868
  120loPI    C3 1907   3.345  14.516  10.394  0.1606 -0.0321  0.1484
  120loPI   PO4 1908   3.353  14.280   9.879  0.0847 -0.2404  0.3981
  120loPI   GL1 1909   3.647  14.271   9.455 -0.1912  0.0712  0.2085
  120loPI   GL2 1910   3.435  14.220   9.274 -0.2014 -0.0288 -0.2977
  120loPI   C1A 1911   3.967  14.116   9.213  0.0299 -0.2500  0.2428
  120loPI   C2A 1912   3.840  13.763   9.100 -0.1413  0.0144 -0.1080
  120loPI   C3A 1913   3.598  13.381   8.950  0.0759 -0.0329  0.1401
  120loPI   C4A 1914   3.310  13.128   8.764  0.1809  0.2971 -0.0548
  120loPI   C5A 1915   3.066  12.796   8.521 -0.1460 -0.1218 -0.1592
  120loPI   C6A 1916   3.135  12.373   8.335  0.0401  0.0492  0.4103
  120loPI   C1B 1917   3.601  14.129   8.913  0.0979 -0.0060  0.0406
  120loPI   C2B 1918   3.525  13.831   8.634  0.3204 -0.1206  0.1440
  120loPI   C3B 1919   3.357  13.768   8.216  0.1216 -0.2585 -0.1070
  120loPI   C4B 1920   3.048  13.626   7.968  0.0138  0.0152  0.0516
  121loPI    C1 1921  18.224  14.821  10.289  0.0912 -0.1449 -0.3234
  121loPI    C2 1922  18.005  14.487  10.268 -0.1484 -0.0163  0.0290
  121loPI    C3 1923  17.835  14.842  10.197 -0.0169  0.0726  0.1544
  121loPI   PO4 1924  18.568  14.723  10.179  0.0072  0.1948 -0.0140
  121loPI   GL1 1925  18.702  14.766   9.797  0.0227  0.0605  0.1576
  121loPI   GL2 1926  18.594  14.939   9.485 -0.0499 -0.2979  0.1634
  121loPI   C1A 1927  19.057  14.792   9.546 -0.0019 -0.1171 -0.1044
  121loPI   C2A 1928  19.294  15.102   9.290  0.0832 -0.0544 -0.2052
  121loPI   C3A 1929  19.501  15.057   9.001 -0.2341 -0.1962  0.0706
  121loPI   C4A 1930  19.438  15.206   8.605  0.2392 -0.1768  0.2681
  121loPI   C5A 1931  18.992  15.036   8.488  0.0173  0.4864 -0.0701
  121loPI   C6A 1932  18.653  14.759   8.391 -0.2882 -0.1615 -0.3178
  121loPI   C1B 1933  18.256  15.140   9.261 -0.0490 -0.1190  0.2333
  121loPI   C2B 1934  17.908  15.117   9.034  0.0358  0.1567  0.0752
  121loPI   C3B 1935  17.706  15.063   8.620 -0.1369 -0.0412  0.0836
  121loPI   C4B 1936  17.408  14.785   8.665  0.0396 -0.1287 -0.5024
  122loPI    C1 1937   5.450  15.532   9.884  0.0468 -0.1477 -0.0658
  122loPI    C2 1938   5.385  15.483  10.275 -0.1820 -0.0503 -0.0902
  122loPI    C3 1939   5.757  15.542  10.140 -0.0745 -0.3036  0.0879
  122loPI   PO4 1940   5.294  15.742   9.750  0.1900  0.1419  0.2263
  122loPI   GL1 1941   5.230  15.995   9.424  0.0490 -0.1457  0.0891
  122loPI   GL2 1942   5.535  16.026   9.214  0.0867  0.1986  0.0588
  122loPI   C1A 1943   5.017  15.813   9.036 -0.1793  0.0615  0.0811
  122loPI   C2A 1944   4.985  15.675   8.587 -0.4694  0.0250 -0.1732
  122loPI   C3A 1945   5.016  15.351   8.483  0.2035 -0.1521 -0.0564
  122loPI   C4A 1946   4.987  15.220   8.074 -0.0271 -0.2565  0.1439
  122loPI   C5A 1947   4.630  15.160   7.891 -0.1318  0.0113 -0.3711
  122loPI   C6A 1948   4.430  15.286   7.620 -0.0209 -0.0362 -0.1748
  122loPI   C1B 1949   5.414  15.972   8.759  0.0423  0.1347 -0.0720
  122loPI   C2B 1950   5.328  15.985   8.347 -0.1641 -0.0456 -0.1829
  122loPI   C3B 1951   5.225  15.870   8.005 -0.1610  0.1567 -0.0326
  122loPI   C4B 1952   4.892  16.016   7.740 -0.2932 -0.2125 -0.3468
  123loPI    C1 1953   4.917   5.866  10.124  0.2473 -0.1934  0.1059
  123loPI    C2 1954   4.822   6.129  10.410  0.0527 -0.1551  0.0078
  123loPI    C3 1955   4.575   6.073  10.100  0.1581 -0.3553 -0.0412
  123loPI   PO4 1956   5.159   5.953  10.092  0.1606 -0.0980 -0.0363
  123loPI   GL1 1957   5.362   6.082   9.699 -0.0599  0.1397  0.1400
  123loPI   GL2 1958   5.440   6.360   9.794 -0.3134  0.1201 -0.2823
  123loPI   C1A 1959   5.285   6.141   9.274  0.0562 -0.0329  0.0192
  123loPI   C2A 1960   5.385   6.047   8.874 -0.1250 -0.0880 -0.0318
  123loPI   C3A 1961   5.333   6.038   8.540  0.2284 -0.0139  0.2556
  123loPI   C4A 1962   5.288   6.260   8.150  0.1645  0.0402  0.0417
  123loPI   C5A 1963   5.599   6.228   7.747 -0.0328  0.2071 -0.1280
  123loPI   C6A 1964   5.945   6.117   7.904  0.0029  0.1083  0.3722
  123loPI   C1B 1965   5.404   6.612   9.452  0.0392 -0.0746  0.2763
  123loPI   C2B 1966   5.573   6.668   8.969  0.0408 -0.1729 -0.1099
  123loPI   C3B 1967   5.556   6.494   8.512 -0.1574 -0.1718  0.0896
  123loPI   C4B 1968   5.733   6.523   8.208 -0.1715 -0.3324 -0.3357
  124loPI    C1 1969   9.919  10.123   9.611  0.0814 -0.0160 -0.2054
  124loPI    C2 1970  10.316  10.085   9.586  0.1349  0.3274  0.0522
  124loPI    C3 1971  10.129  10.002   9.930 -0.0455 -0.0335 -0.1274
  124loPI   PO4 1972   9.844  10.021   9.386  0.0524  0.0603 -0.1828
  124loPI   GL1 1973  10.053  10.354   9.106  0.1582  0.4157 -0.0046
  124loPI   GL2 1974   9.685  10.260   8.971 -0.0864  0.0585 -0.1985
  124loPI   C1A 1975   9.966  10.240   8.625 -0.1752  0.0720  0.0495
  124loPI   C2A 1976   9.847   9.961   8.250 -0.2242  0.0355  0.1475
  124loPI   C3A 1977   9.871   9.709   7.927  0.0515  0.2469  0.0516
  124loPI   C4A 1978   9.535   9.621   7.681  0.2083 -0.1209  0.0509
  124loPI   C5A 1979   9.180   9.445   7.494 -0.2381  0.4476  0.1226
  124loPI   C6A 1980   8.862   9.117   7.434 -0.5112  0.0537 -0.0606
  124loPI   C1B 1981   9.458  10.230   8.625 -0.2565 -0.4530 -0.1957
  124loPI   C2B 1982   9.378  10.358   8.134  0.1246 -0.0916 -0.1716
  124loPI   C3B 1983   8.925  10.350   7.805  0.0559  0.2538 -0.1074
  124loPI   C4B 1984   8.544  10.438   7.585  0.0346  0.1420 -0.1347
  125loPI    C1 1985  10.118   8.652   9.986  0.0465  0.0315 -0.2152
  125loPI    C2 1986  10.271   8.908  10.252 -0.1192  0.0568 -0.1428
  125loPI    C3 1987  10.324   8.514  10.299 -0.2712  0.0532  0.0087
  125loPI   PO4 1988   9.953   8.734   9.922 -0.2007 -0.1342 -0.2244
  125loPI   GL1 1989   9.697   8.520   9.654  0.1295 -0.0311  0.1750
  125loPI   GL2 1990   9.885   8.282   9.721  0.1012  0.1715  0.3826
  125loPI   C1A 1991   9.688   8.590   9.252  0.0547 -0.1139  0.4254
  125loPI   C2A 1992   9.803   8.640   8.773  0.0383  0.1480 -0.0163
  125loPI   C3A 1993  10.027   8.329   8.513 -0.1220  0.2141  0.2346
  125loPI   C4A 1994  10.152   7.991   8.206 -0.1467  0.1223 -0.0594
  125loPI   C5A 1995  10.034   7.588   8.068 -0.0939 -0.0810  0.4172
  125loPI   C6A 1996  10.281   7.392   7.747 -0.0413 -0.0445  0.0783
  125loPI   C1B 1997  10.083   8.343   9.382  0.2387  0.1691 -0.1513
  125loPI   C2B 1998  10.184   8.073   8.964  0.4005  0.2117  0.1154
  125loPI   C3B 1999  10.338   7.780   8.641 -0.1938  0.0244 -0.1849
  125loPI   C4B 2000  10.145   7.320   8.638  0.1260 -0.0976  0.2463
  126loPI    C1 2001  16.917   4.029  10.486 -0.0787  0.2876 -0.0963
  126loPI    C2 2002  16.685   3.856  10.762  0.2881  0.2095  0.1710
  126loPI    C3 2003  16.570   4.199  10.590 -0.1363  0.0456  0.1153
  126loPI   PO4 2004  17.001   3.854  10.306  0.1167 -0.0055  0.2785
  126loPI   GL1 2005  17.075   3.571   9.957 -0.1029  0.1104  0.1325
  126loPI   GL2 2006  16.697   3.625   9.895 -0.2672 -0.3482  0.0639
  126loPI   C1A 2007  17.054   3.484   9.498 -0.0721 -0.1077 -0.0072
  126loPI   C2A 2008  16.935   3.476   9.043  0.2795  0.0059 -0.0043
  126loPI   C3A 2009  16.966   3.457   8.609 -0.2246  0.0407 -0.1050
  126loPI   C4A 2010  17.313   3.268   8.259 -0.2828 -0.0181 -0.0636
  126loPI   C5A 2011  17.079   2.924   8.007  0.4708 -0.0005  0.2019
  126loPI   C6A 2012  16.971   2.770   7.608 -0.3019  0.4632 -0.1447
  126loPI   C1B 2013  16.585   3.784   9.531  0.2155  0.1083  0.0029
  126loPI   C2B 2014  16.353   3.611   9.200 -0.5106  0.1379 -0.0678
  126loPI   C3B 2015  16.330   3.560   8.808 -0.1998 -0.1107  0.0809
  126loPI   C4B 2016  16.500   3.484   8.483  0.0406 -0.0227 -0.2007
  127loPI    C1 2017   9.514  15.391   9.788  0.0407 -0.2036 -0.0635
  127loPI    C2 2018   9.580  15.113  10.068  0.0301  0.0202  0.1649
  127loPI    C3 2019   9.219  15.283  10.035 -0.0673 -0.2480 -0.2111
  127loPI   PO4 2020   9.837  15.344   9.598 -0.1250 -0.0693 -0.3098
  127loPI   GL1 2021   9.990  15.701   9.399 -0.0865 -0.0810  0.2217
  127loPI   GL2 2022  10.187  15.570   9.222 -0.0483 -0.1767  0.0149
  127loPI   C1A 2023   9.745  15.786   8.964  0.2827 -0.1275  0.2614
  127loPI   C2A 2024   9.753  15.694   8.654  0.2705 -0.0922  0.0003
  127loPI   C3A 2025   9.707  15.752   8.232  0.1715  0.0661  0.0714
  127loPI   C4A 2026   9.640  15.871   7.871 -0.0281  0.3580  0.0863
  127loPI   C5A 2027   9.541  16.077   7.475 -0.0012  0.2632  0.1819
  127loPI   C6A 2028   9.436  15.799   7.138  0.1949 -0.3149  0.0874
  127loPI   C1B 2029  10.247  15.778   8.863 -0.0668  0.0393 -0.0684
  127loPI   C2B 2030  10.181  15.848   8.411 -0.1969  0.2531  0.1885
  127loPI   C3B 2031  10.156  15.908   8.036  0.1816  0.1789 -0.1048
  127loPI   C4B 2032  10.099  15.940   7.649 -0.1382 -0.2000  0.2285
  128loPI    C1 2033   9.489  18.168  10.183 -0.1050 -0.0267  0.1224
  128loPI    C2 2034   9.827  18.220  10.391  0.0975 -0.0050 -0.2048
  128loPI    C3 2035   9.472  18.267  10.570  0.2601 -0.3723  0.2334
  128loPI   PO4 2036   9.626  18.197   9.841 -0.0252 -0.1070  0.1441
  128loPI   GL1 2037   9.851  18.337   9.543 -0.1912  0.3409  0.2605
  128loPI   GL2 2038   9.869  18.718   9.674 -0.0911 -0.0261 -0.0177
  128loPI   C1A 2039   9.912  18.215   9.128  0.0719  0.0703 -0.1952
  128loPI   C2A 2040   9.618  18.073   8.700  0.2025  0.1414 -0.0597
  128loPI   C3A 2041   9.809  18.262   8.350 -0.0073 -0.1240 -0.1234
  128loPI   C4A 2042   9.976  18.197   8.004 -0.1398  0.1265 -0.2295
  128loPI   C5A 2043  10.110  18.096   7.655  0.1276 -0.0242  0.2561
  128loPI   C6A 2044  10.558  18.036   7.443 -0.1057 -0.2462 -0.0830
  128loPI   C1B 2045   9.647  18.720   9.283  0.1266 -0.0130 -0.0297
  128loPI   C2B 2046   9.699  18.654   8.856  0.0823  0.0248  0.0608
  128loPI   C3B 2047   9.772  18.790   8.472 -0.2500  0.3859 -0.0374
  128loPI   C4B 2048   9.624  18.706   8.091  0.2329  0.0250  0.0465
  129loPI    C1 2049  15.122   3.078  10.606  0.0623 -0.0787  0.1363
  129loPI    C2 2050  14.911   2.779  10.443  0.1886 -0.0553 -0.0729
  129loPI    C3 2051  14.972   2.788  10.838  0.0627 -0.2288 -0.0484
  129loPI   PO4 2052  15.394   2.983  10.531  0.0037 -0.2589  0.2381
  129loPI   GL1 2053  15.703   2.855  10.070 -0.1598 -0.4637  0.2304
  129loPI   GL2 2054  15.339   2.758  10.085  0.0067 -0.1340 -0.0392
  129loPI   C1A 2055  15.882   2.844   9.641  0.0279 -0.4044  0.0734
  129loPI   C2A 2056  15.773   2.511   9.270 -0.1674 -0.0309 -0.0274
  129loPI   C3A 2057  15.859   2.227   8.887  0.2558  0.0520 -0.0211
  129loPI   C4A 2058  16.038   2.278   8.408  0.1179  0.1958  0.2178
  129loPI   C5A 2059  15.902   2.118   7.937  0.1904 -0.1528 -0.3181
  129loPI   C6A 2060  16.082   2.257   7.657 -0.2840 -0.0865  0.1614
  129loPI   C1B 2061  15.352   2.912   9.685  0.0935  0.2608 -0.0540
  129loPI   C2B 2062  15.358   2.732   9.360 -0.0423 -0.0068 -0.2440
  129loPI   C3B 2063  15.276   2.529   8.940 -0.1673  0.1326  0.1027
  129loPI   C4B 2064  15.296   2.846   8.575 -0.2951 -0.0584 -0.5725
  130loPI    C1 2065   1.623   5.288  10.316 -0.3734  0.0966  0.0013
  130loPI    C2 2066   1.769   4.972  10.514 -0.0768  0.2853  0.0897
  130loPI    C3 2067   1.684   5.310  10.711 -0.1268  0.3539 -0.0483
  130loPI   PO4 2068   1.479   5.192  10.108 -0.0326 -0.4293 -0.2980
  130loPI   GL1 2069   1.448   5.071   9.711 -0.0536 -0.1145  0.0375
  130loPI   GL2 2070   1.726   5.124   9.641  0.0136  0.1362 -0.0958
  130loPI   C1A 2071   1.430   5.336   9.324  0.2030 -0.0524 -0.1747
  130loPI   C2A 2072   1.442   5.307   8.902  0.0069 -0.1706 -0.1603
  130loPI   C3A 2073   1.350   5.288   8.530  0.3084 -0.0172  0.1139
  130loPI   C4A 2074   1.511   5.314   8.220  0.0989  0.2906  0.0846
  130loPI   C5A 2075   1.286   5.239   7.849 -0.2180 -0.1972 -0.2598
  130loPI   C6A 2076   1.162   5.173   7.472 -0.0211  0.2010  0.3389
  130loPI   C1B 2077   1.712   4.844   9.302  0.2528  0.0530 -0.0384
  130loPI   C2B 2078   1.710   4.694   8.862 -0.0576 -0.0927  0.3825
  130loPI   C3B 2079   1.680   4.727   8.435  0.4132  0.0122  0.0129
  130loPI   C4B 2080   1.754   4.881   8.052  0.1060  0.1568  0.1160
  131loPI    C1 2081   5.262  18.419   9.979 -0.2309 -0.0243 -0.0963
  131loPI    C2 2082   4.904  18.449   9.804 -0.3801  0.1395  0.2281
  131loPI    C3 2083   4.929  18.383  10.198 -0.0504 -0.0858  0.1737
  131loPI   PO4 2084   5.387  18.253   9.809  0.1200  0.1123  0.1324
  131loPI   GL1 2085   5.433  18.262   9.419  0.1387  0.0152 -0.0995
  131loPI   GL2 2086   5.065  18.192   9.363  0.0637  0.0053 -0.0953
  131loPI   C1A 2087   5.430  18.319   8.982  0.1428 -0.1628 -0.4181
  131loPI   C2A 2088   5.190  18.290   8.696  0.0853 -0.3034 -0.0369
  131loPI   C3A 2089   5.223  18.301   8.279  0.0472 -0.3382  0.1796
  131loPI   C4A 2090   5.024  18.005   7.972  0.2621  0.2629 -0.0778
  131loPI   C5A 2091   4.719  18.132   7.730  0.0939  0.0308  0.1533
  131loPI   C6A 2092   4.721  18.349   7.311 -0.1823  0.0776  0.1431
  131loPI   C1B 2093   4.837  18.082   9.042  0.1346  0.2803 -0.0539
  131loPI   C2B 2094   4.745  18.390   8.612 -0.0541 -0.1692  0.0736
  131loPI   C3B 2095   4.788  18.571   8.125  0.0635  0.1519 -0.1161
  131loPI   C4B 2096   5.032  18.788   7.954 -0.1231  0.3632  0.1751
  132loPI    C1 2097   3.542   6.850  10.188 -0.0103 -0.0114  0.0066
  132loPI    C2 2098   3.234   6.661  10.359 -0.1815  0.1728 -0.0936
  132loPI    C3 2099   3.435   6.939  10.563 -0.0447  0.0132 -0.0088
  132loPI   PO4 2100   3.486   6.787   9.918 -0.3457  0.1947  0.3967
  132loPI   GL1 2101   3.699   6.972   9.565  0.4111 -0.4390  0.1318
  132loPI   GL2 2102   3.984   6.847   9.428  0.0653  0.1232 -0.1946
  132loPI   C1A 2103   3.555   6.793   9.075 -0.1394 -0.0584 -0.1206
  132loPI   C2A 2104   3.522   6.791   8.616  0.0437 -0.1831 -0.2171
  132loPI   C3A 2105   3.628   7.040   8.278  0.0256  0.3027 -0.0359
  132loPI   C4A 2106   3.726   7.317   7.992 -0.1303 -0.0509 -0.2527
  132loPI   C5A 2107   4.041   7.582   8.103  0.1989  0.0693  0.0146
  132loPI   C6A 2108   4.431   7.478   8.083 -0.3340 -0.3750 -0.3264
  132loPI   C1B 2109   4.074   6.864   9.126 -0.1556 -0.0089  0.2000
  132loPI   C2B 2110   4.141   6.717   8.658 -0.1010  0.1512  0.1540
  132loPI   C3B 2111   4.276   6.473   8.235  0.1581  0.1994 -0.3201
  132loPI   C4B 2112   4.289   6.386   7.851  0.2071  0.1641  0.2270
  133loPI    C1 2113   6.284  17.792   9.725  0.1896 -0.0368  0.0139
  133loPI    C2 2114   6.670  17.874   9.661  0.2287  0.0410  0.3316
  133loPI    C3 2115   6.537  17.815  10.034 -0.0937  0.1546  0.2379
  133loPI   PO4 2116   6.209  17.675   9.591 -0.0630 -0.0377 -0.0015
  133loPI   GL1 2117   5.776  17.704   9.252  0.0142  0.1268  0.1327
  133loPI   GL2 2118   5.895  17.431   9.333  0.1858  0.0338  0.1703
  133loPI   C1A 2119   5.676  17.527   8.783  0.2349  0.0025 -0.1031
  133loPI   C2A 2120   5.753  17.542   8.338  0.1585  0.0780 -0.0666
  133loPI   C3A 2121   5.934  17.570   7.897  0.1883  0.2630  0.0735
  133loPI   C4A 2122   6.189  17.503   7.507  0.3978 -0.0985 -0.0231
  133loPI   C5A 2123   6.415  17.718   7.235  0.0355 -0.0740 -0.1542
  133loPI   C6A 2124   6.574  18.010   7.111  0.2111  0.0771 -0.1129
  133loPI   C1B 2125   6.103  17.172   9.034  0.0347 -0.1864  0.3157
  133loPI   C2B 2126   6.114  17.271   8.582 -0.1813 -0.1423  0.0471
  133loPI   C3B 2127   5.969  17.139   8.201  0.0073  0.0792  0.0755
  133loPI   C4B 2128   5.682  17.106   7.965  0.1462  0.0543 -0.0599
  134loPI    C1 2129  10.873  13.067   9.973  0.0006  0.2767  0.4218
  134loPI    C2 2130  11.203  13.287  10.024  0.1318  0.1775  0.0351
  134loPI    C3 2131  11.223  12.888  10.043 -0.0022  0.1767  0.1889
  134loPI   PO4 2132  10.766  13.227   9.762 -0.0568 -0.3875 -0.1193
  134loPI   GL1 2133  10.618  13.171   9.336 -0.0340  0.4751  0.0115
  134loPI   GL2 2134  10.338  13.195   9.175 -0.1382 -0.0836 -0.1200
  134loPI   C1A 2135  10.750  12.946   8.939 -0.2328  0.1127 -0.1076
  134loPI   C2A 2136  10.802  13.086   8.578  0.0976  0.0293 -0.0995
  134loPI   C3A 2137  10.524  13.239   8.268 -0.0158 -0.1464 -0.1298
  134loPI   C4A 2138  10.140  13.124   8.079 -0.2248  0.2246  0.5483
  134loPI   C5A 2139   9.992  13.104   7.764 -0.0818 -0.0326  0.0276
  134loPI   C6A 2140   9.880  13.153   7.470 -0.0680 -0.2804  0.0682
  134loPI   C1B 2141  10.321  13.176   8.702  0.1285 -0.0910  0.0114
  134loPI   C2B 2142   9.968  13.072   8.532  0.2654 -0.0253 -0.1207
  134loPI   C3B 2143   9.652  13.140   8.237  0.1841 -0.1525 -0.0960
  134loPI   C4B 2144   9.525  13.121   7.818 -0.2592  0.0127  0.2103
  135loPI    C1 2145   8.652  16.347   9.765  0.0819 -0.1313 -0.0478
  135loPI    C2 2146   8.837  16.378  10.118 -0.0226 -0.0552  0.0006
  135loPI    C3 2147   8.438  16.348  10.103 -0.0390  0.1998 -0.1217
  135loPI   PO4 2148   8.700  16.136   9.709  0.1791  0.3717 -0.0289
  135loPI   GL1 2149   8.762  16.033   9.317 -0.0448 -0.0663 -0.0235
  135loPI   GL2 2150   9.151  16.053   9.339  0.2343  0.1750 -0.0474
  135loPI   C1A 2151   8.800  15.996   8.931 -0.3871  0.1601 -0.0582
  135loPI   C2A 2152   8.906  16.131   8.536  0.2412 -0.0366  0.0129
  135loPI   C3A 2153   8.868  16.154   8.037 -0.1573 -0.0380 -0.1571
  135loPI   C4A 2154   8.542  16.313   7.789  0.1925  0.1555  0.1252
  135loPI   C5A 2155   8.265  16.519   7.594 -0.0052  0.2326  0.0070
  135loPI   C6A 2156   8.117  16.797   7.237  0.0035 -0.0862 -0.1747
  135loPI   C1B 2157   9.384  16.192   9.087 -0.0016 -0.2826 -0.2157
  135loPI   C2B 2158   9.408  16.171   8.667 -0.0886 -0.0415 -0.0864
  135loPI   C3B 2159   9.328  16.209   8.323  0.2148 -0.1741  0.0005
  135loPI   C4B 2160   9.395  16.331   7.906 -0.1240  0.2265 -0.0108
  136loPI    C1 2161  11.467   8.524  10.161  0.0614 -0.1469 -0.0562
  136loPI    C2 2162  11.505   8.196  10.386  0.1194 -0.1459 -0.0643
  136loPI    C3 2163  11.491   8.556  10.559 -0.1917 -0.1678 -0.0377
  136loPI   PO4 2164  11.566   8.492   9.970  0.1793 -0.1619  0.1300
  136loPI   GL1 2165  11.297   8.580   9.483 -0.1811  0.1508  0.1773
  136loPI   GL2 2166  11.393   8.951   9.545  0.0596  0.0561  0.0337
  136loPI   C1A 2167  11.083   8.614   9.165  0.0674  0.1262 -0.1145
  136loPI   C2A 2168  10.967   8.489   8.817  0.1903 -0.0721  0.0403
  136loPI   C3A 2169  10.878   8.671   8.397  0.0447 -0.1312 -0.1067
  136loPI   C4A 2170  10.741   8.466   8.041 -0.2056 -0.1617 -0.1350
  136loPI   C5A 2171  10.632   8.086   7.902 -0.0954 -0.0633  0.0511
  136loPI   C6A 2172  10.676   7.684   7.760  0.3218  0.0930  0.0091
  136loPI   C1B 2173  11.231   9.121   9.134 -0.1533  0.0280  0.2745
  136loPI   C2B 2174  11.114   8.976   8.721 -0.0571  0.1809 -0.0293
  136loPI   C3B 2175  11.199   9.182   8.309  0.0555 -0.2799  0.0887
  136loPI   C4B 2176  11.158   9.405   7.958  0.1448  0.0671  0.2398
  137loPI    C1 2177  17.467   4.830  10.318  0.0463  0.0129  0.2622
  137loPI    C2 2178  17.323   4.966  10.666 -0.0521 -0.0457  0.2448
  137loPI    C3 2179  17.545   4.634  10.658 -0.1368 -0.1026  0.2391
  137loPI   PO4 2180  17.547   4.989  10.226 -0.0488 -0.0274 -0.0046
  137loPI   GL1 2181  17.504   5.164   9.882 -0.2929  0.2324 -0.0927
  137loPI   GL2 2182  17.144   5.048   9.808 -0.1089 -0.1718  0.0264
  137loPI   C1A 2183  17.573   4.969   9.402 -0.1607  0.1405  0.1010
  137loPI   C2A 2184  17.476   4.879   8.899 -0.1547  0.3711 -0.0500
  137loPI   C3A 2185  17.533   4.696   8.476  0.0607  0.4351  0.0405
  137loPI   C4A 2186  17.787   4.765   8.132  0.3085 -0.3315  0.1248
  137loPI   C5A 2187  18.125   4.689   7.978  0.0746 -0.0942  0.1731
  137loPI   C6A 2188  18.500   4.831   7.743 -0.1635  0.2979  0.0903
  137loPI   C1B 2189  16.955   4.969   9.424 -0.2443 -0.2917 -0.2206
  137loPI   C2B 2190  16.945   4.957   8.933 -0.0955 -0.0292 -0.2088
  137loPI   C3B 2191  16.725   5.004   8.533  0.2719  0.3056  0.1322
  137loPI   C4B 2192  16.826   4.966   8.089 -0.0644  0.0721 -0.1391
  138loPI    C1 2193   8.616  16.868   9.893  0.0131 -0.1471 -0.2094
  138loPI    C2 2194   8.988  16.755   9.799  0.0349 -0.0965 -0.1843
  138loPI    C3 2195   8.925  17.104   9.984 -0.0146 -0.1582 -0.0835
  138loPI   PO4 2196   8.477  16.811   9.749 -0.0099  0.0774  0.0547
  138loPI   GL1 2197   8.385  16.506   9.411 -0.2468 -0.2577  0.2328
  138loPI   GL2 2198   8.231  16.664   9.235 -0.1114  0.1076 -0.2846
  138loPI   C1A 2199   8.577  16.428   9.018  0.3041 -0.0663 -0.1109
  138loPI   C2A 2200   8.559  16.484   8.511 -0.0263  0.0237 -0.0779
  138loPI   C3A 2201   8.609  16.536   8.196  0.0301 -0.0360 -0.0951
  138loPI   C4A 2202   8.843  16.691   7.881  0.4808 -0.2268  0.1663
  138loPI   C5A 2203   9.013  16.707   7.510  0.2374  0.2222 -0.0393
  138loPI   C6A 2204   9.414  16.592   7.491  0.0643 -0.0411  0.0317
  138loPI   C1B 2205   8.147  16.599   8.858 -0.0185 -0.0921 -0.3545
  138loPI   C2B 2206   8.047  16.574   8.468  0.3951 -0.0875 -0.2448
  138loPI   C3B 2207   8.054  16.603   8.028  0.4055  0.2480 -0.1611
  138loPI   C4B 2208   7.965  16.861   7.736  0.0182 -0.0836  0.3495
  139loPI    C1 2209   8.118  14.092  10.087 -0.1018 -0.0197  0.1530
  139loPI    C2 2210   8.044  14.435   9.894 -0.0613 -0.1696 -0.1335
  139loPI    C3 2211   8.406  14.367  10.049 -0.1570  0.0442  0.1933
  139loPI   PO4 2212   8.099  13.854   9.827 -0.1829 -0.3609 -0.0305
  139loPI   GL1 2213   7.925  13.886   9.580 -0.3856 -0.1406  0.3678
  139loPI   GL2 2214   7.696  13.795   9.453  0.0905 -0.2346 -0.2231
  139loPI   C1A 2215   8.190  13.918   9.136 -0.1294  0.0355  0.0681
  139loPI   C2A 2216   8.081  13.757   8.685  0.1743 -0.0512 -0.0528
  139loPI   C3A 2217   8.216  13.905   8.389  0.0661 -0.0613  0.0330
  139loPI   C4A 2218   8.193  14.116   7.837 -0.1085  0.1488  0.3102
  139loPI   C5A 2219   8.123  14.329   7.582  0.0575 -0.1951  0.0180
  139loPI   C6A 2220   7.851  14.420   7.248  0.4493  0.1212  0.2769
  139loPI   C1B 2221   7.672  13.697   9.117  0.2246 -0.1811  0.3846
  139loPI   C2B 2222   7.483  13.732   8.774  0.2100 -0.0125 -0.0411
  139loPI   C3B 2223   7.457  14.009   8.448 -0.1816  0.3123  0.2225
  139loPI   C4B 2224   7.150  14.121   8.399 -0.0455 -0.1139  0.0795
  140loPI    C1 2225   1.069   2.793  10.129 -0.0035 -0.1679 -0.0281
  140loPI    C2 2226   0.935   2.786  10.506  0.0774  0.1549  0.0090
  140loPI    C3 2227   1.288   2.955  10.421  0.2232 -0.2255 -0.1639
  140loPI   PO4 2228   0.883   2.921  10.001 -0.0209 -0.1440  0.1884
  140loPI   GL1 2229   0.729   2.711   9.612 -0.0128 -0.1445  0.1099
  140loPI   GL2 2230   0.455   2.615   9.773  0.2826 -0.5135  0.0295
  140loPI   C1A 2231   0.666   2.597   9.187 -0.3515  0.1831  0.1284
  140loPI   C2A 2232   0.685   2.554   8.731  0.1673  0.2123  0.1570
  140loPI   C3A 2233   0.491   2.313   8.356 -0.1233  0.0090  0.0647
  140loPI   C4A 2234   0.677   2.125   7.969 -0.0435 -0.0071  0.0247
  140loPI   C5A 2235   0.970   1.723   8.028  0.0286 -0.1181  0.0637
  140loPI   C6A 2236   1.366   1.693   7.966  0.1452  0.1491 -0.0445
  140loPI   C1B 2237   0.231   2.772   9.445 -0.0410  0.1771  0.1729
  140loPI   C2B 2238   0.214   2.820   8.963 -0.1101  0.1359 -0.1095
  140loPI   C3B 2239   0.256   2.715   8.609  0.0909  0.3232 -0.1231
  140loPI   C4B 2240   0.178   2.666   8.228  0.0276 -0.1860  0.0061
  141loPI    C1 2241  11.103  17.557   9.950  0.1455 -0.3184 -0.1156
  141loPI    C2 2242  10.788  17.339   9.835 -0.0377 -0.0742 -0.0862
  141loPI    C3 2243  11.046  17.192  10.103 -0.1097 -0.2871 -0.1318
  141loPI   PO4 2244  11.456  17.638   9.798  0.0524 -0.3067 -0.1545
  141loPI   GL1 2245  11.513  17.898   9.483 -0.0569 -0.0702 -0.0205
  141loPI   GL2 2246  11.244  17.900   9.344 -0.1082 -0.1974  0.0579
  141loPI   C1A 2247  11.794  18.051   9.223 -0.0821  0.1039  0.1361
  141loPI   C2A 2248  11.912  18.006   8.863  0.3864  0.0094  0.1446
  141loPI   C3A 2249  11.758  18.022   8.358  0.1638  0.0589 -0.0890
  141loPI   C4A 2250  11.973  18.005   7.996  0.3483  0.2083  0.2670
  141loPI   C5A 2251  12.224  18.075   7.738 -0.1065 -0.1557  0.1014
  141loPI   C6A 2252  12.380  18.098   7.287  0.0455 -0.1333 -0.0983
  141loPI   C1B 2253  11.424  18.020   8.948 -0.1771 -0.2022 -0.2928
  141loPI   C2B 2254  11.302  18.160   8.505 -0.1428 -0.2815 -0.1301
  141loPI   C3B 2255  10.995  18.271   8.235  0.0789 -0.2391  0.2276
  141loPI   C4B 2256  11.006  18.330   7.806  0.2393 -0.3532 -0.4633
  142loPI    C1 2257   2.536   7.977  10.521 -0.2814  0.1459  0.0387
  142loPI    C2 2258   2.888   7.998  10.711 -0.1060 -0.3881 -0.2092
  142loPI    C3 2259   2.551   8.094  10.904  0.1533 -0.0384  0.0837
  142loPI   PO4 2260   2.518   8.146  10.259  0.0196  0.0112 -0.0334
  142loPI   GL1 2261   2.337   8.396  10.074  0.1686  0.1938  0.1183
  142loPI   GL2 2262   2.124   8.277   9.920  0.3958 -0.2995  0.2008
  142loPI   C1A 2263   2.564   8.276   9.654  0.2667 -0.2474  0.1803
  142loPI   C2A 2264   2.692   8.296   9.219  0.0967 -0.1074 -0.0400
  142loPI   C3A 2265   2.591   8.286   8.868 -0.0839 -0.3163  0.3124
  142loPI   C4A 2266   2.428   8.343   8.477  0.2953 -0.0239  0.0146
  142loPI   C5A 2267   1.987   8.212   8.374 -0.0223  0.0745  0.3049
  142loPI   C6A 2268   1.753   8.111   7.998 -0.0380 -0.3740 -0.0721
  142loPI   C1B 2269   2.114   8.550   9.597 -0.1354  0.0454 -0.2046
  142loPI   C2B 2270   2.171   8.341   9.197 -0.2672  0.3209  0.4477
  142loPI   C3B 2271   2.069   8.204   8.852 -0.3123 -0.0018 -0.0297
  142loPI   C4B 2272   2.172   7.819   8.759  0.1314 -0.0093  0.1946
  143loPI    C1 2273   6.356   9.567  10.482 -0.0855 -0.2102  0.1818
  143loPI    C2 2274   6.229   9.860  10.240 -0.0349 -0.1881  0.1822
  143loPI    C3 2275   6.432   9.949  10.574 -0.0239 -0.2233  0.1849
  143loPI   PO4 2276   6.573   9.404  10.305  0.2364  0.0403  0.0295
  143loPI   GL1 2277   6.922   9.362   9.948  0.1138  0.0026  0.1257
  143loPI   GL2 2278   7.075   9.631   9.863  0.4769 -0.4728 -0.0751
  143loPI   C1A 2279   6.962   9.272   9.434  0.0460 -0.1493 -0.1672
  143loPI   C2A 2280   7.036   9.207   8.979  0.2351 -0.1628  0.3252
  143loPI   C3A 2281   7.085   9.015   8.514  0.0894  0.1660  0.1280
  143loPI   C4A 2282   7.048   9.043   8.039  0.2510  0.3002 -0.3920
  143loPI   C5A 2283   7.191   8.916   7.743 -0.1362  0.1130 -0.1274
  143loPI   C6A 2284   7.443   8.604   7.541 -0.0231  0.0192 -0.2261
  143loPI   C1B 2285   6.774   9.739   9.489  0.1680 -0.0941  0.0070
  143loPI   C2B 2286   6.767   9.777   9.124  0.2671 -0.1080 -0.0672
  143loPI   C3B 2287   6.692   9.761   8.631 -0.0856 -0.1435  0.3368
  143loPI   C4B 2288   6.631   9.518   8.191 -0.0901 -0.2733 -0.1568
  144loPI    C1 2289   8.263  11.869  10.253  0.3054 -0.0122  0.1240
  144loPI    C2 2290   7.960  12.072  10.419  0.1553  0.0112 -0.1720
  144loPI    C3 2291   8.234  11.896  10.651 -0.1073 -0.0458  0.1010
  144loPI   PO4 2292   8.436  12.075  10.125 -0.0800 -0.0421 -0.1364
  144loPI   GL1 2293   8.554  12.510  10.036 -0.0167 -0.1449 -0.0028
  144loPI   GL2 2294   8.435  12.740   9.869 -0.2849  0.2009  0.0088
  144loPI   C1A 2295   8.816  12.431   9.655  0.3292 -0.0571  0.1323
  144loPI   C2A 2296   8.988  12.548   9.230 -0.0091  0.1126  0.0392
  144loPI   C3A 2297   8.954  12.538   8.722 -0.1253  0.2018 -0.2332
  144loPI   C4A 2298   9.091  12.416   8.355 -0.1391 -0.2211  0.0774
  144loPI   C5A 2299   8.898  12.458   7.890  0.1266  0.1741  0.2345
  144loPI   C6A 2300   8.513  12.538   7.853 -0.2176 -0.0027  0.2462
  144loPI   C1B 2301   8.323  12.457   9.567 -0.0922 -0.3418 -0.3076
  144loPI   C2B 2302   8.171  12.417   9.228 -0.0085 -0.0969  0.0260
  144loPI   C3B 2303   8.033  12.455   8.785  0.0273  0.0175 -0.1325
  144loPI   C4B 2304   7.947  12.347   8.391 -0.0732  0.2361 -0.1018
  145loPI    C1 2305   5.354  16.261   9.912 -0.0762 -0.0414 -0.0815
  145loPI    C2 2306   5.643  16.078   9.704  0.0032 -0.0902  0.0705
  145loPI    C3 2307   5.605  16.010  10.096 -0.1821 -0.0430  0.0617
  145loPI   PO4 2308   5.324  16.417   9.837 -0.0267 -0.0025 -0.2193
  145loPI   GL1 2309   5.017  16.480   9.547 -0.2228  0.2924  0.2126
  145loPI   GL2 2310   5.318  16.480   9.333  0.1524  0.0228  0.0011
  145loPI   C1A 2311   4.909  16.330   9.094 -0.1927  0.0191  0.1152
  145loPI   C2A 2312   4.903  16.289   8.634  0.1021  0.2173 -0.0559
  145loPI   C3A 2313   4.765  16.108   8.278 -0.4401 -0.0166 -0.2595
  145loPI   C4A 2314   4.915  16.434   7.983  0.0929  0.0135  0.1686
  145loPI   C5A 2315   5.209  16.437   7.719 -0.1500 -0.0521  0.2230
  145loPI   C6A 2316   5.279  16.037   7.455  0.4783 -0.1941  0.0565
  145loPI   C1B 2317   5.360  16.534   8.855  0.1784  0.0383  0.1266
  145loPI   C2B 2318   5.306  16.558   8.469 -0.1794  0.0137 -0.2198
  145loPI   C3B 2319   5.303  16.801   8.100 -0.0295  0.2336 -0.0825
  145loPI   C4B 2320   4.966  16.931   7.845  0.0562  0.2918 -0.0536
  146loPI    C1 2321   5.305   2.518  10.470  0.1997  0.1015  0.0890
  146loPI    C2 2322   5.318   2.827  10.724 -0.2975  0.0573  0.1791
  146loPI    C3 2323   5.025   2.557  10.753 -0.1137 -0.1883 -0.1732
  146loPI   PO4 2324   5.541   2.526  10.380  0.0378 -0.0229  0.0329
  146loPI   GL1 2325   5.763   2.455  10.066 -0.1866 -0.1400 -0.0715
  146loPI   GL2 2326   6.087   2.583   9.935 -0.2634  0.0776  0.2649
  146loPI   C1A 2327   5.591   2.421   9.624  0.2490  0.1778 -0.1082
  146loPI   C2A 2328   5.640   2.600   9.299 -0.0780 -0.0194  0.3337
  146loPI   C3A 2329   5.711   2.959   8.918 -0.0630  0.2713  0.2140
  146loPI   C4A 2330   5.544   3.136   8.571  0.0716 -0.1294 -0.3193
  146loPI   C5A 2331   5.410   3.103   8.148  0.1217 -0.0772 -0.0425
  146loPI   C6A 2332   5.089   2.829   7.882  0.0554 -0.1198 -0.0299
  146loPI   C1B 2333   6.442   2.611   9.641  0.2261 -0.2561  0.0560
  146loPI   C2B 2334   6.677   2.823   9.328  0.1747 -0.1418  0.3777
  146loPI   C3B 2335   6.728   3.038   8.897 -0.1258 -0.1425 -0.1555
  146loPI   C4B 2336   6.683   3.422   8.787  0.1547  0.1141  0.1410
  147loPI    C1 2337  13.510   1.833  10.435 -0.1795 -0.0836  0.1666
  147loPI    C2 2338  13.902   1.912  10.427 -0.1447 -0.2572  0.1271
  147loPI    C3 2339  13.659   2.131  10.656 -0.1077  0.2070 -0.2612
  147loPI   PO4 2340  13.435   1.909  10.156  0.0699  0.2359  0.0788
  147loPI   GL1 2341  13.533   1.880   9.769 -0.6073 -0.1173 -0.0043
  147loPI   GL2 2342  13.688   2.147   9.472  0.0407  0.3091 -0.3361
  147loPI   C1A 2343  13.933   1.696   9.453 -0.1256  0.1148  0.1884
  147loPI   C2A 2344  14.180   1.847   9.144 -0.1088 -0.2585  0.0136
  147loPI   C3A 2345  14.294   1.717   8.736 -0.2170 -0.1018 -0.0245
  147loPI   C4A 2346  14.226   1.916   8.446  0.1605  0.0519 -0.0117
  147loPI   C5A 2347  14.192   2.085   7.996  0.0499  0.1780 -0.0570
  147loPI   C6A 2348  14.227   2.332   7.689 -0.2427 -0.0431  0.0365
  147loPI   C1B 2349  13.654   2.058   9.049  0.0098 -0.1819  0.2124
  147loPI   C2B 2350  13.610   2.040   8.630  0.1223 -0.3344 -0.1827
  147loPI   C3B 2351  13.575   1.797   8.277 -0.1005 -0.2048 -0.0427
  147loPI   C4B 2352  13.938   1.651   8.162 -0.1120  0.0147 -0.0671
  148loPI    C1 2353  14.471  15.274   9.946 -0.0603 -0.1810  0.1033
  148loPI    C2 2354  14.559  15.123  10.305 -0.2819 -0.2100  0.1471
  148loPI    C3 2355  14.231  15.348  10.258 -0.0118  0.1761  0.0611
  148loPI   PO4 2356  14.746  15.280   9.834 -0.1310  0.1687 -0.1424
  148loPI   GL1 2357  15.212  15.434   9.708 -0.1074 -0.1871 -0.0015
  148loPI   GL2 2358  15.480  15.301   9.819 -0.0222 -0.1832 -0.0552
  148loPI   C1A 2359  15.435  15.325   9.238 -0.2290  0.0903  0.1612
  148loPI   C2A 2360  15.324  15.152   8.790  0.0342 -0.2333  0.0883
  148loPI   C3A 2361  15.349  15.148   8.361 -0.5200 -0.2013 -0.0327
  148loPI   C4A 2362  15.189  15.028   7.967 -0.0515  0.1054  0.1757
  148loPI   C5A 2363  14.819  15.037   7.758 -0.3654 -0.2210  0.1344
  148loPI   C6A 2364  14.676  14.726   7.605 -0.0498  0.1119  0.3278
  148loPI   C1B 2365  15.759  15.047   9.541  0.0767  0.0922  0.1933
  148loPI   C2B 2366  15.565  14.822   9.169  0.0451  0.0040  0.2549
  148loPI   C3B 2367  15.410  14.687   8.765  0.3658  0.1553 -0.2689
  148loPI   C4B 2368  15.371  14.637   8.382 -0.1924 -0.3308 -0.0308
  149loPI    C1 2369  17.720   0.274  10.804 -0.2065  0.1442  0.0028
  149loPI    C2 2370  17.700   0.035  10.485  0.0818  0.3419 -0.1679
  149loPI    C3 2371  17.423   0.008  10.772  0.0706 -0.1456 -0.2160
  149loPI   PO4 2372  17.747   0.491  10.611 -0.4495  0.0385 -0.1267
  149loPI   GL1 2373  17.819   0.640  10.164  0.0046 -0.1594 -0.0108
  149loPI   GL2 2374  17.663   0.497  10.123 -0.0264 -0.0176 -0.1481
  149loPI   C1A 2375  17.909   0.826   9.860 -0.0767  0.0529 -0.1302
  149loPI   C2A 2376  18.004   0.987   9.451 -0.1950  0.5305  0.0848
  149loPI   C3A 2377  17.776   0.948   9.081 -0.0661 -0.0551  0.0286
  149loPI   C4A 2378  17.890   1.048   8.648  0.1876 -0.1075 -0.1900
  149loPI   C5A 2379  17.902   1.445   8.321 -0.0980  0.2505 -0.0633
  149loPI   C6A 2380  17.906   1.699   7.835  0.4219  0.0345 -0.0343
  149loPI   C1B 2381  17.502   0.605   9.653 -0.1231  0.1242  0.0204
  149loPI   C2B 2382  17.574   0.506   9.179 -0.1514  0.0933 -0.0753
  149loPI   C3B 2383  17.679   0.562   8.780 -0.2656 -0.2063  0.3011
  149loPI   C4B 2384  17.782   0.405   8.264  0.0878 -0.1130 -0.1765
  150loPI    C1 2385   0.381   4.439  10.292  0.0773 -0.1101 -0.0962
  150loPI    C2 2386   0.061   4.606  10.465  0.1335 -0.1259  0.0240
  150loPI    C3 2387   0.137   4.217  10.519  0.1117 -0.1473 -0.0956
  150loPI   PO4 2388   0.334   4.579  10.018  0.1785 -0.0915 -0.0317
  150loPI   GL1 2389   0.284   4.421   9.579  0.1119 -0.0567  0.1983
  150loPI   GL2 2390   0.606   4.235   9.493 -0.2751 -0.0901  0.0197
  150loPI   C1A 2391   0.218   4.497   9.179 -0.1287  0.0736  0.1323
  150loPI   C2A 2392  -0.031   4.412   8.831  0.0345  0.4140  0.1059
  150loPI   C3A 2393  -0.144   4.192   8.628  0.2545 -0.1791  0.0578
  150loPI   C4A 2394  -0.307   4.083   8.226  0.2091  0.0168 -0.0649
  150loPI   C5A 2395  -0.537   4.201   7.936  0.3033  0.3394 -0.0123
  150loPI   C6A 2396  -0.709   4.437   7.595 -0.0119  0.1551 -0.0592
  150loPI   C1B 2397   0.588   4.161   9.074  0.1083  0.1660 -0.0821
  150loPI   C2B 2398   0.432   4.190   8.614  0.0970  0.1046 -0.1801
  150loPI   C3B 2399   0.518   4.209   8.160 -0.0339 -0.3467  0.2608
  150loPI   C4B 2400   0.852   4.399   7.928  0.1764  0.1439 -0.0908
  151loPI    C1 2401  16.018  12.411   9.921 -0.1607 -0.2096  0.1257
  151loPI    C2 2402  16.139  12.586  10.260  0.1128 -0.0309 -0.0605
  151loPI    C3 2403  15.793  12.385  10.251 -0.0563  0.2383  0.2383
  151loPI   PO4 2404  16.066  12.641   9.740 -0.1337 -0.0201  0.2162
  151loPI   GL1 2405  16.180  12.737   9.387 -0.0247  0.0310  0.1692
  151loPI   GL2 2406  16.174  13.009   9.190  0.0247  0.0774  0.1657
  151loPI   C1A 2407  16.324  12.581   8.966  0.2534 -0.2325 -0.1483
  151loPI   C2A 2408  16.669  12.557   8.848 -0.2633  0.1150  0.0616
  151loPI   C3A 2409  16.551  12.485   8.415  0.1065 -0.1656 -0.0499
  151loPI   C4A 2410  16.403  12.698   8.146 -0.1861 -0.0325  0.0138
  151loPI   C5A 2411  16.486  13.078   7.885 -0.0154  0.1245 -0.1379
  151loPI   C6A 2412  16.440  13.341   7.676  0.1534  0.0162  0.3565
  151loPI   C1B 2413  16.449  13.013   8.877 -0.0721 -0.1862  0.1894
  151loPI   C2B 2414  16.692  12.935   8.483  0.0869  0.0243 -0.0623
  151loPI   C3B 2415  16.986  13.068   8.134 -0.0149 -0.1907  0.1025
  151loPI   C4B 2416  17.361  12.851   7.987 -0.1844  0.0184  0.0799
  152loPI    C1 2417  11.580  11.908  10.078 -0.0742  0.0064 -0.0121
  152loPI    C2 2418  11.541  11.517  10.003 -0.1632 -0.0185  0.1596
  152loPI    C3 2419  11.525  11.651  10.380  0.3239  0.0986  0.1448
  152loPI   PO4 2420  11.497  12.031   9.823  0.0379  0.0448 -0.3132
  152loPI   GL1 2421  11.688  12.241   9.442  0.1191  0.0811 -0.2768
  152loPI   GL2 2422  11.996  12.062   9.494 -0.1059 -0.0625  0.0441
  152loPI   C1A 2423  11.594  12.267   9.025  0.0332  0.1808  0.0349
  152loPI   C2A 2424  11.437  12.375   8.607 -0.1287  0.1432  0.0188
  152loPI   C3A 2425  11.420  12.445   8.122  0.0456 -0.1192 -0.0215
  152loPI   C4A 2426  11.284  12.679   7.828 -0.1458 -0.0243  0.0510
  152loPI   C5A 2427  11.138  12.925   7.602 -0.3806  0.0852 -0.3543
  152loPI   C6A 2428  10.979  13.338   7.658 -0.1738  0.1555  0.1318
  152loPI   C1B 2429  12.000  12.046   9.018 -0.0015 -0.0662  0.2899
  152loPI   C2B 2430  11.884  12.140   8.607  0.0736 -0.0381 -0.1349
  152loPI   C3B 2431  11.954  12.252   8.151  0.0166 -0.1204  0.2094
  152loPI   C4B 2432  11.690  12.373   7.708  0.2261  0.2957 -0.3018
  153loPI    C1 2433  15.089   3.930  10.482 -0.0170 -0.0638  0.1044
  153loPI    C2 2434  14.849   4.178  10.278  0.0229 -0.2661 -0.1952
  153loPI    C3 2435  14.741   4.048  10.641 -0.0868  0.0351 -0.1167
  153loPI   PO4 2436  15.204   3.824  10.192  0.0064  0.0549  0.2117
  153loPI   GL1 2437  15.481   3.939   9.955 -0.0215 -0.0589  0.2532
  153loPI   GL2 2438  15.716   3.889   9.898 -0.3229 -0.0319  0.0355
  153loPI   C1A 2439  15.092   4.214   9.752  0.1253  0.0612 -0.1023
  153loPI   C2A 2440  14.970   4.340   9.316 -0.0538  0.1470  0.0404
  153loPI   C3A 2441  15.109   4.423   8.905 -0.1099  0.0646  0.1876
  153loPI   C4A 2442  15.340   4.302   8.562  0.0909 -0.0634 -0.1509
  153loPI   C5A 2443  15.714   4.253   8.293  0.1190  0.2091  0.0760
  153loPI   C6A 2444  15.934   3.956   8.148 -0.3019  0.3371 -0.3178
  153loPI   C1B 2445  15.713   3.699   9.390  0.0549 -0.1945  0.0210
  153loPI   C2B 2446  15.634   3.554   8.952 -0.0172 -0.1509 -0.1692
  153loPI   C3B 2447  15.502   3.772   8.447 -0.1234 -0.2767  0.1219
  153loPI   C4B 2448  15.316   4.051   8.076  0.2704 -0.1038  0.2578
  154loPI    C1 2449   8.073   6.663   9.920 -0.0326  0.0732 -0.2355
  154loPI    C2 2450   8.279   6.478  10.208 -0.3627 -0.2091 -0.1740
  154loPI    C3 2451   8.336   6.378   9.825  0.1085  0.1969 -0.2209
  154loPI   PO4 2452   7.942   6.809   9.917 -0.1947 -0.0642  0.0480
  154loPI   GL1 2453   7.825   7.060   9.653 -0.0170 -0.0810 -0.0400
  154loPI   GL2 2454   8.049   7.264   9.665 -0.0979  0.0152 -0.4186
  154loPI   C1A 2455   7.491   7.020   9.353 -0.0706 -0.3570 -0.1409
  154loPI   C2A 2456   7.457   7.238   9.035 -0.0420  0.1535 -0.4155
  154loPI   C3A 2457   7.315   7.533   8.708  0.1078  0.0339 -0.0302
  154loPI   C4A 2458   7.266   7.631   8.289  0.1124 -0.0670  0.2012
  154loPI   C5A 2459   6.893   7.786   8.124  0.2714 -0.0660  0.0860
  154loPI   C6A 2460   6.454   7.738   8.129 -0.0533  0.1767  0.0001
  154loPI   C1B 2461   7.915   7.304   9.240 -0.0121  0.0787 -0.1176
  154loPI   C2B 2462   7.868   7.207   8.742 -0.3326  0.1628  0.1573
  154loPI   C3B 2463   7.844   7.180   8.320  0.2931 -0.1840  0.0701
  154loPI   C4B 2464   7.692   7.476   8.035 -0.0204  0.1018  0.0992
  155loPI    C1 2465   0.586  18.508   9.960  0.4927 -0.1762  0.0443
  155loPI    C2 2466   0.249  18.455  10.169  0.2653  0.1838 -0.2190
  155loPI    C3 2467   0.599  18.492  10.360  0.1474 -0.0989  0.0615
  155loPI   PO4 2468   0.620  18.749   9.811  0.1927  0.0952  0.0378
  155loPI   GL1 2469   0.768  18.681   9.466 -0.3316 -0.4748  0.0147
  155loPI   GL2 2470   0.618  18.392   9.452 -0.0572 -0.0380 -0.1426
  155loPI   C1A 2471   0.642  18.753   9.036  0.2339  0.1087  0.3821
  155loPI   C2A 2472   0.418  18.659   8.631 -0.2716  0.0742 -0.2413
  155loPI   C3A 2473   0.328  18.426   8.335 -0.2718 -0.2846  0.0870
  155loPI   C4A 2474   0.102  18.031   8.253 -0.0601 -0.2138  0.1250
  155loPI   C5A 2475  -0.173  17.686   8.161 -0.2462  0.1186  0.0047
  155loPI   C6A 2476  -0.323  17.259   7.961  0.2904  0.1570 -0.1889
  155loPI   C1B 2477   0.338  18.320   9.089 -0.0507 -0.1421 -0.2570
  155loPI   C2B 2478   0.183  18.046   8.745 -0.2042 -0.0819 -0.1632
  155loPI   C3B 2479  -0.198  17.895   8.619  0.0369 -0.2490 -0.0936
  155loPI   C4B 2480  -0.490  18.137   8.624  0.0143 -0.0841  0.1983
  156loPI    C1 2481  13.247  13.473   9.849  0.0270  0.2451 -0.2038
  156loPI    C2 2482  12.999  13.787   9.833 -0.0543  0.1974  0.0723
  156loPI    C3 2483  12.916  13.478  10.073  0.1887  0.1062  0.0420
  156loPI   PO4 2484  13.446  13.522   9.690  0.1825  0.1560 -0.3277
  156loPI   GL1 2485  13.427  13.537   9.260 -0.3285 -0.1267 -0.1021
  156loPI   GL2 2486  13.263  13.174   9.323  0.0203  0.1960 -0.3915
  156loPI   C1A 2487  13.473  13.501   8.742  0.0820 -0.1151  0.1344
  156loPI   C2A 2488  13.420  13.620   8.281  0.2388  0.0712 -0.2059
  156loPI   C3A 2489  13.228  13.597   7.938 -0.4501 -0.2279 -0.1632
  156loPI   C4A 2490  13.042  13.671   7.577  0.3965 -0.2171 -0.1916
  156loPI   C5A 2491  12.633  13.444   7.439  0.1341 -0.0416 -0.0024
  156loPI   C6A 2492  12.294  13.534   7.160  0.3400 -0.0951 -0.1233
  156loPI   C1B 2493  13.610  12.970   9.028 -0.0919 -0.0135  0.1393
  156loPI   C2B 2494  13.990  12.939   8.797  0.0874 -0.2097  0.2933
  156loPI   C3B 2495  14.035  12.839   8.281  0.1015 -0.4048  0.0704
  156loPI   C4B 2496  14.060  12.589   7.923  0.1493 -0.0905  0.1588
  157loPI    C1 2497   3.997   0.416  10.179 -0.0251  0.1221 -0.2674
  157loPI    C2 2498   3.830   0.647  10.460 -0.0707  0.0486 -0.2337
  157loPI    C3 2499   3.608   0.378  10.265  0.0253 -0.1048 -0.1332
  157loPI   PO4 2500   4.160   0.601   9.980  0.0830  0.0445  0.0926
  157loPI   GL1 2501   4.368   0.574   9.598 -0.1743 -0.1962  0.0504
  157loPI   GL2 2502   4.696   0.340   9.515 -0.2347  0.1241  0.0303
  157loPI   C1A 2503   4.288   0.811   9.309  0.1289  0.3827 -0.1299
  157loPI   C2A 2504   4.340   1.045   9.017  0.1097  0.2348  0.2440
  157loPI   C3A 2505   4.321   1.007   8.599 -0.1216 -0.3100  0.1603
  157loPI   C4A 2506   4.364   1.011   8.116 -0.3032  0.0306  0.1518
  157loPI   C5A 2507   4.441   1.016   7.641  0.2810 -0.0797  0.2452
  157loPI   C6A 2508   4.420   1.260   7.255 -0.2207  0.1896 -0.2120
  157loPI   C1B 2509   4.399   0.318   9.182  0.0241 -0.3323 -0.0379
  157loPI   C2B 2510   4.306   0.367   8.813 -0.4613  0.1008 -0.3299
  157loPI   C3B 2511   4.124   0.553   8.512  0.3485 -0.2475  0.0852
  157loPI   C4B 2512   3.963   0.694   8.195  0.2439 -0.1041 -0.0204
  158loPI    C1 2513   4.457   7.035   9.881 -0.1082 -0.0731  0.0401
  158loPI    C2 2514   4.749   6.777   9.794  0.0305  0.0651  0.0913
  158loPI    C3 2515   4.785   7.020  10.110 -0.2475 -0.0848  0.2414
  158loPI   PO4 2516   4.345   7.163   9.630 -0.0205  0.0675 -0.1571
  158loPI   GL1 2517   4.481   7.171   9.225 -0.4118  0.1903 -0.1126
  158loPI   GL2 2518   4.507   6.772   9.351 -0.1268  0.0871  0.1108
  158loPI   C1A 2519   4.548   6.923   8.880  0.0971  0.2775  0.1161
  158loPI   C2A 2520   4.554   6.833   8.483 -0.3931  0.2512 -0.0751
  158loPI   C3A 2521   4.593   6.764   7.995 -0.0986 -0.0353 -0.1465
  158loPI   C4A 2522   4.390   7.068   7.823 -0.1991  0.2647 -0.1256
  158loPI   C5A 2523   4.067   7.292   7.627  0.0961 -0.1035 -0.3375
  158loPI   C6A 2524   3.750   7.371   7.404 -0.0818  0.4290 -0.0067
  158loPI   C1B 2525   4.377   6.505   9.018  0.2684  0.2619 -0.3188
  158loPI   C2B 2526   4.431   6.247   8.632 -0.0039  0.0921  0.1027
  158loPI   C3B 2527   4.449   5.972   8.252 -0.1076 -0.1122 -0.4929
  158loPI   C4B 2528   4.257   5.843   7.932  0.1459 -0.1939  0.0348
  159loPI    C1 2529   5.636  17.848  10.034  0.0645  0.1981  0.1708
  159loPI    C2 2530   5.808  18.015   9.713 -0.2461  0.0350 -0.0873
  159loPI    C3 2531   6.018  17.963  10.049  0.1276  0.0758 -0.3097
  159loPI   PO4 2532   5.414  17.713   9.950  0.1325  0.1910 -0.2908
  159loPI   GL1 2533   5.309  17.765   9.561 -0.2827  0.2852  0.2303
  159loPI   GL2 2534   5.337  17.440   9.477 -0.0325  0.1338  0.2149
  159loPI   C1A 2535   5.329  17.852   9.097  0.1963  0.2610 -0.0677
  159loPI   C2A 2536   5.291  17.811   8.682 -0.3824  0.3100  0.1335
  159loPI   C3A 2537   4.849  17.868   8.561 -0.1905 -0.1610  0.0000
  159loPI   C4A 2538   4.509  18.098   8.289 -0.1007 -0.2564 -0.1043
  159loPI   C5A 2539   4.222  18.249   7.861 -0.0428  0.2090 -0.1705
  159loPI   C6A 2540   3.979  17.984   7.544  0.1920 -0.0511 -0.0912
  159loPI   C1B 2541   5.328  17.328   9.104 -0.1685 -0.1090 -0.1814
  159loPI   C2B 2542   5.270  17.042   8.846  0.0356  0.0635 -0.0206
  159loPI   C3B 2543   5.008  16.897   8.596  0.0886 -0.1860 -0.0313
  159loPI   C4B 2544   4.778  16.802   8.267 -0.2423  0.1100  0.2409
  160loPI    C1 2545  10.769  10.735  10.002  0.0175 -0.1840  0.0544
  160loPI    C2 2546  10.756  11.017  10.287  0.0009 -0.1462  0.0165
  160loPI    C3 2547  10.712  10.631  10.384 -0.0483 -0.1297  0.0595
  160loPI   PO4 2548  10.896  10.837   9.857 -0.1557 -0.2637  0.0162
  160loPI   GL1 2549  10.883  11.066   9.506 -0.1729 -0.0143 -0.1618
  160loPI   GL2 2550  10.852  10.802   9.374  0.0201  0.2390  0.2163
  160loPI   C1A 2551  10.677  11.246   9.093  0.1408 -0.0527  0.0085
  160loPI   C2A 2552  10.301  11.344   8.957 -0.1977  0.0926 -0.3230
  160loPI   C3A 2553   9.971  11.171   8.771  0.1113 -0.1857  0.0480
  160loPI   C4A 2554  10.044  10.772   8.507 -0.0270  0.0335 -0.2012
  160loPI   C5A 2555   9.862  10.493   8.223  0.2200 -0.0160 -0.1421
  160loPI   C6A 2556   9.696  10.460   7.786 -0.2161  0.0719  0.0221
  160loPI   C1B 2557  11.053  10.939   8.984  0.0019 -0.0736  0.2424
  160loPI   C2B 2558  10.987  10.982   8.567 -0.3722  0.2615  0.1876
  160loPI   C3B 2559  10.772  11.164   8.107  0.2742  0.1778 -0.0046
  160loPI   C4B 2560  10.692  11.073   7.686  0.2408  0.3397  0.0576
  161loPI    C1 2561  13.495  14.465  10.209  0.0542 -0.2001 -0.0532
  161loPI    C2 2562  13.617  14.251  10.523 -0.1288 -0.0819  0.1003
  161loPI    C3 2563  13.841  14.553  10.389  0.0086 -0.2095  0.0395
  161loPI   PO4 2564  13.372  14.294  10.038 -0.2496 -0.4527  0.0068
  161loPI   GL1 2565  13.301  14.207   9.573 -0.0045  0.3405  0.0141
  161loPI   GL2 2566  13.154  14.412   9.375  0.0460  0.1903 -0.0226
  161loPI   C1A 2567  13.477  14.024   9.266  0.0462  0.0351  0.1358
  161loPI   C2A 2568  13.324  14.005   8.867 -0.0212  0.4131  0.3196
  161loPI   C3A 2569  13.480  14.036   8.555  0.1133 -0.3682  0.1698
  161loPI   C4A 2570  13.660  14.220   8.185 -0.0576 -0.1445  0.1375
  161loPI   C5A 2571  13.538  14.619   7.953  0.1792  0.0937  0.1424
  161loPI   C6A 2572  13.450  14.533   7.613  0.0441  0.0716  0.2051
  161loPI   C1B 2573  12.869  14.322   9.073  0.0504  0.0974 -0.1163
  161loPI   C2B 2574  12.603  14.163   8.672  0.3808 -0.1674 -0.0560
  161loPI   C3B 2575  12.495  13.931   8.282  0.1212 -0.2134  0.0071
  161loPI   C4B 2576  12.741  14.059   7.851  0.4086 -0.2745 -0.0821
  162loPI    C1 2577  10.798   8.594  10.161  0.2339 -0.0521 -0.0904
  162loPI    C2 2578  10.960   8.456  10.500  0.4770  0.0667 -0.1557
  162loPI    C3 2579  11.023   8.263  10.155  0.2149 -0.0643 -0.1333
  162loPI   PO4 2580  10.731   8.701  10.011 -0.3277 -0.3639 -0.3705
  162loPI   GL1 2581  10.468   8.555   9.666  0.3814  0.2076  0.2944
  162loPI   GL2 2582  10.339   8.181   9.909 -0.0135  0.0835 -0.1076
  162loPI   C1A 2583  10.591   8.547   9.246  0.1115 -0.3083  0.0816
  162loPI   C2A 2584  10.394   8.457   8.873  0.2309 -0.1930 -0.1574
  162loPI   C3A 2585  10.575   8.306   8.504  0.1218  0.1102  0.1032
  162loPI   C4A 2586  10.717   7.916   8.332  0.1934  0.1551  0.1255
  162loPI   C5A 2587  10.591   7.598   8.215  0.0493  0.2185 -0.1237
  162loPI   C6A 2588  10.664   7.228   8.162 -0.0139 -0.2187 -0.1948
  162loPI   C1B 2589  10.551   8.085   9.535 -0.1179 -0.0718  0.0395
  162loPI   C2B 2590  10.835   8.096   9.270 -0.1123 -0.3043  0.1913
  162loPI   C3B 2591  11.246   8.146   9.114  0.2352 -0.0263  0.0644
  162loPI   C4B 2592  11.557   7.855   9.124  0.5088 -0.1432 -0.1297
  163loPI    C1 2593   3.414   7.997  10.050 -0.0451  0.2792  0.1396
  163loPI    C2 2594   3.046   7.974   9.894 -0.0744  0.1686  0.2239
  163loPI    C3 2595   3.098   8.118  10.263 -0.0156  0.3367  0.1509
  163loPI   PO4 2596   3.502   7.725   9.976 -0.0449 -0.0171  0.1847
  163loPI   GL1 2597   3.486   7.520   9.538  0.1163  0.0102  0.0084
  163loPI   GL2 2598   3.380   7.776   9.429 -0.2115  0.1465  0.3035
  163loPI   C1A 2599   3.503   7.276   9.156 -0.0356 -0.1651  0.2716
  163loPI   C2A 2600   3.569   7.275   8.779 -0.1748  0.4477  0.2049
  163loPI   C3A 2601   3.575   7.537   8.433 -0.2529 -0.3838  0.1444
  163loPI   C4A 2602   3.643   7.887   8.214 -0.4179 -0.0110  0.2475
  163loPI   C5A 2603   4.047   8.219   8.415  0.2102  0.0591 -0.1143
  163loPI   C6A 2604   4.232   8.196   8.825  0.1090 -0.0021 -0.3523
  163loPI   C1B 2605   3.584   7.767   9.030 -0.1585  0.2708 -0.0200
  163loPI   C2B 2606   3.877   7.786   8.727  0.2191  0.1586 -0.0121
  163loPI   C3B 2607   4.306   7.729   8.541  0.6891 -0.0104 -0.1573
  163loPI   C4B 2608   4.529   8.062   8.252  0.1948  0.1639  0.0702
  164loPI    C1 2609   9.927  13.000   9.911 -0.0637  0.1479  0.0031
  164loPI    C2 2610   9.768  13.224   9.621 -0.3795  0.1079  0.1420
  164loPI    C3 2611   9.883  13.394   9.964  0.1789  0.1873 -0.0745
  164loPI   PO4 2612   9.723  12.754   9.853  0.0985 -0.3659  0.0107
  164loPI   GL1 2613   9.550  12.615   9.413  0.0962  0.0861 -0.0287
  164loPI   GL2 2614   9.297  12.412   9.556 -0.0148 -0.0286 -0.0627
  164loPI   C1A 2615   9.367  12.699   8.933 -0.1247 -0.2791 -0.0930
  164loPI   C2A 2616   9.219  12.900   8.473 -0.1230 -0.2180  0.0013
  164loPI   C3A 2617   9.092  13.068   8.057  0.0099  0.2091 -0.1114
  164loPI   C4A 2618   8.778  13.300   7.748  0.0724 -0.1091 -0.1416
  164loPI   C5A 2619   8.553  13.577   7.477  0.0915 -0.3150 -0.0870
  164loPI   C6A 2620   8.581  13.904   7.202 -0.1366 -0.2229  0.0901
  164loPI   C1B 2621   9.495  12.152   9.193  0.3373 -0.0578 -0.3563
  164loPI   C2B 2622   9.411  12.217   8.708 -0.1386 -0.1859  0.1510
  164loPI   C3B 2623   9.557  12.124   8.274  0.1070  0.0322  0.0627
  164loPI   C4B 2624   9.369  12.077   7.830 -0.1547 -0.0211 -0.1514
  165loPI    C1 2625  17.282  15.435  10.223 -0.1542 -0.0190 -0.0560
  165loPI    C2 2626  17.247  15.499  10.617  0.1567  0.0095 -0.0301
  165loPI    C3 2627  17.143  15.786  10.357 -0.1025 -0.0300  0.0270
  165loPI   PO4 2628  17.186  15.196  10.221  0.0201 -0.2245  0.0933
  165loPI   GL1 2629  17.320  14.834  10.022 -0.3024  0.0106 -0.1579
  165loPI   GL2 2630  17.161  14.999   9.746  0.1162  0.1667 -0.1985
  165loPI   C1A 2631  17.142  14.391   9.812 -0.0671  0.1134  0.0463
  165loPI   C2A 2632  17.331  14.165   9.478  0.0526  0.0064  0.5142
  165loPI   C3A 2633  17.290  13.920   9.086 -0.0185  0.2643  0.1504
  165loPI   C4A 2634  17.212  13.799   8.697 -0.1883  0.0991  0.0086
  165loPI   C5A 2635  17.343  13.499   8.354 -0.1922 -0.0478  0.0807
  165loPI   C6A 2636  17.398  13.305   8.027 -0.0756 -0.0076 -0.1316
  165loPI   C1B 2637  16.955  14.716   9.435  0.1118  0.1853  0.2038
  165loPI   C2B 2638  16.599  14.639   9.156  0.1300  0.2489  0.0227
  165loPI   C3B 2639  16.324  14.346   9.023 -0.2358 -0.2443 -0.3103
  165loPI   C4B 2640  16.283  13.950   8.920  0.1415  0.3548 -0.0202
  166loPI    C1 2641   7.352   1.726  10.176 -0.2220  0.0369  0.0669
  166loPI    C2 2642   7.638   1.853  10.425 -0.1747  0.1108 -0.0245
  166loPI    C3 2643   7.397   1.553  10.534 -0.1261  0.1134  0.0923
  166loPI   PO4 2644   7.483   1.685   9.972 -0.4020  0.1621  0.1550
  166loPI   GL1 2645   7.378   1.685   9.561  0.3372 -0.0435  0.0118
  166loPI   GL2 2646   7.163   1.504   9.387  0.0152  0.1137 -0.2284
  166loPI   C1A 2647   7.141   2.112   9.341  0.0536  0.0329 -0.0172
  166loPI   C2A 2648   6.961   2.335   9.000 -0.1405 -0.0117  0.2725
  166loPI   C3A 2649   7.013   2.666   8.762 -0.1163 -0.0839  0.0167
  166loPI   C4A 2650   6.915   2.801   8.372 -0.0432 -0.0450  0.3402
  166loPI   C5A 2651   6.813   2.569   8.002 -0.2541  0.0150 -0.0407
  166loPI   C6A 2652   6.563   2.235   7.996  0.1719 -0.0905 -0.0044
  166loPI   C1B 2653   7.162   1.627   9.028  0.2201  0.2861  0.3359
  166loPI   C2B 2654   7.174   1.826   8.626 -0.0445  0.2690 -0.0443
  166loPI   C3B 2655   7.381   2.028   8.343 -0.0911 -0.0485 -0.0659
  166loPI   C4B 2656   7.846   2.160   8.462 -0.0398  0.1763  0.2516
  167loPI    C1 2657   3.891  17.596   9.897 -0.0887  0.2597  0.0175
  167loPI    C2 2658   4.265  17.707   9.809 -0.0616  0.1469 -0.0103
  167loPI    C3 2659   4.047  17.925  10.064  0.0649  0.1455  0.1003
  167loPI   PO4 2660   3.739  17.620   9.713 -0.0127 -0.2229 -0.2862
  167loPI   GL1 2661   3.549  17.712   9.312 -0.1673  0.0807 -0.4847
  167loPI   GL2 2662   3.914  17.850   9.323  0.3058 -0.1125  0.0576
  167loPI   C1A 2663   3.486  18.001   9.064  0.2390  0.3145  0.3175
  167loPI   C2A 2664   3.540  18.158   8.681 -0.2407 -0.0962  0.0583
  167loPI   C3A 2665   3.548  18.239   8.342 -0.0570 -0.1647  0.3004
  167loPI   C4A 2666   3.368  18.622   8.112 -0.1346 -0.0424  0.2261
  167loPI   C5A 2667   3.013  18.804   8.312  0.3199 -0.0792  0.2822
  167loPI   C6A 2668   2.632  18.790   8.328 -0.0032 -0.5643  0.0459
  167loPI   C1B 2669   3.926  17.967   8.910  0.0239 -0.1345 -0.1202
  167loPI   C2B 2670   4.092  18.200   8.550 -0.0962  0.6341 -0.0956
  167loPI   C3B 2671   4.236  18.581   8.361  0.0266  0.3879 -0.1327
  167loPI   C4B 2672   4.317  18.840   8.156  0.0505 -0.0302 -0.0813
  168loPI    C1 2673  17.262   1.543  10.657 -0.1960  0.1280 -0.1048
  168loPI    C2 2674  17.471   1.311  10.907  0.0889  0.2233 -0.2500
  168loPI    C3 2675  17.199   1.566  11.052  0.0126  0.0401 -0.0650
  168loPI   PO4 2676  17.251   1.421  10.505  0.4031 -0.2394  0.0670
  168loPI   GL1 2677  17.258   1.512  10.010 -0.4232  0.1732 -0.0109
  168loPI   GL2 2678  16.920   1.264   9.964 -0.0541  0.0527  0.0201
  168loPI   C1A 2679  17.558   1.637   9.727 -0.0520  0.0281  0.0331
  168loPI   C2A 2680  17.671   1.831   9.319  0.0040 -0.1482  0.1754
  168loPI   C3A 2681  17.593   2.059   8.902 -0.0584  0.2108  0.0621
  168loPI   C4A 2682  17.447   2.170   8.460  0.1212 -0.0834  0.1641
  168loPI   C5A 2683  17.669   2.285   8.066  0.0594  0.0251 -0.2151
  168loPI   C6A 2684  17.933   2.189   7.772 -0.0844 -0.4064  0.0099
  168loPI   C1B 2685  16.704   1.234   9.633  0.0900  0.2276  0.2051
  168loPI   C2B 2686  16.270   1.257   9.479  0.1300 -0.1807 -0.1073
  168loPI   C3B 2687  15.968   0.981   9.305  0.3379 -0.0009 -0.0579
  168loPI   C4B 2688  15.896   1.038   8.944  0.1416  0.1123  0.1324
  169loPI    C1 2689  12.544   6.926  10.476  0.0642 -0.1427 -0.1719
  169loPI    C2 2690  12.202   7.114  10.564  0.0929 -0.1923  0.0515
  169loPI    C3 2691  12.549   7.253  10.706  0.1559 -0.1972 -0.0958
  169loPI   PO4 2692  12.639   6.913  10.218 -0.1501  0.0681 -0.0680
  169loPI   GL1 2693  12.606   7.102   9.764  0.0471 -0.1241  0.1078
  169loPI   GL2 2694  12.920   7.241   9.812  0.3828 -0.0144 -0.1399
  169loPI   C1A 2695  12.582   6.809   9.429 -0.3612 -0.1267 -0.2274
  169loPI   C2A 2696  12.536   6.759   9.022 -0.3722 -0.0437  0.3166
  169loPI   C3A 2697  12.504   6.734   8.589  0.0834 -0.1729 -0.0658
  169loPI   C4A 2698  12.375   6.712   8.169 -0.0047 -0.4204  0.2460
  169loPI   C5A 2699  12.174   6.840   7.783  0.1830  0.0192  0.1985
  169loPI   C6A 2700  11.801   6.667   7.655 -0.0741  0.3217  0.2078
  169loPI   C1B 2701  13.067   7.027   9.423  0.1535  0.1057  0.0531
  169loPI   C2B 2702  13.034   6.730   9.121 -0.0185  0.1914 -0.1094
  169loPI   C3B 2703  13.072   6.630   8.684  0.0945  0.4505 -0.1840
  169loPI   C4B 2704  12.909   6.836   8.305  0.0593  0.2898 -0.1229
  170loPI    C1 2705   1.841   7.385  10.287  0.4565  0.0378  0.0915
  170loPI    C2 2706   1.691   7.065  10.474 -0.2123  0.1159 -0.2800
  170loPI    C3 2707   1.737   7.409  10.672  0.0988 -0.0831  0.0056
  170loPI   PO4 2708   2.064   7.201  10.097  0.0614 -0.0724  0.1380
  170loPI   GL1 2709   2.171   7.383   9.779  0.2814  0.1307  0.0399
  170loPI   GL2 2710   2.471   7.308   9.769 -0.4870  0.1030  0.1042
  170loPI   C1A 2711   2.099   7.427   9.450  0.0489  0.1940 -0.0191
  170loPI   C2A 2712   2.231   7.419   9.057  0.0269  0.1674 -0.1248
  170loPI   C3A 2713   2.005   7.353   8.697  0.3302  0.2700  0.0691
  170loPI   C4A 2714   1.592   7.244   8.404  0.2075 -0.0746  0.0260
  170loPI   C5A 2715   1.189   7.042   8.136  0.0284 -0.1784 -0.1245
  170loPI   C6A 2716   1.132   6.711   7.949 -0.0160 -0.2436  0.2735
  170loPI   C1B 2717   2.626   7.409   9.362  0.2353  0.0180 -0.0279
  170loPI   C2B 2718   2.688   7.268   9.009 -0.0355  0.0814  0.1911
  170loPI   C3B 2719   2.464   7.328   8.555 -0.1538  0.1422  0.0144
  170loPI   C4B 2720   2.671   7.110   8.188 -0.0589  0.0375  0.2028
  171loPI    C1 2721  10.711  14.863   9.622  0.0835 -0.0194  0.0533
  171loPI    C2 2722  10.824  14.813  10.002  0.1477 -0.1075  0.0231
  171loPI    C3 2723  11.014  14.616   9.710  0.0427 -0.1059 -0.0466
  171loPI   PO4 2724  10.623  15.087   9.560  0.0033 -0.2264  0.2961
  171loPI   GL1 2725  10.611  15.191   9.138  0.0106  0.0974  0.1074
  171loPI   GL2 2726  10.483  14.913   9.079  0.2097 -0.0922 -0.1264
  171loPI   C1A 2727  10.717  15.652   8.976  0.2788  0.0948 -0.0444
  171loPI   C2A 2728  10.745  15.740   8.500  0.0460 -0.1435  0.2338
  171loPI   C3A 2729  10.828  15.887   8.073  0.2456 -0.0235  0.0323
  171loPI   C4A 2730  11.016  15.842   7.742  0.0024  0.1367  0.0639
  171loPI   C5A 2731  11.071  16.043   7.367  0.1863  0.1009  0.3784
  171loPI   C6A 2732  11.431  15.881   6.990 -0.1087  0.1867  0.0802
  171loPI   C1B 2733  10.451  15.287   8.657  0.2107  0.1599 -0.0375
  171loPI   C2B 2734  10.528  15.391   8.222  0.3812  0.0905 -0.3825
  171loPI   C3B 2735  10.443  15.525   7.860 -0.4095 -0.2328 -0.3800
  171loPI   C4B 2736  10.244  15.456   7.480 -0.0012 -0.1551  0.1636
  172loPI    C1 2737  11.175  16.005   9.817  0.0729  0.0224  0.1956
  172loPI    C2 2738  11.093  15.698  10.060 -0.0344 -0.2559 -0.1834
  172loPI    C3 2739  11.473  15.788   9.973  0.0017 -0.2007  0.0266
  172loPI   PO4 2740  11.004  15.975   9.631 -0.3075 -0.1702 -0.0474
  172loPI   GL1 2741  11.069  16.022   9.126  0.1241  0.0867  0.4310
  172loPI   GL2 2742  11.248  15.902   8.930 -0.1415  0.1134 -0.2090
  172loPI   C1A 2743  10.865  16.172   8.783 -0.1406 -0.0413  0.0037
  172loPI   C2A 2744  10.978  16.276   8.320  0.0567  0.3361  0.0127
  172loPI   C3A 2745  10.943  16.336   7.899  0.3022 -0.0567  0.0029
  172loPI   C4A 2746  10.773  16.509   7.538  0.0594 -0.3720 -0.0820
  172loPI   C5A 2747  10.615  16.510   7.125  0.2038 -0.5517  0.1922
  172loPI   C6A 2748  10.316  16.252   6.882 -0.2265 -0.2794  0.6522
  172loPI   C1B 2749  11.250  15.867   8.549  0.0744 -0.2832 -0.0440
  172loPI   C2B 2750  11.362  15.991   8.125 -0.1214  0.2848  0.0128
  172loPI   C3B 2751  11.489  16.091   7.766 -0.1302  0.0033  0.0029
  172loPI   C4B 2752  11.291  16.506   7.578 -0.0522  0.2251 -0.3007
  173loPI    C1 2753   9.453   5.731  10.268  0.0480  0.0877 -0.0561
  173loPI    C2 2754   9.530   6.097  10.125  0.1992  0.0571 -0.0547
  173loPI    C3 2755   9.498   6.039  10.519  0.3388  0.0391 -0.0459
  173loPI   PO4 2756   9.336   5.611  10.045  0.0073  0.1156  0.2906
  173loPI   GL1 2757   9.352   5.633   9.589 -0.1942 -0.3867  0.0344
  173loPI   GL2 2758   9.251   5.362   9.622  0.0409 -0.2319 -0.0024
  173loPI   C1A 2759   9.696   5.581   9.317  0.1322  0.1972 -0.2596
  173loPI   C2A 2760   9.732   5.885   8.991 -0.1764  0.2852  0.2261
  173loPI   C3A 2761  10.037   5.953   8.797 -0.0969  0.2056  0.0813
  173loPI   C4A 2762  10.131   6.095   8.497  0.3751 -0.0986 -0.5656
  173loPI   C5A 2763  10.136   6.359   8.032 -0.0579  0.4363  0.2322
  173loPI   C6A 2764   9.829   6.665   7.837 -0.0982  0.1737  0.0580
  173loPI   C1B 2765   9.268   5.297   9.199  0.1057 -0.0934 -0.3081
  173loPI   C2B 2766   9.606   5.332   8.910  0.1849 -0.0228 -0.1752
  173loPI   C3B 2767  10.029   5.485   8.717 -0.1000  0.3729  0.1635
  173loPI   C4B 2768  10.018   5.314   8.304  0.2326 -0.1371 -0.0548
  174loPI    C1 2769   8.051  15.164   9.716  0.0818  0.1459 -0.0819
  174loPI    C2 2770   8.284  14.920   9.931  0.0395 -0.0690 -0.2757
  174loPI    C3 2771   7.995  15.130  10.110  0.0916 -0.1429 -0.1030
  174loPI   PO4 2772   8.125  15.324   9.575 -0.3643 -0.1143 -0.1854
  174loPI   GL1 2773   8.212  15.392   9.180  0.0244  0.3501 -0.3230
  174loPI   GL2 2774   8.360  15.541   8.914  0.0507 -0.0014 -0.0335
  174loPI   C1A 2775   8.006  15.083   8.971 -0.0908  0.0483 -0.2054
  174loPI   C2A 2776   8.061  14.811   8.751  0.1337  0.0753 -0.0947
  174loPI   C3A 2777   8.302  14.540   8.395 -0.0915  0.0872 -0.0755
  174loPI   C4A 2778   8.101  14.668   8.042  0.2938 -0.2412 -0.0302
  174loPI   C5A 2779   7.674  14.739   7.808  0.3132 -0.1097  0.2622
  174loPI   C6A 2780   7.593  15.095   7.583 -0.2919 -0.3461  0.2539
  174loPI   C1B 2781   8.388  15.524   8.406  0.5247  0.3196  0.0340
  174loPI   C2B 2782   8.364  15.456   8.018  0.1442  0.1871 -0.0147
  174loPI   C3B 2783   8.157  15.414   7.609  0.2237 -0.3281  0.2576
  174loPI   C4B 2784   8.026  15.464   7.226  0.0195  0.0803 -0.1016
  175loPI    C1 2785  10.832   6.577  10.270 -0.2799  0.0823  0.0971
  175loPI    C2 2786  10.786   6.291  10.547  0.1444 -0.0643  0.0238
  175loPI    C3 2787  10.914   6.654  10.654  0.0202 -0.0306  0.0587
  175loPI   PO4 2788  10.725   6.709  10.129 -0.3264 -0.4150  0.1407
  175loPI   GL1 2789  10.402   6.796   9.799 -0.0690  0.0730 -0.3540
  175loPI   GL2 2790  10.167   7.016   9.921  0.2099  0.1592  0.1667
  175loPI   C1A 2791  10.388   7.039   9.436  0.0695 -0.2318 -0.0665
  175loPI   C2A 2792  10.350   7.060   9.033  0.2328  0.0880 -0.1764
  175loPI   C3A 2793  10.456   6.983   8.603 -0.0534  0.0325  0.2650
  175loPI   C4A 2794  10.207   7.110   8.208  0.2042 -0.1199 -0.0724
  175loPI   C5A 2795  10.302   6.933   7.801 -0.0582  0.0692 -0.2842
  175loPI   C6A 2796  10.056   6.793   7.436 -0.1168  0.0337  0.0625
  175loPI   C1B 2797   9.878   6.768   9.578  0.1054 -0.0937  0.1195
  175loPI   C2B 2798   9.856   6.937   9.147 -0.0774 -0.0800 -0.1429
  175loPI   C3B 2799   9.966   6.849   8.729 -0.2873 -0.0984 -0.0774
  175loPI   C4B 2800   9.990   6.674   8.438  0.2648 -0.0678  0.3667
  176loPI    C1 2801  18.420   8.562  10.715 -0.0142  0.1353 -0.0838
  176loPI    C2 2802  18.392   8.784  11.047  0.1583  0.2207 -0.1250
  176loPI    C3 2803  18.567   8.424  11.060  0.0217  0.1548 -0.0912
  176loPI   PO4 2804  18.538   8.707  10.603 -0.0540 -0.1155  0.1426
  176loPI   GL1 2805  18.675   8.839  10.312 -0.0982  0.0081 -0.5643
  176loPI   GL2 2806  18.898   8.697  10.286  0.0109 -0.4187  0.0454
  176loPI   C1A 2807  18.489   8.782   9.899 -0.0396 -0.2585 -0.0355
  176loPI   C2A 2808  18.598   8.669   9.528 -0.2131 -0.0735  0.1042
  176loPI   C3A 2809  18.634   8.641   9.087  0.3517  0.3243  0.0279
  176loPI   C4A 2810  18.621   8.795   8.713 -0.2211  0.3109  0.0725
  176loPI   C5A 2811  18.690   8.573   8.296  0.0702 -0.0187 -0.1382
  176loPI   C6A 2812  19.091   8.452   8.142  0.1176 -0.1847 -0.3338
  176loPI   C1B 2813  18.973   8.519   9.877 -0.0019  0.0047  0.1821
  176loPI   C2B 2814  19.040   8.435   9.417  0.1839  0.1650 -0.0406
  176loPI   C3B 2815  18.984   8.240   9.070  0.2156  0.0351  0.0443
  176loPI   C4B 2816  19.021   8.441   8.759  0.1997  0.2411 -0.2126
  177loPI    C1 2817   2.403  11.842  10.358  0.1206 -0.0068  0.0111
  177loPI    C2 2818   2.627  11.857  10.688  0.1830 -0.1497 -0.0240
  177loPI    C3 2819   2.241  11.959  10.704  0.2525  0.1112  0.0337
  177loPI   PO4 2820   2.644  11.541  10.199 -0.0152 -0.0371  0.1093
  177loPI   GL1 2821   2.748  11.410   9.856  0.0116 -0.1247  0.0235
  177loPI   GL2 2822   2.959  11.465   9.763 -0.1599  0.2421 -0.0538
  177loPI   C1A 2823   2.545  11.713   9.609  0.2935  0.0778 -0.0537
  177loPI   C2A 2824   2.589  11.902   9.169 -0.0236  0.0151  0.0556
  177loPI   C3A 2825   2.374  12.167   8.876 -0.1123  0.0958  0.0627
  177loPI   C4A 2826   2.004  12.230   8.543 -0.2612  0.0878 -0.0982
  177loPI   C5A 2827   1.682  12.540   8.447 -0.0322 -0.0825  0.0737
  177loPI   C6A 2828   1.568  12.908   8.300 -0.1064  0.2631  0.4470
  177loPI   C1B 2829   2.813  11.443   9.294 -0.2135 -0.3465  0.1257
  177loPI   C2B 2830   2.838  11.632   8.821  0.0075 -0.3997  0.2257
  177loPI   C3B 2831   3.054  11.868   8.474 -0.0182  0.0271 -0.0145
  177loPI   C4B 2832   3.324  11.905   8.168 -0.0587 -0.1616  0.3363
  178loPI    C1 2833   0.958   7.677  10.846 -0.3673 -0.1562 -0.0821
  178loPI    C2 2834   0.845   8.061  10.848  0.1020 -0.0111  0.1907
  178loPI    C3 2835   0.771   7.829  11.165  0.0299 -0.0816  0.1226
  178loPI   PO4 2836   0.907   7.597  10.554  0.0453 -0.3368  0.1490
  178loPI   GL1 2837   0.954   7.643   9.987  0.0711  0.0961  0.2471
  178loPI   GL2 2838   1.199   7.929   9.950  0.1259 -0.0452  0.1049
  178loPI   C1A 2839   0.935   7.695   9.521  0.1412  0.0089  0.1768
  178loPI   C2A 2840   0.740   7.788   9.053 -0.4335  0.0141 -0.1235
  178loPI   C3A 2841   0.537   7.621   8.719 -0.2720 -0.1377 -0.3641
  178loPI   C4A 2842   0.703   7.433   8.384 -0.0450  0.1911  0.0021
  178loPI   C5A 2843   0.719   7.271   8.069  0.1703 -0.0511  0.2234
  178loPI   C6A 2844   0.862   7.052   7.668 -0.2278 -0.1160  0.2895
  178loPI   C1B 2845   1.128   8.227   9.579  0.2495  0.1127 -0.1612
  178loPI   C2B 2846   1.007   8.196   9.169 -0.0129  0.0653  0.2009
  178loPI   C3B 2847   1.013   8.259   8.762 -0.1467 -0.2920 -0.0337
  178loPI   C4B 2848   1.105   8.407   8.472 -0.0100  0.0413  0.1794
  179loPI    C1 2849   9.029  11.969   9.962  0.1718 -0.2214 -0.1153
  179loPI    C2 2850   9.226  11.909  10.305  0.0728 -0.3513 -0.0808
  179loPI    C3 2851   8.992  12.231  10.262  0.1780 -0.2731 -0.0695
  179loPI   PO4 2852   9.148  11.720   9.817 -0.2004 -0.1440  0.0614
  179loPI   GL1 2853   9.555  11.508   9.617 -0.0935  0.0178  0.0103
  179loPI   GL2 2854   9.317  11.330   9.355  0.0387  0.0880 -0.3645
  179loPI   C1A 2855   9.562  11.692   9.161 -0.0306  0.1575  0.4294
  179loPI   C2A 2856   9.404  11.659   8.742  0.4381  0.2349 -0.2293
  179loPI   C3A 2857   9.242  11.726   8.286  0.0213 -0.0580 -0.1383
  179loPI   C4A 2858   9.176  11.575   7.847 -0.1213 -0.0862 -0.0209
  179loPI   C5A 2859   9.000  11.214   7.679 -0.2440  0.3585 -0.0535
  179loPI   C6A 2860   8.834  10.890   7.403 -0.0001 -0.2252 -0.0299
  179loPI   C1B 2861   9.056  11.405   8.975 -0.1280  0.1451 -0.0177
  179loPI   C2B 2862   8.807  11.405   8.608 -0.0330 -0.2158  0.1908
  179loPI   C3B 2863   8.670  10.995   8.356  0.0269 -0.2982  0.4198
  179loPI   C4B 2864   8.691  10.833   7.950  0.2303 -0.0703  0.0808
  180loPI    C1 2865   4.434  14.479  10.123  0.0679  0.1215 -0.1764
  180loPI    C2 2866   4.752  14.320   9.939  0.1587 -0.0515  0.1241
  180loPI    C3 2867   4.665  14.214  10.315 -0.2048  0.0613  0.0751
  180loPI   PO4 2868   4.346  14.642   9.839  0.1129 -0.1447 -0.1694
  180loPI   GL1 2869   4.366  14.860   9.453  0.1804  0.1202  0.3372
  180loPI   GL2 2870   4.695  14.848   9.290 -0.0927 -0.0374 -0.2134
  180loPI   C1A 2871   4.270  14.865   9.039 -0.1895  0.2227  0.0546
  180loPI   C2A 2872   4.204  14.814   8.631 -0.0483 -0.1907 -0.2781
  180loPI   C3A 2873   3.940  14.707   8.363 -0.1120 -0.0607  0.0518
  180loPI   C4A 2874   3.746  14.602   7.968  0.1138 -0.2033  0.0200
  180loPI   C5A 2875   3.657  14.193   7.701 -0.0333  0.0579  0.0411
  180loPI   C6A 2876   3.424  13.836   7.697  0.0489  0.1787 -0.4559
  180loPI   C1B 2877   4.671  14.659   8.790 -0.2838  0.1350 -0.0780
  180loPI   C2B 2878   4.732  14.373   8.495  0.1663  0.1140  0.0232
  180loPI   C3B 2879   4.803  13.953   8.340  0.1135 -0.0383  0.0909
  180loPI   C4B 2880   4.392  13.803   8.173  0.0018  0.3426  0.0591
  181loPI    C1 2881  10.096  17.893  10.017  0.2248  0.0530 -0.2394
  181loPI    C2 2882  10.383  18.018  10.265  0.1559  0.0432 -0.1542
  181loPI    C3 2883  10.309  17.627  10.226  0.0254  0.0549 -0.0296
  181loPI   PO4 2884  10.097  18.038   9.837  0.3753  0.0334 -0.1409
  181loPI   GL1 2885  10.519  18.186   9.545  0.0210  0.0754 -0.3215
  181loPI   GL2 2886  10.289  18.408   9.670  0.0468  0.1676  0.1046
  181loPI   C1A 2887  10.792  18.059   9.209 -0.1329  0.2629 -0.1528
  181loPI   C2A 2888  10.873  18.195   8.767 -0.0594 -0.0740 -0.0317
  181loPI   C3A 2889  10.667  18.557   8.606  0.2670  0.1482  0.0615
  181loPI   C4A 2890  10.686  18.670   8.195 -0.1084 -0.3065 -0.1776
  181loPI   C5A 2891  10.647  18.901   7.915  0.3354  0.1267  0.2803
  181loPI   C6A 2892  10.647  19.354   7.924  0.4717  0.0448 -0.2145
  181loPI   C1B 2893  10.199  18.655   9.180 -0.1403 -0.0850 -0.1981
  181loPI   C2B 2894  10.558  18.862   9.011  0.0055  0.1412 -0.2126
  181loPI   C3B 2895  10.804  19.056   8.740 -0.2472  0.1840 -0.0172
  181loPI   C4B 2896  10.768  19.166   8.375 -0.4754  0.2154  0.0155
  182loPI    C1 2897  11.637  12.540   9.887 -0.2594 -0.0667  0.0737
  182loPI    C2 2898  11.916  12.704   9.651 -0.2908 -0.1084  0.0076
  182loPI    C3 2899  11.949  12.730  10.049 -0.0956 -0.2730  0.0035
  182loPI   PO4 2900  11.387  12.580   9.657 -0.1160  0.1090 -0.0818
  182loPI   GL1 2901  11.157  12.384   9.316 -0.1556  0.0877  0.1863
  182loPI   GL2 2902  10.940  12.236   9.264 -0.1855 -0.0072 -0.1437
  182loPI   C1A 2903  11.251  12.753   8.918 -0.0435  0.2348 -0.0946
  182loPI   C2A 2904  11.209  12.816   8.401  0.2840 -0.0881 -0.1682
  182loPI   C3A 2905  10.980  13.068   8.111  0.0894  0.2615 -0.0247
  182loPI   C4A 2906  10.646  13.021   7.849  0.0761 -0.0481  0.0280
  182loPI   C5A 2907  10.346  12.741   7.825  0.0265  0.2664 -0.2892
  182loPI   C6A 2908  10.027  12.597   8.167 -0.1734 -0.0214  0.0219
  182loPI   C1B 2909  11.123  12.077   8.878 -0.0331 -0.1059 -0.1073
  182loPI   C2B 2910  11.280  11.825   8.565 -0.3403  0.2381  0.1668
  182loPI   C3B 2911  11.291  11.476   8.194  0.1793  0.0695  0.1301
  182loPI   C4B 2912  11.238  11.018   8.023  0.0307 -0.2106 -0.1981
  183loPI    C1 2913   5.267  11.823  10.397  0.0886  0.2322 -0.0152
  183loPI    C2 2914   4.925  11.646  10.508  0.2265 -0.2965 -0.3940
  183loPI    C3 2915   5.266  11.560  10.699  0.2246 -0.1114 -0.3059
  183loPI   PO4 2916   5.197  11.810  10.108  0.0860  0.1362  0.1546
  183loPI   GL1 2917   5.278  11.573   9.736 -0.4906 -0.1310 -0.1081
  183loPI   GL2 2918   5.149  11.284   9.791 -0.0866 -0.0317 -0.0763
  183loPI   C1A 2919   5.012  11.761   9.466  0.1622 -0.0059 -0.0996
  183loPI   C2A 2920   5.038  11.594   9.036 -0.2797  0.0355  0.0684
  183loPI   C3A 2921   4.958  11.583   8.526  0.1867  0.0360  0.0160
  183loPI   C4A 2922   4.620  11.436   8.306  0.1031 -0.1129 -0.1652
  183loPI   C5A 2923   4.354  11.215   8.123  0.0523  0.0294  0.1822
  183loPI   C6A 2924   3.819  11.213   7.950  0.1491  0.3565  0.0531
  183loPI   C1B 2925   4.875  11.272   9.378 -0.1535  0.0162  0.0515
  183loPI   C2B 2926   4.794  11.036   9.033  0.0088 -0.0287  0.0819
  183loPI   C3B 2927   4.541  10.976   8.569 -0.0260  0.0564  0.0503
  183loPI   C4B 2928   4.253  10.768   8.392  0.1949  0.0020 -0.3095
  184loPI    C1 2929  13.881   3.720  10.333 -0.0882 -0.1854  0.2157
  184loPI    C2 2930  13.484   3.733  10.283 -0.0756  0.1700  0.1841
  184loPI    C3 2931  13.659   3.962  10.561  0.0809 -0.1994  0.3982
  184loPI   PO4 2932  14.003   3.737  10.021  0.0087 -0.4635  0.1982
  184loPI   GL1 2933  13.926   3.605   9.708 -0.2546 -0.0229  0.2378
  184loPI   GL2 2934  14.183   3.562   9.487  0.1364  0.1851  0.0895
  184loPI   C1A 2935  13.622   3.533   9.401 -0.0577  0.4113 -0.0536
  184loPI   C2A 2936  13.548   3.726   9.032 -0.2450  0.2555 -0.2089
  184loPI   C3A 2937  13.273   3.825   8.866 -0.4264  0.2939 -0.0995
  184loPI   C4A 2938  13.144   3.789   8.542  0.0243 -0.2214  0.0843
  184loPI   C5A 2939  12.918   3.917   8.336 -0.1354 -0.0062 -0.1456
  184loPI   C6A 2940  12.795   3.769   8.043 -0.1857 -0.1732  0.1795
  184loPI   C1B 2941  14.072   3.620   9.041 -0.0691 -0.3134 -0.3042
  184loPI   C2B 2942  14.117   3.733   8.563  0.0383 -0.1125 -0.1783
  184loPI   C3B 2943  14.416   3.692   8.303 -0.0065 -0.1291  0.2981
  184loPI   C4B 2944  14.680   3.452   8.028 -0.0699 -0.1000 -0.1313
  185loPI    C1 2945  14.208  10.440  10.020 -0.1103  0.0561  0.0106
  185loPI    C2 2946  13.826  10.542   9.958 -0.1716 -0.0678  0.1763
  185loPI    C3 2947  14.040  10.731  10.238 -0.1790 -0.1507  0.2382
  185loPI   PO4 2948  14.434  10.404   9.806  0.0656  0.3463  0.1238
  185loPI   GL1 2949  14.530  10.195   9.529 -0.0483  0.0237 -0.1144
  185loPI   GL2 2950  14.720   9.919   9.505  0.0445  0.0636  0.0703
  185loPI   C1A 2951  14.291  10.029   9.117 -0.3324 -0.1676 -0.1286
  185loPI   C2A 2952  14.252   9.744   8.818  0.0115  0.0338  0.0124
  185loPI   C3A 2953  14.283   9.630   8.303  0.1918 -0.1497 -0.1229
  185loPI   C4A 2954  14.202   9.632   7.866  0.1309 -0.0110  0.1842
  185loPI   C5A 2955  14.094   9.835   7.430  0.0287 -0.1667 -0.0866
  185loPI   C6A 2956  14.238   9.964   7.028  0.1189  0.3702 -0.1333
  185loPI   C1B 2957  14.964   9.753   9.179 -0.2689 -0.2507  0.3862
  185loPI   C2B 2958  15.162   9.695   8.860 -0.4001 -0.1221  0.1719
  185loPI   C3B 2959  15.527   9.689   8.737 -0.0577  0.0079 -0.1525
  185loPI   C4B 2960  15.632   9.626   8.347 -0.1903 -0.0504  0.3431
  186loPI    C1 2961  11.229  14.148   9.560 -0.1009 -0.1207  0.0527
  186loPI    C2 2962  11.334  14.480   9.363 -0.3033 -0.0041  0.1380
  186loPI    C3 2963  11.602  14.189   9.422 -0.1053  0.1725  0.1215
  186loPI   PO4 2964  11.007  14.036   9.490 -0.2993 -0.1688 -0.0834
  186loPI   GL1 2965  10.932  14.062   9.051  0.2546 -0.1153  0.2425
  186loPI   GL2 2966  11.231  13.938   9.038  0.2180  0.0146  0.0737
  186loPI   C1A 2967  11.027  14.051   8.576  0.2337 -0.1699 -0.0732
  186loPI   C2A 2968  10.985  14.156   8.174 -0.0124 -0.1736 -0.1300
  186loPI   C3A 2969  10.718  14.049   7.790  0.1732 -0.1706 -0.0950
  186loPI   C4A 2970  10.301  14.069   7.470  0.0626 -0.1891  0.2484
  186loPI   C5A 2971   9.987  14.088   7.343  0.2481 -0.1075  0.0467
  186loPI   C6A 2972   9.621  13.847   7.168  0.1019  0.2203 -0.0484
  186loPI   C1B 2973  11.484  13.746   8.769  0.1176  0.0131  0.0303
  186loPI   C2B 2974  11.586  13.719   8.303 -0.1400 -0.0897 -0.0632
  186loPI   C3B 2975  11.737  13.692   7.916 -0.0271  0.3993 -0.0089
  186loPI   C4B 2976  11.724  13.969   7.695  0.2100  0.0183 -0.0397
  187loPI    C1 2977  14.563   7.987  10.609 -0.1324  0.1480 -0.1481
  187loPI    C2 2978  14.598   8.364  10.739  0.0354 -0.0033  0.2584
  187loPI    C3 2979  14.279   8.146  10.842 -0.1919  0.1061 -0.1917
  187loPI   PO4 2980  14.619   8.052  10.279  0.2450 -0.0702 -0.0049
  187loPI   GL1 2981  14.423   7.936   9.893  0.2251 -0.1331 -0.0580
  187loPI   GL2 2982  14.519   8.321   9.780  0.0920  0.1921 -0.1340
  187loPI   C1A 2983  14.453   7.694   9.521  0.0043 -0.3243 -0.0095
  187loPI   C2A 2984  14.320   7.739   9.086 -0.0956 -0.3139 -0.0899
  187loPI   C3A 2985  13.956   7.796   8.815 -0.0450 -0.0856 -0.1553
  187loPI   C4A 2986  13.843   7.708   8.339 -0.0070 -0.0075  0.1472
  187loPI   C5A 2987  13.982   7.732   7.988  0.2321 -0.1270 -0.2698
  187loPI   C6A 2988  14.392   7.654   7.962 -0.1348  0.2677  0.3282
  187loPI   C1B 2989  14.580   8.473   9.350  0.2017  0.0207 -0.0506
  187loPI   C2B 2990  14.447   8.603   8.960  0.0715  0.2014  0.1512
  187loPI   C3B 2991  14.391   8.718   8.550  0.0124 -0.1874  0.2372
  187loPI   C4B 2992  14.502   8.616   8.131  0.1682  0.2371 -0.0104
  188loPI    C1 2993   7.303   9.908  10.243 -0.0565 -0.3192  0.0098
  188loPI    C2 2994   7.065   9.650  10.435  0.0363 -0.3354  0.1037
  188loPI    C3 2995   7.158  10.001  10.604  0.1614 -0.3724  0.1128
  188loPI   PO4 2996   7.479   9.865  10.122  0.0002  0.1409  0.3684
  188loPI   GL1 2997   7.707   9.801   9.815 -0.1530 -0.5254  0.0770
  188loPI   GL2 2998   7.930   9.927   9.758  0.0494 -0.0412  0.1997
  188loPI   C1A 2999   7.508   9.439   9.624 -0.0603 -0.1225  0.0084
  188loPI   C2A 3000   7.557   9.218   9.235  0.3929  0.0707 -0.0523
  188loPI   C3A 3001   7.515   9.219   8.769  0.1843  0.1739 -0.1973
  188loPI   C4A 3002   7.541   9.088   8.311  0.0595 -0.0416 -0.4346
  188loPI   C5A 3003   7.847   9.069   8.044  0.1033 -0.0146  0.0940
  188loPI   C6A 3004   8.093   9.339   7.897  0.0974 -0.0449  0.2698
  188loPI   C1B 3005   7.787   9.754   9.314 -0.3133 -0.0234  0.2834
  188loPI   C2B 3006   7.806   9.607   8.852 -0.2853 -0.1090 -0.2727
  188loPI   C3B 3007   7.677   9.584   8.443 -0.1049 -0.0823  0.0193
  188loPI   C4B 3008   7.793   9.731   8.092 -0.1788  0.1291  0.0466
  189loPI    C1 3009  12.816   6.073  10.704  0.0882 -0.0988 -0.1900
  189loPI    C2 3010  12.997   6.339  10.941 -0.0778 -0.1076 -0.0522
  189loPI    C3 3011  13.102   5.954  10.957 -0.0122 -0.0905 -0.0718
  189loPI   PO4 3012  12.827   6.079  10.325  0.0350  0.0625 -0.0391
  189loPI   GL1 3013  12.799   6.038   9.855  0.0990 -0.1088  0.0773
  189loPI   GL2 3014  12.521   6.150   9.620 -0.0921 -0.1427 -0.1847
  189loPI   C1A 3015  13.051   6.269   9.584 -0.1785 -0.0423  0.0322
  189loPI   C2A 3016  13.257   6.313   9.088 -0.0627  0.0916 -0.0898
  189loPI   C3A 3017  13.497   6.299   8.774 -0.0047 -0.2815 -0.1014
  189loPI   C4A 3018  13.696   6.516   8.405 -0.3069 -0.1426 -0.0289
  189loPI   C5A 3019  13.937   6.858   8.279  0.1061  0.1975  0.1805
  189loPI   C6A 3020  14.145   7.126   8.340  0.0414 -0.1612 -0.0393
  189loPI   C1B 3021  12.756   6.305   9.225  0.0224 -0.2505 -0.0706
  189loPI   C2B 3022  12.833   6.189   8.805 -0.1875 -0.1579 -0.0561
  189loPI   C3B 3023  12.728   6.292   8.442  0.1525  0.4740 -0.3137
  189loPI   C4B 3024  12.821   6.415   8.054  0.2566 -0.1802 -0.3150
  190loPI    C1 3025  12.333   5.198  10.262 -0.0026  0.0216 -0.1250
  190loPI    C2 3026  12.340   5.245  10.659  0.4477  0.2790 -0.1564
  190loPI    C3 3027  12.442   4.893  10.498  0.2257  0.1618 -0.0453
  190loPI   PO4 3028  12.452   5.401  10.090 -0.1198  0.2315  0.0718
  190loPI   GL1 3029  12.573   5.326   9.666 -0.0702  0.0293 -0.1432
  190loPI   GL2 3030  12.424   5.623   9.672  0.0523  0.0574  0.0109
  190loPI   C1A 3031  12.439   5.224   9.266  0.0842 -0.4176  0.2256
  190loPI   C2A 3032  12.458   5.286   8.880 -0.2618 -0.1724 -0.4824
  190loPI   C3A 3033  12.485   5.432   8.515  0.1580 -0.0701  0.2674
  190loPI   C4A 3034  12.883   5.300   8.211  0.0445 -0.1633  0.0586
  190loPI   C5A 3035  13.125   5.194   7.818 -0.1247 -0.2130  0.2083
  190loPI   C6A 3036  13.025   4.810   7.580 -0.1177  0.0718 -0.2286
  190loPI   C1B 3037  12.749   5.748   9.329  0.0828  0.2835  0.0561
  190loPI   C2B 3038  12.802   5.737   8.844  0.0330 -0.0212  0.2150
  190loPI   C3B 3039  12.853   5.755   8.367 -0.0825 -0.0912  0.3274
  190loPI   C4B 3040  12.829   5.910   8.018 -0.1856 -0.0192 -0.1436
  191loPI    C1 3041   9.045  11.187   9.934 -0.0397  0.0605 -0.1012
  191loPI    C2 3042   8.895  11.152  10.303  0.1956  0.1325  0.0038
  191loPI    C3 3043   9.186  11.416  10.231  0.1785  0.0902 -0.2258
  191loPI   PO4 3044   8.990  10.912   9.835 -0.0674  0.2973 -0.0689
  191loPI   GL1 3045   8.759  10.729   9.602  0.4178 -0.1588 -0.0744
  191loPI   GL2 3046   8.551  10.592   9.702 -0.1427 -0.1407  0.1543
  191loPI   C1A 3047   8.675  10.473   9.252 -0.2016 -0.3122 -0.3334
  191loPI   C2A 3048   8.655  10.463   8.881  0.0901 -0.1911  0.1568
  191loPI   C3A 3049   8.494  10.205   8.548  0.0766  0.0749 -0.0034
  191loPI   C4A 3050   8.457  10.215   8.067  0.0751 -0.0642  0.0004
  191loPI   C5A 3051   8.191  10.593   7.895 -0.1532 -0.0689 -0.1274
  191loPI   C6A 3052   7.894  10.815   7.741  0.0448  0.1093 -0.2577
  191loPI   C1B 3053   8.197  10.463   9.446  0.0481  0.4541  0.2690
  191loPI   C2B 3054   8.131  10.479   9.056  0.0612  0.2640 -0.2367
  191loPI   C3B 3055   8.056  10.467   8.671  0.4054 -0.3939  0.1313
  191loPI   C4B 3056   8.252  10.595   8.376  0.1940  0.0356  0.0060
  192loPI    C1 3057   6.611   7.188  10.184  0.1449  0.0816  0.0149
  192loPI    C2 3058   6.765   7.325  10.526  0.0976  0.1381  0.0137
  192loPI    C3 3059   6.947   7.405  10.179  0.1472  0.0782  0.0258
  192loPI   PO4 3060   6.573   7.001  10.107 -0.3683  0.1815  0.4648
  192loPI   GL1 3061   6.769   6.846   9.777 -0.2235 -0.0253 -0.3297
  192loPI   GL2 3062   6.436   6.732   9.667 -0.1728 -0.1218  0.0961
  192loPI   C1A 3063   6.912   7.016   9.312 -0.3309 -0.0660 -0.1350
  192loPI   C2A 3064   7.080   6.953   8.915  0.0285  0.1972  0.0895
  192loPI   C3A 3065   7.347   7.081   8.506 -0.1371  0.1306  0.1721
  192loPI   C4A 3066   7.457   7.018   8.075  0.0207 -0.1901  0.0327
  192loPI   C5A 3067   7.302   6.765   7.750  0.1700 -0.4894  0.1968
  192loPI   C6A 3068   7.123   6.677   7.450  0.0657  0.2418  0.1724
  192loPI   C1B 3069   6.395   6.631   9.398  0.1209 -0.3521 -0.0530
  192loPI   C2B 3070   6.619   6.650   9.049  0.1106 -0.1314  0.1440
  192loPI   C3B 3071   6.798   6.563   8.694  0.1045  0.0097  0.0733
  192loPI   C4B 3072   7.094   6.638   8.370  0.1444 -0.0791 -0.3273
  193loPI    C1 3073  14.517   0.555  10.150  0.0526 -0.0343 -0.4007
  193loPI    C2 3074  14.825   0.545  10.405 -0.3812 -0.0820  0.1401
  193loPI    C3 3075  14.702   0.209  10.226 -0.2736 -0.1069  0.1125
  193loPI   PO4 3076  14.578   0.711   9.964 -0.0622 -0.0070 -0.0003
  193loPI   GL1 3077  14.311   0.723   9.571  0.0781  0.3033 -0.1223
  193loPI   GL2 3078  14.001   0.822   9.444  0.0865 -0.0582 -0.0529
  193loPI   C1A 3079  14.519   0.824   9.166 -0.1036  0.0691  0.2091
  193loPI   C2A 3080  14.446   0.798   8.818 -0.3874 -0.2078  0.4868
  193loPI   C3A 3081  14.582   0.844   8.396  0.0146  0.1535  0.1303
  193loPI   C4A 3082  14.478   0.944   8.034  0.1475  0.2812  0.0117
  193loPI   C5A 3083  14.558   1.013   7.685  0.4567 -0.0881 -0.0731
  193loPI   C6A 3084  14.564   1.141   7.311 -0.0002  0.1272  0.0558
  193loPI   C1B 3085  13.834   0.734   9.071 -0.1111 -0.1381  0.1341
  193loPI   C2B 3086  13.685   0.767   8.694 -0.3139  0.2345 -0.0800
  193loPI   C3B 3087  13.533   0.872   8.305  0.1634 -0.0484 -0.0018
  193loPI   C4B 3088  13.221   0.900   7.936  0.0691 -0.2607  0.2118
  194loPI    C1 3089   2.653   6.151  10.101 -0.0462  0.0326  0.0688
  194loPI    C2 3090   2.712   6.387   9.783 -0.1039 -0.0368  0.0062
  194loPI    C3 3091   2.786   6.525  10.151 -0.1252  0.0747 -0.0309
  194loPI   PO4 3092   2.461   5.981   9.899 -0.1130 -0.0925 -0.5480
  194loPI   GL1 3093   2.578   5.823   9.590 -0.0392  0.2298  0.5257
  194loPI   GL2 3094   2.823   5.701   9.554  0.2529  0.2497  0.2408
  194loPI   C1A 3095   2.631   5.951   9.169 -0.0826 -0.0737 -0.3432
  194loPI   C2A 3096   2.713   5.766   8.760  0.0250  0.3968  0.0639
  194loPI   C3A 3097   2.796   5.399   8.527  0.1522 -0.1415  0.1240
  194loPI   C4A 3098   3.047   5.248   8.291 -0.0970  0.0940  0.1349
  194loPI   C5A 3099   3.198   5.179   7.997 -0.1300 -0.2255 -0.0610
  194loPI   C6A 3100   3.407   4.934   7.764 -0.0483  0.1777  0.0212
  194loPI   C1B 3101   2.497   5.471   9.164  0.0369  0.1027  0.2136
  194loPI   C2B 3102   2.485   5.134   8.865 -0.3371 -0.2059  0.0655
  194loPI   C3B 3103   2.588   4.919   8.502  0.3935  0.2732 -0.2356
  194loPI   C4B 3104   2.474   5.214   8.205 -0.2735  0.0991  0.1719
  195loPI    C1 3105   1.057   7.203  10.309 -0.3255  0.2007  0.1649
  195loPI    C2 3106   1.196   6.887  10.511 -0.1722  0.0418 -0.1821
  195loPI    C3 3107   1.248   7.256  10.656 -0.0287 -0.0667  0.0466
  195loPI   PO4 3108   1.143   7.185  10.081  0.0073  0.2573  0.2223
  195loPI   GL1 3109   1.299   7.415   9.799 -0.1119 -0.1744 -0.2523
  195loPI   GL2 3110   1.661   7.420   9.802  0.1426  0.3258  0.1495
  195loPI   C1A 3111   1.325   7.324   9.394  0.1018  0.1423  0.0409
  195loPI   C2A 3112   0.935   7.310   9.158 -0.0428  0.0870 -0.1498
  195loPI   C3A 3113   0.625   7.179   8.908  0.1597 -0.0048 -0.2026
  195loPI   C4A 3114   0.386   7.058   8.570 -0.0769  0.0182  0.1486
  195loPI   C5A 3115   0.193   7.201   8.165  0.2248  0.0237 -0.0170
  195loPI   C6A 3116  -0.161   7.296   7.884 -0.0379  0.1543 -0.0154
  195loPI   C1B 3117   1.440   7.841   9.537  0.1991  0.1833  0.1036
  195loPI   C2B 3118   1.219   7.740   9.107  0.0461 -0.0795  0.1991
  195loPI   C3B 3119   1.072   7.661   8.712  0.2584 -0.0144  0.4187
  195loPI   C4B 3120   1.222   7.547   8.419 -0.0436  0.2616  0.0136
  196loPI    C1 3121  16.911   2.025  10.956 -0.2132  0.1351 -0.0200
  196loPI    C2 3122  16.649   1.795  11.152 -0.1122  0.0005 -0.0415
  196loPI    C3 3123  16.666   2.187  11.227  0.0023 -0.0666  0.3035
  196loPI   PO4 3124  16.961   2.025  10.668  0.0200  0.2342  0.0656
  196loPI   GL1 3125  16.774   2.134  10.152  0.3376 -0.0589 -0.1337
  196loPI   GL2 3126  17.138   2.028  10.202 -0.0358  0.2615 -0.3686
  196loPI   C1A 3127  16.761   2.300   9.762  0.3267 -0.3853  0.0696
  196loPI   C2A 3128  16.925   2.061   9.428 -0.0016  0.0407 -0.0142
  196loPI   C3A 3129  16.699   2.004   9.097  0.1681  0.1940 -0.2601
  196loPI   C4A 3130  16.384   1.938   8.798 -0.3917 -0.0019  0.0198
  196loPI   C5A 3131  16.174   1.838   8.498 -0.1728 -0.0284 -0.1130
  196loPI   C6A 3132  16.265   1.683   8.145 -0.1756 -0.1552  0.1752
  196loPI   C1B 3133  16.851   1.797   9.820 -0.2640 -0.0306 -0.0086
  196loPI   C2B 3134  17.100   1.607   9.557  0.2462  0.0761  0.3825
  196loPI   C3B 3135  17.214   1.764   9.109 -0.2797 -0.0552  0.0717
  196loPI   C4B 3136  17.068   2.014   8.762 -0.2737 -0.0076  0.1324
  197loPI    C1 3137  18.181  11.513  10.565  0.0840 -0.0052 -0.1107
  197loPI    C2 3138  18.247  11.805  10.831  0.2917  0.1324 -0.3094
  197loPI    C3 3139  18.458  11.466  10.850 -0.4200 -0.3075  0.3488
  197loPI   PO4 3140  18.157  11.652  10.333 -0.1953  0.2516  0.1703
  197loPI   GL1 3141  18.435  11.881   9.985 -0.0353  0.0088 -0.2975
  197loPI   GL2 3142  18.564  11.598   9.897 -0.1206  0.1769 -0.0139
  197loPI   C1A 3143  18.252  11.883   9.503 -0.1707  0.1357  0.1366
  197loPI   C2A 3144  18.260  12.044   9.134  0.1305 -0.0001 -0.1509
  197loPI   C3A 3145  18.056  11.981   8.759  0.1250  0.2312 -0.2558
  197loPI   C4A 3146  17.684  12.165   8.569  0.1086  0.1678  0.0211
  197loPI   C5A 3147  17.655  12.623   8.526  0.0376 -0.2792  0.0935
  197loPI   C6A 3148  17.600  12.989   8.505  0.1380 -0.1999 -0.1225
  197loPI   C1B 3149  18.604  11.545   9.525  0.0401 -0.1541 -0.1490
  197loPI   C2B 3150  18.515  11.551   9.100  0.2454 -0.3616 -0.1113
  197loPI   C3B 3151  18.573  11.666   8.724  0.1734 -0.0273 -0.0326
  197loPI   C4B 3152  18.221  11.562   8.559 -0.0636 -0.1383 -0.0522
  198loPI    C1 3153  15.060   9.546  10.367  0.2304 -0.1818 -0.0213
  198loPI    C2 3154  14.696   9.592  10.206  0.1300 -0.2405  0.1844
  198loPI    C3 3155  14.756   9.315  10.488  0.3181 -0.1820  0.2033
  198loPI   PO4 3156  15.296   9.532  10.171  0.0260  0.0045  0.1028
  198loPI   GL1 3157  15.474   9.386   9.839  0.0710 -0.1522  0.1827
  198loPI   GL2 3158  15.342   9.148   9.739 -0.0442 -0.0894 -0.1464
  198loPI   C1A 3159  15.705   9.655   9.518  0.3039 -0.1603  0.0476
  198loPI   C2A 3160  15.784   9.510   9.106  0.2261 -0.3172 -0.1360
  198loPI   C3A 3161  16.028   9.559   8.726 -0.2419 -0.0179 -0.1111
  198loPI   C4A 3162  16.016   9.887   8.494  0.0154 -0.1188 -0.2092
  198loPI   C5A 3163  16.231  10.300   8.399  0.1652 -0.1594  0.0067
  198loPI   C6A 3164  16.099  10.737   8.456 -0.1564 -0.1056 -0.1388
  198loPI   C1B 3165  15.452   8.891   9.485 -0.1201  0.0018  0.1823
  198loPI   C2B 3166  15.638   8.887   9.131 -0.0465  0.3868  0.1662
  198loPI   C3B 3167  15.867   9.086   8.794  0.1035  0.4880 -0.4047
  198loPI   C4B 3168  16.008   8.778   8.471  0.1155 -0.2166 -0.2388
  199loPI    C1 3169   6.889   4.281  10.636 -0.1487 -0.1650  0.2349
  199loPI    C2 3170   6.649   4.551  10.808  0.1436  0.0004  0.3918
  199loPI    C3 3171   7.027   4.647  10.720  0.1636 -0.2657  0.1734
  199loPI   PO4 3172   6.853   4.223  10.365 -0.1153  0.2671 -0.4692
  199loPI   GL1 3173   6.813   4.333   9.992 -0.0259  0.0321  0.1176
  199loPI   GL2 3174   6.566   4.406   9.887 -0.0026  0.0279 -0.1363
  199loPI   C1A 3175   7.110   4.208   9.603 -0.0871  0.0028 -0.3738
  199loPI   C2A 3176   7.111   4.025   9.177 -0.3766  0.0706  0.0961
  199loPI   C3A 3177   7.450   4.076   8.795  0.2044  0.3282  0.1062
  199loPI   C4A 3178   7.506   4.368   8.467  0.3234  0.1668 -0.0438
  199loPI   C5A 3179   7.737   4.483   8.164  0.1879  0.0409 -0.1365
  199loPI   C6A 3180   8.166   4.580   7.905 -0.1350 -0.0924 -0.2084
  199loPI   C1B 3181   6.424   4.750   9.558  0.0946 -0.2620 -0.3030
  199loPI   C2B 3182   6.326   4.940   9.251  0.1733 -0.0473 -0.3069
  199loPI   C3B 3183   6.230   4.857   8.879  0.1971 -0.0513 -0.1610
  199loPI   C4B 3184   6.118   4.850   8.368  0.2518 -0.1114 -0.2562
  200loPI    C1 3185   3.757   3.480  10.395  0.1152  0.1784 -0.2541
  200loPI    C2 3186   3.464   3.339  10.162 -0.1209  0.0145  0.1312
  200loPI    C3 3187   3.393   3.645  10.409  0.0181 -0.0604  0.2656
  200loPI   PO4 3188   3.928   3.507  10.073 -0.1003  0.0011 -0.3937
  200loPI   GL1 3189   4.043   3.294   9.613  0.0154 -0.1990 -0.1087
  200loPI   GL2 3190   4.271   3.046   9.866 -0.0187 -0.2729  0.3769
  200loPI   C1A 3191   4.350   3.464   9.376 -0.3576 -0.0400 -0.2033
  200loPI   C2A 3192   4.367   3.634   9.023 -0.1222  0.1953 -0.1264
  200loPI   C3A 3193   4.207   3.886   8.735  0.1747 -0.0905 -0.0621
  200loPI   C4A 3194   4.007   3.695   8.396 -0.3953  0.1463 -0.1836
  200loPI   C5A 3195   3.822   3.617   8.784  0.1737 -0.2503  0.0684
  200loPI   C6A 3196   3.889   3.412   9.181 -0.0580  0.0574 -0.1761
  200loPI   C1B 3197   4.325   2.898   9.503  0.0935  0.1759  0.0730
  200loPI   C2B 3198   4.264   3.024   9.078  0.0200  0.0853  0.2782
  200loPI   C3B 3199   4.034   3.147   8.718  0.0257 -0.1192  0.1027
  200loPI   C4B 3200   3.786   3.249   8.292 -0.1591  0.0287  0.0922
  201loPI    C1 3201   8.780  18.102   9.900  0.0293 -0.1138  0.1048
  201loPI    C2 3202   8.672  18.193  10.274  0.0062  0.0716  0.0540
  201loPI    C3 3203   9.035  18.041  10.203  0.0568  0.1527  0.1376
  201loPI   PO4 3204   8.601  17.910   9.763 -0.0781  0.1092 -0.0408
  201loPI   GL1 3205   8.393  17.776   9.430  0.2594 -0.1486 -0.3768
  201loPI   GL2 3206   8.494  17.527   9.412 -0.3218  0.5433 -0.0010
  201loPI   C1A 3207   8.472  17.963   9.087  0.2314 -0.1429 -0.0234
  201loPI   C2A 3208   8.347  18.018   8.708 -0.1159  0.2408  0.3029
  201loPI   C3A 3209   8.388  17.971   8.389  0.1354 -0.2461  0.2837
  201loPI   C4A 3210   8.191  18.010   8.013  0.1871 -0.2444 -0.2462
  201loPI   C5A 3211   8.111  17.740   7.606 -0.0612 -0.0326  0.1424
  201loPI   C6A 3212   8.027  17.227   7.466  0.0638 -0.2903 -0.0151
  201loPI   C1B 3213   8.873  17.655   9.179  0.2213  0.3738 -0.0575
  201loPI   C2B 3214   8.825  17.640   8.725  0.0643  0.0330  0.2306
  201loPI   C3B 3215   8.835  17.747   8.324 -0.1787 -0.0748 -0.1209
  201loPI   C4B 3216   8.955  17.843   7.899 -0.1321  0.1809  0.3169
  202loPI    C1 3217   7.774   0.432   9.899  0.3548 -0.0146 -0.0654
  202loPI    C2 3218   7.885   0.070  10.026  0.1651 -0.0179  0.0959
  202loPI    C3 3219   7.579   0.258  10.201  0.0496  0.0791 -0.2045
  202loPI   PO4 3220   7.677   0.384   9.666  0.4210 -0.1038 -0.1114
  202loPI   GL1 3221   7.398   0.512   9.363 -0.1972 -0.1530  0.1378
  202loPI   GL2 3222   7.445   0.187   9.284  0.1526 -0.1758  0.0480
  202loPI   C1A 3223   7.609   0.707   8.948  0.1288 -0.0991 -0.3825
  202loPI   C2A 3224   7.480   0.693   8.513 -0.2815  0.0630 -0.0863
  202loPI   C3A 3225   7.532   0.970   8.213 -0.0319  0.1288 -0.2728
  202loPI   C4A 3226   7.326   1.060   7.903 -0.0088 -0.0418  0.0287
  202loPI   C5A 3227   7.003   1.424   7.704  0.3225  0.0675  0.2046
  202loPI   C6A 3228   6.769   1.790   7.575  0.0489  0.1815 -0.2116
  202loPI   C1B 3229   7.481   0.121   8.782 -0.0828  0.0447 -0.1750
  202loPI   C2B 3230   7.299   0.241   8.323  0.1243 -0.2183  0.0672
  202loPI   C3B 3231   7.254   0.439   7.969  0.5813 -0.2400  0.2886
  202loPI   C4B 3232   6.881   0.724   7.777 -0.2849  0.2489  0.0910
  203loPI    C1 3233   5.044  13.669  10.378  0.0635  0.0656  0.0722
  203loPI    C2 3234   5.391  13.607  10.188  0.1806  0.2005  0.2389
  203loPI    C3 3235   5.385  13.646  10.586 -0.0839 -0.2572  0.2870
  203loPI   PO4 3236   4.964  13.859  10.188  0.0801  0.0191  0.0392
  203loPI   GL1 3237   4.875  13.818   9.782 -0.0777  0.1421  0.4663
  203loPI   GL2 3238   4.608  13.878   9.548  0.1316 -0.2992  0.1202
  203loPI   C1A 3239   5.183  13.827   9.469 -0.0949 -0.0084 -0.0241
  203loPI   C2A 3240   5.464  14.198   9.246  0.0701  0.0082  0.2359
  203loPI   C3A 3241   5.689  14.212   8.855 -0.0766 -0.1101  0.2574
  203loPI   C4A 3242   5.891  14.442   8.477 -0.0994  0.0797 -0.0115
  203loPI   C5A 3243   5.599  14.655   8.183  0.0528 -0.0687 -0.0893
  203loPI   C6A 3244   5.474  14.951   7.883 -0.0273 -0.4817  0.0434
  203loPI   C1B 3245   4.393  13.736   9.118 -0.1418  0.1630 -0.3038
  203loPI   C2B 3246   4.451  13.931   8.650 -0.3833 -0.3509  0.4690
  203loPI   C3B 3247   4.274  14.318   8.347 -0.1782 -0.0748  0.0035
  203loPI   C4B 3248   4.196  14.364   7.978 -0.1332 -0.0738 -0.0276
  204loPI    C1 3249  14.167  12.835   9.877 -0.0499  0.0810 -0.1552
  204loPI    C2 3250  14.411  12.952  10.172 -0.0701  0.2806 -0.2165
  204loPI    C3 3251  14.271  12.578  10.165  0.2526  0.1566 -0.1933
  204loPI   PO4 3252  14.284  13.053   9.723  0.0022 -0.0604  0.0407
  204loPI   GL1 3253  14.163  13.238   9.317  0.0656  0.1067 -0.0961
  204loPI   GL2 3254  13.854  13.199   9.355 -0.1147 -0.1083  0.3082
  204loPI   C1A 3255  14.450  13.143   9.027  0.1323  0.1012 -0.4105
  204loPI   C2A 3256  14.404  13.112   8.610 -0.2769  0.2219 -0.0130
  204loPI   C3A 3257  14.266  13.321   8.168  0.4903 -0.3307 -0.0968
  204loPI   C4A 3258  13.859  13.275   8.063  0.2347  0.1203  0.1266
  204loPI   C5A 3259  13.560  13.175   7.938  0.0151  0.0985 -0.1276
  204loPI   C6A 3260  13.503  12.774   7.720 -0.2267 -0.0598  0.4521
  204loPI   C1B 3261  13.906  13.411   8.953 -0.0419  0.1695  0.1736
  204loPI   C2B 3262  13.964  13.398   8.579  0.0367  0.2085 -0.1350
  204loPI   C3B 3263  13.902  13.731   8.298 -0.0202 -0.0477  0.0939
  204loPI   C4B 3264  14.107  13.993   8.046  0.1662  0.0890  0.0205
  205loPI    C1 3265  12.863   5.018  10.021  0.1915  0.0333 -0.2127
  205loPI    C2 3266  12.514   4.890   9.873  0.1310  0.1393 -0.1638
  205loPI    C3 3267  12.708   4.672  10.147  0.0553  0.1273 -0.1197
  205loPI   PO4 3268  13.039   5.114   9.747  0.0211 -0.3999  0.1599
  205loPI   GL1 3269  12.898   5.028   9.410  0.2136  0.2205 -0.2102
  205loPI   GL2 3270  12.787   4.814   9.178 -0.0530 -0.0751  0.3112
  205loPI   C1A 3271  12.897   5.282   9.074 -0.3412 -0.5641  0.1494
  205loPI   C2A 3272  13.057   5.358   8.657  0.0943  0.1405 -0.0495
  205loPI   C3A 3273  13.325   5.536   8.333  0.0908  0.2910 -0.0815
  205loPI   C4A 3274  13.596   5.396   7.994  0.2333 -0.1062  0.1803
  205loPI   C5A 3275  14.042   5.450   7.994  0.0104  0.3082  0.3779
  205loPI   C6A 3276  14.436   5.430   8.001 -0.1036 -0.2301 -0.2312
  205loPI   C1B 3277  12.737   4.933   8.644  0.2839  0.1235 -0.0794
  205loPI   C2B 3278  12.792   4.753   8.261  0.2981 -0.0230 -0.0251
  205loPI   C3B 3279  12.467   4.615   7.778 -0.1749  0.1310 -0.1320
  205loPI   C4B 3280  12.230   4.787   7.404  0.0165  0.0279 -0.2776
  206loPI    C1 3281   3.885   1.497  10.272  0.0450 -0.1123 -0.1844
  206loPI    C2 3282   3.685   1.600  10.603 -0.2211 -0.1178 -0.3397
  206loPI    C3 3283   4.067   1.481  10.628 -0.1887  0.0353 -0.0554
  206loPI   PO4 3284   3.810   1.712  10.081 -0.1311 -0.1133  0.0849
  206loPI   GL1 3285   3.768   1.649   9.636  0.0647  0.0136  0.0016
  206loPI   GL2 3286   4.098   1.824   9.669 -0.1537 -0.2019  0.1399
  206loPI   C1A 3287   3.641   1.776   9.351 -0.2299 -0.2066  0.2926
  206loPI   C2A 3288   3.679   1.903   8.947 -0.1375 -0.1545 -0.1675
  206loPI   C3A 3289   3.761   1.805   8.503 -0.1328 -0.1410  0.0583
  206loPI   C4A 3290   3.991   1.810   8.130  0.0273  0.2048  0.1840
  206loPI   C5A 3291   4.108   1.413   7.842 -0.1975 -0.2424  0.0614
  206loPI   C6A 3292   4.063   1.472   7.482  0.1128 -0.0077 -0.0743
  206loPI   C1B 3293   4.174   2.016   9.232  0.2015  0.1426  0.1416
  206loPI   C2B 3294   4.068   2.204   8.799  0.3783 -0.2789 -0.0588
  206loPI   C3B 3295   3.897   2.253   8.369 -0.0189 -0.1173 -0.2506
  206loPI   C4B 3296   3.468   2.167   8.118 -0.0545  0.0798 -0.1718
  207loPI    C1 3297   2.353   3.361  10.247 -0.0876 -0.4668 -0.0194
  207loPI    C2 3298   2.455   3.574  10.570  0.2098 -0.2568 -0.2452
  207loPI    C3 3299   2.462   3.174  10.583  0.4863 -0.2487 -0.0727
  207loPI   PO4 3300   2.151   3.490  10.132  0.1037  0.0634 -0.0866
  207loPI   GL1 3301   2.182   3.778   9.853  0.3144  0.0775 -0.2184
  207loPI   GL2 3302   1.813   3.842   9.695 -0.2416  0.0409 -0.0591
  207loPI   C1A 3303   2.391   3.897   9.374  0.1905  0.2157  0.0177
  207loPI   C2A 3304   2.363   4.075   8.978 -0.2157 -0.2870 -0.0912
  207loPI   C3A 3305   2.612   4.181   8.647  0.0523  0.3040 -0.0851
  207loPI   C4A 3306   3.047   4.160   8.519  0.3579 -0.1947 -0.3205
  207loPI   C5A 3307   3.399   4.477   8.656  0.0158 -0.1771  0.0085
  207loPI   C6A 3308   3.730   4.712   8.713  0.1229  0.6540  0.1508
  207loPI   C1B 3309   1.723   3.836   9.343  0.0590  0.0265 -0.2708
  207loPI   C2B 3310   1.519   3.803   9.008  0.1361  0.2494 -0.2820
  207loPI   C3B 3311   1.557   3.833   8.574  0.0816  0.3081 -0.0049
  207loPI   C4B 3312   1.445   3.695   8.103 -0.0235 -0.0773  0.1372
  208loPI    C1 3313  14.302  16.800  10.402 -0.0083 -0.1407  0.0098
  208loPI    C2 3314  14.665  16.944  10.489  0.1987 -0.4957 -0.2420
  208loPI    C3 3315  14.447  16.768  10.774  0.1089 -0.0528 -0.0278
  208loPI   PO4 3316  14.199  16.962  10.208  0.1179 -0.1628  0.4167
  208loPI   GL1 3317  14.257  17.166   9.814  0.3547 -0.0657  0.0300
  208loPI   GL2 3318  14.301  17.423   9.730  0.0913 -0.1839  0.1599
  208loPI   C1A 3319  14.533  17.092   9.472 -0.0606  0.0661  0.0169
  208loPI   C2A 3320  14.633  17.244   9.035  0.2665 -0.1854 -0.2329
  208loPI   C3A 3321  14.570  17.251   8.606  0.0068 -0.2967 -0.0097
  208loPI   C4A 3322  14.351  17.199   8.274 -0.1805  0.2346  0.0844
  208loPI   C5A 3323  14.110  17.053   7.992 -0.1689  0.4239  0.1474
  208loPI   C6A 3324  13.780  16.848   7.794  0.1711 -0.1115 -0.0278
  208loPI   C1B 3325  14.465  17.666   9.310  0.1561  0.4339  0.0898
  208loPI   C2B 3326  14.668  17.808   8.860  0.3416 -0.2797 -0.2239
  208loPI   C3B 3327  14.809  17.806   8.549 -0.1041  0.1267  0.2860
  208loPI   C4B 3328  15.058  18.087   8.350 -0.0101 -0.1625 -0.2013
  209loPI    C1 3329   2.146   1.579   9.892 -0.0221 -0.0469  0.3067
  209loPI    C2 3330   1.997   1.408  10.221 -0.4396  0.0508  0.1749
  209loPI    C3 3331   2.115   1.181   9.915 -0.0277 -0.0416  0.3951
  209loPI   PO4 3332   2.350   1.730   9.982  0.0646  0.0267 -0.1449
  209loPI   GL1 3333   2.762   1.712   9.858  0.2129 -0.3113  0.0899
  209loPI   GL2 3334   2.642   1.565   9.600 -0.0089 -0.0377  0.2404
  209loPI   C1A 3335   3.052   2.077   9.593  0.0457 -0.3369 -0.1403
  209loPI   C2A 3336   3.248   2.109   9.158  0.1723  0.0734  0.0982
  209loPI   C3A 3337   3.218   1.849   8.811  0.1607 -0.3267  0.2334
  209loPI   C4A 3338   3.140   1.787   8.289  0.1218 -0.2706  0.3890
  209loPI   C5A 3339   3.213   1.750   7.828 -0.2113  0.1186 -0.1070
  209loPI   C6A 3340   3.178   1.656   7.446  0.2497  0.1247 -0.0933
  209loPI   C1B 3341   2.388   1.556   9.248  0.2864  0.1226  0.0022
  209loPI   C2B 3342   2.443   1.496   8.804 -0.1208 -0.1308 -0.1912
  209loPI   C3B 3343   2.482   1.383   8.405  0.2284 -0.1993  0.1513
  209loPI   C4B 3344   2.201   1.305   8.083  0.0185  0.0330  0.1470
  210loPI    C1 3345   3.272  17.028  10.029  0.0567  0.1037 -0.1757
  210loPI    C2 3346   2.976  16.997  10.295  0.0859  0.1944 -0.1321
  210loPI    C3 3347   3.354  17.030  10.420  0.1455 -0.2135 -0.1899
  210loPI   PO4 3348   3.248  16.941   9.916 -0.0039  0.2455  0.1382
  210loPI   GL1 3349   3.293  17.218   9.499 -0.0337  0.1090 -0.1364
  210loPI   GL2 3350   3.193  17.490   9.509 -0.2069 -0.3698 -0.0728
  210loPI   C1A 3351   2.918  17.074   9.211 -0.3268 -0.1965  0.0465
  210loPI   C2A 3352   2.803  16.951   8.783  0.2178 -0.1696 -0.1751
  210loPI   C3A 3353   2.736  16.733   8.397 -0.1326  0.1830  0.1818
  210loPI   C4A 3354   3.003  16.535   7.989 -0.3960 -0.1539  0.2444
  210loPI   C5A 3355   2.959  16.562   7.557 -0.0229  0.1037 -0.0536
  210loPI   C6A 3356   2.811  16.695   7.126  0.2487 -0.0384  0.0263
  210loPI   C1B 3357   3.086  17.531   9.077  0.2442 -0.1361  0.2447
  210loPI   C2B 3358   2.776  17.441   8.669  0.0870  0.0031 -0.1956
  210loPI   C3B 3359   2.611  17.239   8.370  0.0410 -0.0175  0.1616
  210loPI   C4B 3360   2.158  17.266   8.092 -0.1313 -0.0792 -0.0703
  211loPI    C1 3361   3.917   9.419  10.245 -0.0059  0.0977 -0.0939
  211loPI    C2 3362   3.560   9.282  10.127 -0.1050  0.0251  0.2780
  211loPI    C3 3363   3.628   9.357  10.514  0.3026 -0.0145  0.2185
  211loPI   PO4 3364   3.973   9.583  10.064  0.1540 -0.1622  0.1729
  211loPI   GL1 3365   4.273   9.560   9.793 -0.3525  0.2685 -0.2495
  211loPI   GL2 3366   4.494   9.335   9.647 -0.3077  0.1377  0.0832
  211loPI   C1A 3367   3.952   9.745   9.443 -0.3713 -0.0925  0.5130
  211loPI   C2A 3368   4.047   9.799   8.988  0.0473 -0.3049  0.2586
  211loPI   C3A 3369   4.013   9.720   8.497 -0.0796 -0.1904  0.3077
  211loPI   C4A 3370   4.060   9.903   8.185 -0.0196 -0.1900  0.0542
  211loPI   C5A 3371   3.910  10.344   8.169  0.0568 -0.0585  0.3128
  211loPI   C6A 3372   3.494  10.477   8.329  0.0358  0.0680 -0.0195
  211loPI   C1B 3373   4.405   9.526   9.176  0.2893  0.0457  0.2738
  211loPI   C2B 3374   4.487   9.636   8.751  0.1594  0.1374  0.1379
  211loPI   C3B 3375   4.513  10.059   8.585 -0.1225  0.0334  0.0007
  211loPI   C4B 3376   4.629  10.466   8.705 -0.0136 -0.0256 -0.0849
  212loPI    C1 3377  11.945   6.106  10.272 -0.0532  0.1390 -0.0265
  212loPI    C2 3378  11.672   6.374  10.390 -0.1009  0.0311  0.1116
  212loPI    C3 3379  11.827   6.117  10.654  0.0053 -0.0238 -0.0030
  212loPI   PO4 3380  12.035   6.325  10.083 -0.1515  0.0355  0.0912
  212loPI   GL1 3381  12.218   6.544   9.720 -0.0829 -0.0328  0.1995
  212loPI   GL2 3382  12.056   6.257   9.583  0.0737 -0.1626 -0.0403
  212loPI   C1A 3383  12.102   6.590   9.235 -0.2110  0.2390  0.3553
  212loPI   C2A 3384  12.308   6.366   8.872  0.2738 -0.1288  0.0667
  212loPI   C3A 3385  12.378   6.017   8.701  0.0708 -0.2026 -0.0635
  212loPI   C4A 3386  12.389   5.911   8.320 -0.0278 -0.0854 -0.0508
  212loPI   C5A 3387  12.405   5.582   8.026  0.0130 -0.1458 -0.0818
  212loPI   C6A 3388  12.639   5.587   7.622  0.0985 -0.2446  0.0961
  212loPI   C1B 3389  12.150   6.037   9.283  0.0708  0.1459 -0.1459
  212loPI   C2B 3390  12.169   5.680   9.054  0.1021  0.0509 -0.0750
  212loPI   C3B 3391  12.074   5.609   8.666 -0.1158 -0.1477 -0.3136
  212loPI   C4B 3392  12.002   5.470   8.313 -0.0561 -0.0334  0.0171
  213loPI    C1 3393  12.620  16.924  10.191  0.0362  0.1026  0.0065
  213loPI    C2 3394  12.968  16.784  10.052 -0.1715 -0.4102 -0.0192
  213loPI    C3 3395  12.899  16.794  10.446  0.0464  0.1397  0.0145
  213loPI   PO4 3396  12.507  16.953   9.965 -0.0103 -0.4030  0.4112
  213loPI   GL1 3397  12.610  16.949   9.499 -0.2414  0.1310  0.0549
  213loPI   GL2 3398  12.783  17.124   9.376 -0.1843 -0.2467  0.1456
  213loPI   C1A 3399  12.461  16.676   9.199  0.3057 -0.0375 -0.1789
  213loPI   C2A 3400  12.556  16.733   8.889 -0.0105 -0.3862 -0.4380
  213loPI   C3A 3401  12.754  16.797   8.511 -0.2310 -0.3054 -0.1626
  213loPI   C4A 3402  12.981  16.994   8.216  0.2232  0.0635  0.0701
  213loPI   C5A 3403  13.336  17.203   7.940 -0.0083  0.2408  0.3419
  213loPI   C6A 3404  13.496  17.737   8.004 -0.1550 -0.0477 -0.0312
  213loPI   C1B 3405  12.884  17.137   8.977  0.3179 -0.1045 -0.0990
  213loPI   C2B 3406  13.167  17.036   8.660  0.0113  0.3678  0.0802
  213loPI   C3B 3407  13.459  16.917   8.310 -0.0135  0.2094 -0.2336
  213loPI   C4B 3408  13.862  16.826   8.377 -0.1210  0.1317  0.2556
  214loPI    C1 3409   9.591  16.729   9.853 -0.2638  0.3232 -0.4244
  214loPI    C2 3410   9.803  16.897  10.147  0.0106 -0.1408 -0.3469
  214loPI    C3 3411   9.406  16.866  10.180  0.0272 -0.0884 -0.0751
  214loPI   PO4 3412   9.775  16.488   9.804  0.0684 -0.0708 -0.3132
  214loPI   GL1 3413   9.923  16.538   9.425 -0.0227 -0.2009 -0.0442
  214loPI   GL2 3414   9.584  16.617   9.302 -0.1382  0.0329 -0.0869
  214loPI   C1A 3415   9.942  16.240   9.046 -0.1311  0.2220 -0.0884
  214loPI   C2A 3416   9.883  16.175   8.632 -0.0154 -0.0501 -0.1397
  214loPI   C3A 3417   9.889  16.342   8.163  0.1608 -0.2348  0.0907
  214loPI   C4A 3418   9.944  16.415   7.800  0.1243 -0.0153 -0.1727
  214loPI   C5A 3419   9.872  16.787   7.622  0.0319 -0.1584 -0.1880
  214loPI   C6A 3420  10.125  17.192   7.714  0.1219 -0.0883 -0.2169
  214loPI   C1B 3421   9.586  16.640   8.888 -0.1040  0.2236  0.0471
  214loPI   C2B 3422   9.608  16.705   8.426 -0.2007 -0.0598 -0.2886
  214loPI   C3B 3423   9.719  16.789   8.079 -0.0371  0.0217  0.1422
  214loPI   C4B 3424   9.724  17.236   7.939 -0.1581 -0.0979  0.3275
  215loPI    C1 3425  14.323   9.927  10.244  0.1703 -0.0164 -0.1599
  215loPI    C2 3426  13.951  10.073  10.264  0.1223 -0.1708  0.1443
  215loPI    C3 3427  14.247  10.250  10.467  0.1577 -0.2162  0.1323
  215loPI   PO4 3428  14.353   9.848   9.919  0.0160  0.0110  0.1336
  215loPI   GL1 3429  14.336   9.570   9.603  0.0364 -0.2086 -0.3950
  215loPI   GL2 3430  13.991   9.701   9.469 -0.0763 -0.0822  0.0036
  215loPI   C1A 3431  14.566   9.449   9.225  0.2589 -0.0176 -0.2316
  215loPI   C2A 3432  14.718   9.472   8.803  0.0945 -0.0416  0.0739
  215loPI   C3A 3433  14.583   9.252   8.481  0.1188  0.1143  0.0567
  215loPI   C4A 3434  14.459   9.076   8.140 -0.3255  0.0897  0.2009
  215loPI   C5A 3435  14.228   8.989   7.795 -0.1144 -0.1363 -0.1006
  215loPI   C6A 3436  13.956   9.323   7.593 -0.1299  0.0104  0.1841
  215loPI   C1B 3437  14.067   9.369   9.278  0.2680  0.2190  0.0829
  215loPI   C2B 3438  14.181   9.222   8.880 -0.2720 -0.1360 -0.3784
  215loPI   C3B 3439  14.035   9.100   8.478 -0.0679 -0.3072 -0.0400
  215loPI   C4B 3440  13.986   8.809   8.221  0.1925 -0.0861 -0.0845
  216loPI    C1 3441   3.023   3.295  10.441 -0.2332  0.2719 -0.0620
  216loPI    C2 3442   2.893   3.353  10.815  0.0635 -0.0432  0.0959
  216loPI    C3 3443   2.972   2.983  10.686  0.2383  0.0885 -0.1853
  216loPI   PO4 3444   2.864   3.392  10.264  0.1905 -0.2636  0.0157
  216loPI   GL1 3445   2.695   3.398   9.888 -0.3882 -0.2236  0.1595
  216loPI   GL2 3446   2.445   3.264   9.736 -0.0781 -0.0409 -0.0488
  216loPI   C1A 3447   2.763   3.486   9.419  0.2615 -0.2031 -0.0335
  216loPI   C2A 3448   2.629   3.557   9.119  0.0996  0.1429 -0.0193
  216loPI   C3A 3449   2.417   3.647   8.733 -0.0860 -0.3383  0.3055
  216loPI   C4A 3450   2.563   3.509   8.329  0.1918  0.1834  0.0618
  216loPI   C5A 3451   2.710   3.845   8.159 -0.1516  0.0461  0.0040
  216loPI   C6A 3452   2.759   4.281   8.146  0.0073  0.2397 -0.1104
  216loPI   C1B 3453   2.440   3.075   9.404 -0.0592 -0.2781  0.1960
  216loPI   C2B 3454   2.377   3.114   8.969 -0.1948 -0.2734 -0.3359
  216loPI   C3B 3455   2.428   3.092   8.568  0.0732  0.0384  0.0669
  216loPI   C4B 3456   2.268   3.129   8.206 -0.0677  0.2644  0.1866
  217loPI    C1 3457   1.270   0.436  10.515 -0.0355 -0.2727  0.0712
  217loPI    C2 3458   0.994   0.590  10.760  0.0299  0.0166 -0.0328
  217loPI    C3 3459   0.945   0.223  10.609 -0.1635 -0.0405  0.1634
  217loPI   PO4 3460   1.432   0.552  10.205  0.0042  0.1881  0.0179
  217loPI   GL1 3461   1.666   0.461   9.870  0.1757  0.1719 -0.0790
  217loPI   GL2 3462   1.426   0.170   9.763  0.1489  0.0059 -0.0309
  217loPI   C1A 3463   1.364   0.594   9.432  0.1836 -0.0709  0.0457
  217loPI   C2A 3464   1.163   0.561   9.002  0.1484 -0.0098 -0.0776
  217loPI   C3A 3465   1.109   0.775   8.653  0.1834  0.1405  0.0224
  217loPI   C4A 3466   0.924   0.783   8.233  0.1201 -0.0499  0.1094
  217loPI   C5A 3467   0.616   0.919   7.997 -0.0725 -0.0239 -0.0430
  217loPI   C6A 3468   0.196   0.865   7.959 -0.2418  0.1334 -0.1192
  217loPI   C1B 3469   1.210   0.147   9.266 -0.0867 -0.0966 -0.0364
  217loPI   C2B 3470   1.091   0.107   8.803 -0.1545 -0.1367  0.0089
  217loPI   C3B 3471   1.201   0.203   8.386 -0.0746 -0.1637  0.0801
  217loPI   C4B 3472   1.266   0.142   7.964  0.2404 -0.2578 -0.0492
  218loPI    C1 3473   1.432   3.036   9.819 -0.4292 -0.0096 -0.1986
  218loPI    C2 3474   1.447   3.425   9.727  0.2479  0.0428  0.0740
  218loPI    C3 3475   1.256   3.304  10.057  0.0370  0.1403 -0.0105
  218loPI   PO4 3476   1.699   2.967   9.831 -0.0145 -0.1441 -0.0458
  218loPI   GL1 3477   1.981   2.997   9.478  0.1379  0.2123 -0.3707
  218loPI   GL2 3478   1.964   3.339   9.681 -0.0295 -0.0292  0.2314
  218loPI   C1A 3479   2.083   2.756   9.174  0.1594  0.2221 -0.1242
  218loPI   C2A 3480   2.112   2.781   8.753 -0.2138 -0.0121 -0.1054
  218loPI   C3A 3481   2.157   2.700   8.419 -0.1397 -0.0789 -0.0865
  218loPI   C4A 3482   1.986   2.774   8.015  0.1302 -0.0540 -0.0771
  218loPI   C5A 3483   1.602   2.622   7.709 -0.0234 -0.0384  0.0036
  218loPI   C6A 3484   1.156   2.706   7.766  0.0607  0.4046  0.1699
  218loPI   C1B 3485   2.079   3.487   9.285 -0.2218 -0.0680  0.1341
  218loPI   C2B 3486   1.973   3.646   8.898  0.1594  0.1207  0.0754
  218loPI   C3B 3487   2.016   3.660   8.455  0.1931 -0.0852  0.4136
  218loPI   C4B 3488   1.941   3.690   8.034  0.0943  0.1205  0.1798
  219loPI    C1 3489   2.078  14.168  10.922  0.0000  0.3443 -0.2731
  219loPI    C2 3490   2.463  14.125  11.021 -0.1194 -0.1738 -0.0000
  219loPI    C3 3491   2.243  14.413  11.191  0.0461 -0.1336  0.1482
  219loPI   PO4 3492   2.058  14.045  10.592 -0.3009  0.1694 -0.2404
  219loPI   GL1 3493   1.989  14.014  10.112  0.1738 -0.1509  0.0818
  219loPI   GL2 3494   2.200  14.269   9.875 -0.2153 -0.0649 -0.2701
  219loPI   C1A 3495   1.689  14.019   9.754  0.4893 -0.1727  0.0754
  219loPI   C2A 3496   1.578  13.698   9.402 -0.1427 -0.1205 -0.3553
  219loPI   C3A 3497   1.506  13.448   8.935 -0.3482  0.1841 -0.1842
  219loPI   C4A 3498   1.366  13.226   8.569 -0.2582 -0.4190 -0.0139
  219loPI   C5A 3499   1.214  13.398   8.166  0.0150 -0.0402  0.1877
  219loPI   C6A 3500   1.134  13.477   7.698 -0.2288 -0.0172 -0.0312
  219loPI   C1B 3501   2.143  14.304   9.465 -0.1217  0.1904  0.0771
  219loPI   C2B 3502   2.203  14.263   9.045 -0.0647 -0.1692 -0.0182
  219loPI   C3B 3503   1.951  14.103   8.703 -0.1368  0.2869  0.2554
  219loPI   C4B 3504   1.715  13.924   8.323  0.1133  0.0710  0.4936
  220loPI    C1 3505  14.943  14.729  10.360  0.0454 -0.1007 -0.2131
  220loPI    C2 3506  15.314  14.877  10.346  0.0302 -0.0038  0.2439
  220loPI    C3 3507  15.004  15.103  10.231  0.0918 -0.0130  0.0563
  220loPI   PO4 3508  14.950  14.463  10.143 -0.1547  0.0045 -0.1070
  220loPI   GL1 3509  14.931  14.402   9.675 -0.1130 -0.1370  0.0740
  220loPI   GL2 3510  15.160  14.090   9.651 -0.0271 -0.2587 -0.1422
  220loPI   C1A 3511  14.670  14.497   9.354 -0.1681 -0.1013  0.0988
  220loPI   C2A 3512  14.418  14.672   9.009 -0.1011 -0.0625  0.1970
  220loPI   C3A 3513  14.415  14.607   8.591 -0.2768  0.2115  0.0932
  220loPI   C4A 3514  14.530  14.690   8.074 -0.3296  0.0613 -0.1953
  220loPI   C5A 3515  14.830  14.422   7.935  0.0242 -0.0101  0.2208
  220loPI   C6A 3516  15.235  14.184   8.022  0.1673  0.0232  0.1759
  220loPI   C1B 3517  15.032  14.020   9.221 -0.0387  0.0807 -0.0311
  220loPI   C2B 3518  14.945  14.384   8.888  0.0195  0.2464  0.6093
  220loPI   C3B 3519  14.851  14.441   8.435  0.3206 -0.0466 -0.4024
  220loPI   C4B 3520  14.521  14.159   8.275 -0.1045  0.1267  0.0320
  221loPI    C1 3521  14.222  13.834  10.072  0.1440  0.1544 -0.1238
  221loPI    C2 3522  13.999  14.085  10.289  0.1978  0.3536 -0.2953
  221loPI    C3 3523  14.391  14.053  10.360  0.1312  0.0503 -0.0362
  221loPI   PO4 3524  14.239  13.938   9.788  0.0501  0.0386 -0.2921
  221loPI   GL1 3525  14.210  13.701   9.323 -0.3497  0.0470  0.0839
  221loPI   GL2 3526  13.894  13.745   9.291 -0.2325 -0.1273  0.2643
  221loPI   C1A 3527  14.335  13.688   8.933  0.0210 -0.1566  0.1599
  221loPI   C2A 3528  14.376  13.718   8.517 -0.0223 -0.0083  0.0843
  221loPI   C3A 3529  14.579  13.728   8.031 -0.0244 -0.2555 -0.0716
  221loPI   C4A 3530  14.833  13.888   7.794  0.1215  0.1022  0.1404
  221loPI   C5A 3531  14.798  13.901   7.464  0.0567 -0.1478  0.0959
  221loPI   C6A 3532  14.872  14.035   7.076 -0.1968 -0.1818  0.4353
  221loPI   C1B 3533  13.808  13.944   8.932 -0.1857 -0.2497 -0.0140
  221loPI   C2B 3534  14.058  14.173   8.638  0.2018  0.0456 -0.0950
  221loPI   C3B 3535  14.134  14.455   8.183  0.0273 -0.1353 -0.1655
  221loPI   C4B 3536  13.984  14.872   7.891  0.0014  0.0760 -0.2833
  222loPI    C1 3537   7.061  16.811   9.689 -0.1134 -0.0200 -0.1241
  222loPI    C2 3538   7.233  16.464   9.588  0.0767  0.0355  0.0026
  222loPI    C3 3539   7.210  16.571   9.972 -0.0091  0.1497 -0.0336
  222loPI   PO4 3540   7.136  16.939   9.518  0.2401  0.0092 -0.0600
  222loPI   GL1 3541   7.536  17.106   9.302 -0.1846  0.2345 -0.1370
  222loPI   GL2 3542   7.444  16.895   9.099  0.0178 -0.3201 -0.0158
  222loPI   C1A 3543   7.888  17.020   9.069 -0.1857  0.3874 -0.0209
  222loPI   C2A 3544   8.068  17.035   8.684  0.3432  0.2114  0.0528
  222loPI   C3A 3545   8.184  17.047   8.182  0.1215  0.0736 -0.0481
  222loPI   C4A 3546   8.416  16.908   7.894 -0.0275 -0.2145  0.0649
  222loPI   C5A 3547   8.623  17.033   7.535 -0.0229  0.2046  0.1392
  222loPI   C6A 3548   9.086  17.128   7.382 -0.1130  0.1065 -0.0386
  222loPI   C1B 3549   7.655  16.747   8.713  0.0440 -0.0010  0.1504
  222loPI   C2B 3550   7.672  16.842   8.271  0.0786 -0.2027  0.0835
  222loPI   C3B 3551   7.506  16.767   7.818 -0.0356 -0.0066 -0.1043
  222loPI   C4B 3552   7.258  17.031   7.575 -0.0817  0.0444 -0.3577
  223loPI    C1 3553   4.503   6.582  10.203 -0.1564  0.2885 -0.1129
  223loPI    C2 3554   4.482   6.493  10.592 -0.1526 -0.1906 -0.2157
  223loPI    C3 3555   4.810   6.667  10.444 -0.1550 -0.0040 -0.0073
  223loPI   PO4 3556   4.217   6.409  10.198 -0.2936 -0.0194  0.1999
  223loPI   GL1 3557   4.149   6.238   9.843 -0.3137 -0.0414  0.0378
  223loPI   GL2 3558   4.507   6.376   9.704  0.1230 -0.0436 -0.1846
  223loPI   C1A 3559   4.167   5.937   9.652 -0.0169  0.1507 -0.1490
  223loPI   C2A 3560   4.224   5.847   9.120  0.2589  0.1069  0.0931
  223loPI   C3A 3561   4.438   5.679   8.794 -0.1694  0.1101  0.0919
  223loPI   C4A 3562   4.455   5.454   8.496 -0.0602 -0.1504  0.0392
  223loPI   C5A 3563   4.131   5.346   8.103  0.0555  0.3553 -0.2538
  223loPI   C6A 3564   3.746   5.298   8.042  0.2346  0.0853 -0.0940
  223loPI   C1B 3565   4.586   6.129   9.279 -0.4076  0.1207  0.2596
  223loPI   C2B 3566   4.848   5.943   9.052  0.1959  0.1917  0.1646
  223loPI   C3B 3567   4.880   5.872   8.671  0.0310 -0.1209 -0.0114
  223loPI   C4B 3568   4.863   5.685   8.327  0.0748  0.2885  0.0084
  224loPI    C1 3569   1.671  17.137  10.314 -0.0805  0.2870  0.0020
  224loPI    C2 3570   1.936  17.432  10.366  0.0859  0.1283  0.0622
  224loPI    C3 3571   2.030  17.058  10.472 -0.0469  0.0177 -0.2024
  224loPI   PO4 3572   1.527  17.144  10.127 -0.0670 -0.3292 -0.3465
  224loPI   GL1 3573   1.508  17.031   9.765 -0.0773 -0.2166  0.0952
  224loPI   GL2 3574   1.582  17.369   9.556  0.1190  0.0840 -0.1505
  224loPI   C1A 3575   1.480  16.595   9.653 -0.0765  0.0628 -0.0391
  224loPI   C2A 3576   1.164  16.471   9.391  0.1829  0.1159 -0.1729
  224loPI   C3A 3577   0.853  16.647   9.112  0.0069 -0.0492 -0.2445
  224loPI   C4A 3578   0.868  16.886   8.635 -0.1256 -0.2746 -0.0576
  224loPI   C5A 3579   0.663  17.038   8.289 -0.0273  0.0542  0.0763
  224loPI   C6A 3580   0.525  16.933   8.032  0.0757 -0.1639 -0.0304
  224loPI   C1B 3581   1.564  17.355   9.140 -0.0936 -0.1768  0.1118
  224loPI   C2B 3582   1.545  17.068   8.743 -0.1476  0.0739  0.2449
  224loPI   C3B 3583   1.346  16.807   8.395 -0.2570  0.2371  0.0165
  224loPI   C4B 3584   1.258  16.368   8.517 -0.0125 -0.1047 -0.0264
  225loPI    C1 3585  11.720   4.651  10.241 -0.1303 -0.2164  0.0082
  225loPI    C2 3586  12.116   4.697  10.207 -0.1602 -0.0358 -0.1093
  225loPI    C3 3587  11.923   4.850  10.522 -0.1885  0.2115 -0.2446
  225loPI   PO4 3588  11.654   4.679  10.042  0.0824 -0.4085 -0.1347
  225loPI   GL1 3589  11.721   4.528   9.672  0.0583 -0.0597  0.1323
  225loPI   GL2 3590  11.776   4.842   9.469 -0.0787 -0.0100 -0.0113
  225loPI   C1A 3591  11.789   4.333   9.301  0.1151  0.0782 -0.0968
  225loPI   C2A 3592  11.638   4.265   8.831 -0.2589 -0.2284 -0.1772
  225loPI   C3A 3593  11.401   4.119   8.571  0.0865 -0.3016  0.1844
  225loPI   C4A 3594  11.347   4.135   8.100 -0.0751  0.2629  0.0680
  225loPI   C5A 3595  11.311   4.302   7.632 -0.0487 -0.0542  0.1221
  225loPI   C6A 3596  10.940   4.287   7.467 -0.0537 -0.0842  0.0469
  225loPI   C1B 3597  11.689   4.793   9.049  0.0110  0.0138  0.0918
  225loPI   C2B 3598  11.758   4.723   8.572 -0.0917  0.2137  0.0581
  225loPI   C3B 3599  11.888   4.953   8.192 -0.4627  0.0458  0.0367
  225loPI   C4B 3600  11.994   4.679   7.833  0.5194 -0.1822  0.2837
  226loPI    C1 3601   5.918   7.343  10.804 -0.1526 -0.0549 -0.2398
  226loPI    C2 3602   5.687   7.272  11.123  0.1370  0.0373 -0.0055
  226loPI    C3 3603   5.775   7.648  11.020 -0.0438  0.0116 -0.2613
  226loPI   PO4 3604   5.784   7.178  10.512 -0.1118 -0.0045  0.0527
  226loPI   GL1 3605   5.658   7.144  10.093 -0.0060 -0.1303  0.0469
  226loPI   GL2 3606   5.771   7.321   9.784 -0.0643  0.2316 -0.0216
  226loPI   C1A 3607   5.736   6.793   9.785  0.0259  0.0691  0.0416
  226loPI   C2A 3608   5.873   6.754   9.341 -0.0676  0.1395  0.0448
  226loPI   C3A 3609   6.043   6.774   8.953  0.0113  0.3063  0.2398
  226loPI   C4A 3610   6.120   6.714   8.479 -0.1040  0.3035  0.4519
  226loPI   C5A 3611   6.487   6.635   8.222  0.0032  0.2796  0.0854
  226loPI   C6A 3612   6.824   6.680   7.908  0.1281 -0.2431  0.1958
  226loPI   C1B 3613   6.017   7.473   9.401  0.1531  0.1995 -0.4101
  226loPI   C2B 3614   6.254   7.620   9.166 -0.3209  0.1747  0.0506
  226loPI   C3B 3615   6.609   7.724   8.920 -0.1381  0.1287 -0.1047
  226loPI   C4B 3616   6.927   7.860   8.633 -0.3961  0.1122  0.0226
  227loPI    C1 3617  15.819   1.930  10.354  0.0821 -0.0915  0.1652
  227loPI    C2 3618  15.843   1.887   9.957 -0.0398 -0.2301  0.1722
  227loPI    C3 3619  15.521   1.753  10.154 -0.1216  0.1163  0.2799
  227loPI   PO4 3620  16.115   2.157  10.391  0.3124 -0.0775  0.1620
  227loPI   GL1 3621  16.235   2.153   9.998 -0.2822  0.1473 -0.1804
  227loPI   GL2 3622  16.002   2.414   9.898 -0.4927  0.0951 -0.2529
  227loPI   C1A 3623  16.317   1.849   9.756  0.0425  0.2729  0.0191
  227loPI   C2A 3624  16.460   1.697   9.500 -0.1019 -0.1860 -0.2579
  227loPI   C3A 3625  16.752   1.434   9.197  0.1287  0.2562 -0.0285
  227loPI   C4A 3626  16.915   1.325   8.805 -0.0281  0.0666 -0.0264
  227loPI   C5A 3627  17.022   1.149   8.399  0.1310 -0.1027  0.6087
  227loPI   C6A 3628  16.960   1.301   7.936 -0.1203 -0.1970 -0.0753
  227loPI   C1B 3629  16.275   2.274   9.556  0.0051  0.0759 -0.0762
  227loPI   C2B 3630  16.339   2.328   9.093  0.2194 -0.0368 -0.0240
  227loPI   C3B 3631  16.403   2.464   8.678  0.4737 -0.0051 -0.4267
  227loPI   C4B 3632  16.525   2.706   8.321  0.0757  0.2714 -0.0265
  228loPI    C1 3633   1.487   9.656  10.663 -0.1809  0.1555  0.0610
  228loPI    C2 3634   1.553   9.945  10.931 -0.2070  0.1689  0.0529
  228loPI    C3 3635   1.516   9.566  11.052 -0.2466  0.1786  0.0714
  228loPI   PO4 3636   1.381   9.793  10.465  0.0161 -0.2954  0.0990
  228loPI   GL1 3637   1.343   9.804  10.141 -0.0882 -0.2229  0.0855
  228loPI   GL2 3638   1.566   9.773   9.866 -0.1087 -0.2117 -0.0166
  228loPI   C1A 3639   1.029   9.724   9.850  0.0866  0.2675 -0.1821
  228loPI   C2A 3640   0.770   9.834   9.504 -0.4127 -0.1249  0.2329
  228loPI   C3A 3641   0.764  10.198   9.200 -0.0558  0.1691 -0.0583
  228loPI   C4A 3642   0.751  10.163   8.808  0.1556 -0.2336  0.1832
  228loPI   C5A 3643   0.746  10.180   8.398 -0.1443  0.2796 -0.1005
  228loPI   C6A 3644   0.510  10.392   8.078 -0.1485 -0.5688  0.0742
  228loPI   C1B 3645   1.356   9.720   9.483  0.0648 -0.2002  0.2385
  228loPI   C2B 3646   1.147   9.630   9.189  0.1382 -0.0608 -0.2099
  228loPI   C3B 3647   0.717   9.686   9.035 -0.1829 -0.1398 -0.1737
  228loPI   C4B 3648   0.521   9.742   8.650  0.1891  0.2456 -0.1934
  229loPI    C1 3649   9.643  11.199  10.029 -0.1364  0.1038  0.0297
  229loPI    C2 3650   9.789  10.996  10.340 -0.0454  0.0338 -0.0583
  229loPI    C3 3651   9.426  10.908  10.197 -0.0846  0.0617  0.0238
  229loPI   PO4 3652   9.918  11.314   9.959 -0.2576  0.1556  0.1527
  229loPI   GL1 3653  10.058  11.088   9.617 -0.0202 -0.2338  0.1199
  229loPI   GL2 3654  10.166  10.877   9.289  0.2664 -0.2176  0.0422
  229loPI   C1A 3655   9.791  11.251   9.254  0.1220  0.2147  0.0308
  229loPI   C2A 3656   9.476  11.192   8.908  0.0113  0.2399 -0.2389
  229loPI   C3A 3657   9.552  11.288   8.479  0.0955 -0.2305  0.0056
  229loPI   C4A 3658   9.953  11.233   8.251 -0.0271 -0.3900  0.2840
  229loPI   C5A 3659  10.286  10.997   8.051 -0.1189  0.1891 -0.2778
  229loPI   C6A 3660  10.186  10.657   7.873  0.2386  0.4517  0.0299
  229loPI   C1B 3661   9.814  10.754   9.002  0.1242 -0.2706  0.0506
  229loPI   C2B 3662   9.566  10.807   8.635  0.1968 -0.1230 -0.0748
  229loPI   C3B 3663   9.586  10.879   8.150 -0.0548  0.0514 -0.2423
  229loPI   C4B 3664   9.821  11.015   7.797  0.0085 -0.1924 -0.1031
  230loPI    C1 3665  16.588   6.966  10.902  0.2825 -0.1575 -0.0449
  230loPI    C2 3666  16.648   7.360  10.939  0.0971 -0.1659  0.4023
  230loPI    C3 3667  16.905   7.102  11.104  0.3649 -0.2431 -0.1156
  230loPI   PO4 3668  16.494   6.996  10.601  0.1981 -0.1426 -0.0539
  230loPI   GL1 3669  16.525   7.288  10.295 -0.2256  0.1175 -0.1817
  230loPI   GL2 3670  16.595   7.516  10.475  0.1242 -0.0399 -0.0876
  230loPI   C1A 3671  16.627   7.272   9.854  0.1197 -0.3572 -0.0941
  230loPI   C2A 3672  16.555   7.310   9.383  0.1020  0.0563  0.0800
  230loPI   C3A 3673  16.508   7.398   8.984 -0.1080  0.4546 -0.0935
  230loPI   C4A 3674  16.706   7.552   8.637 -0.3539  0.2653 -0.1705
  230loPI   C5A 3675  16.584   7.813   8.305 -0.0931  0.0572 -0.4156
  230loPI   C6A 3676  16.259   8.018   7.997 -0.1914  0.1879 -0.0130
  230loPI   C1B 3677  16.828   7.673  10.059 -0.0481  0.1205  0.2200
  230loPI   C2B 3678  17.190   7.822   9.859  0.0297 -0.1085  0.0590
  230loPI   C3B 3679  17.203   8.006   9.454 -0.2310  0.0704 -0.0805
  230loPI   C4B 3680  17.227   8.011   9.000  0.3138  0.0683  0.0524
  231loPI    C1 3681   6.292   4.295  10.306 -0.2475 -0.0887  0.0005
  231loPI    C2 3682   6.062   4.115  10.579 -0.0225 -0.2150  0.1100
  231loPI    C3 3683   6.443   4.002  10.533  0.1346  0.2536  0.2023
  231loPI   PO4 3684   6.074   4.272  10.013 -0.0653 -0.1808  0.1628
  231loPI   GL1 3685   5.748   4.198   9.777 -0.1306 -0.0563  0.3381
  231loPI   GL2 3686   5.646   3.877   9.757  0.2767  0.0933 -0.0787
  231loPI   C1A 3687   5.795   4.172   9.373 -0.1677  0.1874 -0.2231
  231loPI   C2A 3688   5.572   4.201   9.073 -0.4204 -0.3470  0.2272
  231loPI   C3A 3689   5.525   4.195   8.721  0.2135 -0.0770 -0.0742
  231loPI   C4A 3690   5.417   4.342   8.381  0.2948  0.1112  0.0721
  231loPI   C5A 3691   5.279   4.263   8.032  0.4095 -0.0715 -0.0116
  231loPI   C6A 3692   5.394   4.294   7.647 -0.3568  0.2300  0.2153
  231loPI   C1B 3693   5.270   3.956   9.466 -0.2913  0.1004 -0.0908
  231loPI   C2B 3694   5.214   3.901   9.008 -0.1512  0.0140  0.1517
  231loPI   C3B 3695   5.065   3.990   8.563  0.2547  0.0563 -0.0087
  231loPI   C4B 3696   5.209   3.712   8.153  0.0179  0.0069  0.0275
  232loPI    C1 3697   6.408  18.328   9.943  0.1172 -0.0563 -0.0508
  232loPI    C2 3698   6.703  18.579   9.843  0.1341 -0.0086  0.1170
  232loPI    C3 3699   6.788  18.233  10.024  0.1125 -0.1458 -0.1312
  232loPI   PO4 3700   6.258  18.311   9.749 -0.1272 -0.0821  0.1579
  232loPI   GL1 3701   6.495  18.215   9.360 -0.2792 -0.1807  0.1417
  232loPI   GL2 3702   6.631  18.490   9.357  0.0679 -0.2754 -0.3001
  232loPI   C1A 3703   6.494  18.233   8.859 -0.0685 -0.0423  0.0681
  232loPI   C2A 3704   6.304  18.347   8.412  0.2643 -0.3204  0.1462
  232loPI   C3A 3705   6.119  18.225   8.073 -0.1243  0.2595 -0.0426
  232loPI   C4A 3706   5.962  18.284   7.607  0.0634  0.1035 -0.0331
  232loPI   C5A 3707   5.682  18.484   7.285 -0.0874  0.0113 -0.0018
  232loPI   C6A 3708   5.229  18.521   7.092 -0.2371  0.2741 -0.1036
  232loPI   C1B 3709   6.934  18.400   9.143  0.3118  0.0111  0.1536
  232loPI   C2B 3710   7.019  18.421   8.728 -0.3907  0.0658  0.0484
  232loPI   C3B 3711   6.765  18.520   8.414  0.0093  0.4434 -0.2920
  232loPI   C4B 3712   6.710  18.832   8.106 -0.0143 -0.0205 -0.0095
  233loPI    C1 3713   6.163  16.606   9.919  0.0241 -0.0477 -0.0897
  233loPI    C2 3714   5.845  16.844   9.967  0.0714  0.0111 -0.0679
  233loPI    C3 3715   5.822  16.457  10.066 -0.0597 -0.0331 -0.2678
  233loPI   PO4 3716   6.259  16.596   9.701  0.0572  0.1000  0.1362
  233loPI   GL1 3717   6.104  16.255   9.470 -0.2050  0.0532  0.0312
  233loPI   GL2 3718   6.101  15.974   9.351  0.5554  0.0052  0.1445
  233loPI   C1A 3719   5.853  16.395   9.019 -0.0834  0.1147 -0.0299
  233loPI   C2A 3720   5.781  16.336   8.551  0.1472 -0.0357 -0.0683
  233loPI   C3A 3721   5.820  16.655   8.266  0.1823 -0.0330 -0.0939
  233loPI   C4A 3722   6.147  16.705   7.909  0.2993 -0.0956 -0.0254
  233loPI   C5A 3723   6.344  16.710   7.561 -0.0513 -0.0628 -0.0037
  233loPI   C6A 3724   6.353  16.608   7.270  0.0055 -0.0829 -0.0900
  233loPI   C1B 3725   5.928  15.875   8.903  0.4302 -0.0724 -0.0063
  233loPI   C2B 3726   5.864  15.839   8.508  0.2161 -0.1406  0.1138
  233loPI   C3B 3727   5.795  15.905   8.076  0.0716  0.2215 -0.1597
  233loPI   C4B 3728   5.604  16.204   7.848 -0.2921 -0.0056 -0.1661
  234loPI    C1 3729   8.361   8.978  10.558  0.1509  0.0219  0.3212
  234loPI    C2 3730   8.119   9.272  10.681 -0.1112 -0.2054  0.3594
  234loPI    C3 3731   8.033   8.892  10.770  0.2260 -0.2960  0.3138
  234loPI   PO4 3732   8.452   9.037  10.278 -0.2152 -0.0029 -0.0383
  234loPI   GL1 3733   8.522   8.929   9.970  0.0042 -0.0842  0.3206
  234loPI   GL2 3734   8.385   8.662   9.947  0.0261 -0.0090  0.1200
  234loPI   C1A 3735   8.731   8.988   9.573  0.0090 -0.0488 -0.1850
  234loPI   C2A 3736   8.682   9.038   9.130 -0.1526  0.3662  0.2505
  234loPI   C3A 3737   8.472   9.062   8.714  0.4566  0.2999 -0.0422
  234loPI   C4A 3738   8.445   9.159   8.223 -0.2235 -0.1509 -0.2550
  234loPI   C5A 3739   8.748   9.349   7.878  0.1492  0.1175  0.0931
  234loPI   C6A 3740   8.641   9.541   7.521 -0.2368 -0.0910 -0.2424
  234loPI   C1B 3741   8.290   8.620   9.526  0.1225 -0.0872 -0.2309
  234loPI   C2B 3742   8.216   8.632   9.122 -0.3759 -0.0505 -0.3132
  234loPI   C3B 3743   8.175   8.671   8.672 -0.1736 -0.0224  0.1007
  234loPI   C4B 3744   8.012   8.644   8.285 -0.1931 -0.2598  0.0557
  235loPI    C1 3745  12.289  17.592   9.804 -0.1147  0.1644  0.2024
  235loPI    C2 3746  11.982  17.779   9.628  0.1265  0.1782 -0.2174
  235loPI    C3 3747  12.251  17.989   9.838 -0.0083  0.2002 -0.0649
  235loPI   PO4 3748  12.323  17.423   9.514 -0.1551 -0.1241 -0.2613
  235loPI   GL1 3749  12.362  17.321   9.129 -0.0226 -0.1891  0.1910
  235loPI   GL2 3750  12.100  17.483   9.030  0.0252 -0.0815  0.5259
  235loPI   C1A 3751  12.543  17.297   8.677  0.0346 -0.3634  0.1262
  235loPI   C2A 3752  12.603  17.361   8.325  0.0327 -0.4010 -0.1391
  235loPI   C3A 3753  12.612  17.800   8.013 -0.0247  0.0225  0.0474
  235loPI   C4A 3754  12.758  18.055   7.817 -0.1521 -0.1014  0.4921
  235loPI   C5A 3755  12.672  18.475   7.608 -0.3465 -0.1074 -0.1486
  235loPI   C6A 3756  12.362  18.787   7.702 -0.1261  0.2279 -0.0843
  235loPI   C1B 3757  12.084  17.467   8.546  0.2197  0.0691 -0.1178
  235loPI   C2B 3758  12.185  17.474   8.151 -0.1360 -0.0948  0.2144
  235loPI   C3B 3759  12.203  17.606   7.829 -0.3316 -0.0434 -0.0734
  235loPI   C4B 3760  12.575  17.716   7.514  0.2225 -0.0110 -0.0269
  236loPI    C1 3761  11.207   6.268  10.182 -0.1595  0.0993 -0.0573
  236loPI    C2 3762  11.208   5.918   9.990  0.1546 -0.0301  0.1705
  236loPI    C3 3763  11.037   5.948  10.351  0.1214  0.0544  0.1481
  236loPI   PO4 3764  11.226   6.409   9.932  0.0386  0.1671  0.0398
  236loPI   GL1 3765  11.109   6.383   9.674 -0.1341 -0.1650 -0.0655
  236loPI   GL2 3766  10.848   6.616   9.638 -0.1589 -0.2841  0.3153
  236loPI   C1A 3767  11.116   6.114   9.300  0.2149  0.3101 -0.3252
  236loPI   C2A 3768  11.159   5.924   8.876 -0.1320  0.1362  0.4314
  236loPI   C3A 3769  11.254   5.918   8.475  0.0545  0.2939 -0.0073
  236loPI   C4A 3770  11.158   6.006   8.092  0.0656  0.0321  0.1892
  236loPI   C5A 3771  10.715   6.056   7.911 -0.1637 -0.2412 -0.1398
  236loPI   C6A 3772  10.303   5.893   7.854 -0.3031  0.5359 -0.0061
  236loPI   C1B 3773  10.766   6.661   9.253  0.2523  0.0186  0.0858
  236loPI   C2B 3774  10.822   6.719   8.785  0.0328 -0.4769  0.0778
  236loPI   C3B 3775  10.960   6.861   8.443  0.0303  0.1963 -0.0045
  236loPI   C4B 3776  11.181   7.003   8.122  0.1456 -0.0534 -0.2742
  237loPI    C1 3777  11.272  16.467   9.862 -0.0663  0.1149 -0.0768
  237loPI    C2 3778  11.014  16.316  10.128 -0.0372  0.2306  0.0184
  237loPI    C3 3779  11.408  16.282  10.189 -0.0294  0.1185 -0.0901
  237loPI   PO4 3780  11.194  16.737   9.790  0.3214  0.0190 -0.2399
  237loPI   GL1 3781  11.207  16.880   9.445  0.1399 -0.1476  0.0866
  237loPI   GL2 3782  11.181  17.210   9.511  0.2458 -0.2578  0.2368
  237loPI   C1A 3783  11.179  16.938   9.054  0.1030 -0.3047 -0.2802
  237loPI   C2A 3784  11.106  17.107   8.731  0.0385 -0.1040  0.1142
  237loPI   C3A 3785  11.292  17.188   8.284 -0.0361  0.2578 -0.1149
  237loPI   C4A 3786  11.128  17.326   7.945  0.1242  0.2440  0.5435
  237loPI   C5A 3787  10.931  17.354   7.541 -0.0275  0.6276  0.0561
  237loPI   C6A 3788  11.020  17.431   7.111 -0.1613  0.0289  0.2554
  237loPI   C1B 3789  11.120  17.444   9.177  0.1938 -0.1801 -0.0679
  237loPI   C2B 3790  11.075  17.720   8.770 -0.0517  0.1122 -0.1806
  237loPI   C3B 3791  11.197  17.720   8.315 -0.0429  0.0736 -0.2166
  237loPI   C4B 3792  11.338  17.886   7.986  0.0786  0.1987 -0.0786
  238loPI    C1 3793   1.943   2.466  10.583  0.0907  0.0139  0.1149
  238loPI    C2 3794   1.688   2.158  10.573 -0.0291  0.1100  0.1743
  238loPI    C3 3795   1.715   2.383  10.902  0.0844  0.1413  0.1439
  238loPI   PO4 3796   2.062   2.426  10.272  0.2268 -0.1120  0.0377
  238loPI   GL1 3797   1.916   2.417   9.798 -0.0832 -0.2552 -0.1799
  238loPI   GL2 3798   2.045   2.103   9.824 -0.0802  0.0206 -0.1438
  238loPI   C1A 3799   2.340   2.492   9.540 -0.3009  0.0132 -0.2162
  238loPI   C2A 3800   2.591   2.565   9.237  0.2474 -0.2642  0.0713
  238loPI   C3A 3801   2.630   2.658   8.791  0.0850  0.0104 -0.1144
  238loPI   C4A 3802   2.640   2.697   8.337 -0.2178  0.1450 -0.0585
  238loPI   C5A 3803   2.782   3.073   8.204 -0.2213  0.0149  0.0709
  238loPI   C6A 3804   2.804   3.213   7.875  0.0925 -0.0861  0.1412
  238loPI   C1B 3805   2.043   2.198   9.319 -0.3058  0.1989 -0.2034
  238loPI   C2B 3806   2.261   2.334   8.930  0.2118 -0.0653 -0.2502
  238loPI   C3B 3807   2.422   2.234   8.468  0.0880 -0.1466  0.2916
  238loPI   C4B 3808   2.478   2.325   8.046 -0.1579  0.1013  0.0468
  239loPI    C1 3809  15.461   2.486  10.490  0.2106  0.0346 -0.1244
  239loPI    C2 3810  15.653   2.237  10.738 -0.0833 -0.1755 -0.1018
  239loPI    C3 3811  15.289   2.372  10.832 -0.0178  0.0916 -0.2187
  239loPI   PO4 3812  15.574   2.341  10.204  0.0279 -0.0706  0.0082
  239loPI   GL1 3813  15.569   2.457   9.700 -0.1107  0.2870 -0.0174
  239loPI   GL2 3814  15.260   2.326   9.828  0.3121  0.0939 -0.0122
  239loPI   C1A 3815  15.766   2.092   9.542 -0.0687  0.2136  0.1279
  239loPI   C2A 3816  16.048   1.901   9.214 -0.1386 -0.1652 -0.0998
  239loPI   C3A 3817  16.244   1.518   9.049 -0.0988 -0.0072  0.0270
  239loPI   C4A 3818  16.262   1.397   8.795  0.2281  0.0537 -0.0009
  239loPI   C5A 3819  15.972   1.325   8.442  0.1148  0.1389 -0.3001
  239loPI   C6A 3820  15.524   1.276   8.653  0.3570  0.1562 -0.1364
  239loPI   C1B 3821  15.198   2.276   9.384 -0.1240  0.0774 -0.0973
  239loPI   C2B 3822  14.985   2.170   8.934 -0.1549  0.0722  0.1430
  239loPI   C3B 3823  14.733   1.996   8.622  0.0459 -0.1404 -0.1072
  239loPI   C4B 3824  14.656   1.763   8.253 -0.0960 -0.2542  0.3326
  240loPI    C1 3825   1.856  17.967  10.230  0.3266  0.4163  0.0252
  240loPI    C2 3826   1.823  17.854  10.613 -0.0876 -0.1790 -0.1715
  240loPI    C3 3827   1.537  18.078  10.445  0.0976  0.0883 -0.1370
  240loPI   PO4 3828   2.006  18.072  10.119  0.1844  0.0473  0.0203
  240loPI   GL1 3829   1.995  18.141   9.715  0.0103  0.0078 -0.0956
  240loPI   GL2 3830   1.985  17.840   9.710  0.4252 -0.0798  0.0514
  240loPI   C1A 3831   1.767  18.393   9.510  0.0509 -0.0958  0.1269
  240loPI   C2A 3832   1.640  18.369   9.058 -0.1177  0.1898 -0.0130
  240loPI   C3A 3833   1.534  18.277   8.652 -0.0718 -0.1917 -0.0338
  240loPI   C4A 3834   1.411  18.268   8.192  0.1268 -0.1111 -0.2756
  240loPI   C5A 3835   1.262  18.236   7.792 -0.5277 -0.0379  0.1744
  240loPI   C6A 3836   1.130  18.470   7.402 -0.0304 -0.2097 -0.1960
  240loPI   C1B 3837   1.684  17.895   9.388  0.0641 -0.3982  0.1573
  240loPI   C2B 3838   1.319  17.867   9.011 -0.1184 -0.0393 -0.0690
  240loPI   C3B 3839   1.115  17.929   8.584 -0.1744 -0.0115  0.0662
  240loPI   C4B 3840   1.079  17.892   8.111  0.1911  0.0264 -0.2833
  241loPI    C1 3841  14.568   5.846  10.507  0.1205  0.1113  0.1397
  241loPI    C2 3842  14.792   6.151  10.637 -0.0154  0.3912 -0.2612
  241loPI    C3 3843  14.406   6.130  10.737  0.0357  0.2514 -0.0888
  241loPI   PO4 3844  14.627   5.855  10.265  0.1453 -0.2724  0.0921
  241loPI   GL1 3845  14.589   5.880   9.805  0.1435 -0.0470  0.2884
  241loPI   GL2 3846  14.806   6.166   9.833 -0.0364  0.2153  0.0204
  241loPI   C1A 3847  14.362   5.868   9.379  0.2248  0.1363  0.5215
  241loPI   C2A 3848  14.548   5.611   8.976  0.4381 -0.0339  0.0453
  241loPI   C3A 3849  14.604   5.769   8.486 -0.2697 -0.1165  0.0689
  241loPI   C4A 3850  14.547   5.999   8.146 -0.2634  0.2968 -0.1233
  241loPI   C5A 3851  14.232   5.864   7.872  0.1697  0.3685 -0.1752
  241loPI   C6A 3852  13.871   5.875   7.828  0.0734 -0.0920 -0.1516
  241loPI   C1B 3853  14.818   6.053   9.360 -0.0826  0.1083 -0.0221
  241loPI   C2B 3854  14.840   6.052   8.935 -0.1787 -0.1056  0.1056
  241loPI   C3B 3855  14.703   6.329   8.537  0.1236  0.3519  0.2912
  241loPI   C4B 3856  14.503   6.598   8.228  0.1845  0.2191 -0.0419
  242loPI    C1 3857   0.321  18.091   9.750  0.0719  0.1100 -0.1051
  242loPI    C2 3858   0.295  17.960  10.127  0.0901 -0.2260 -0.2177
  242loPI    C3 3859   0.653  17.994   9.951  0.0731 -0.1842 -0.2443
  242loPI   PO4 3860   0.170  18.311   9.710 -0.0576 -0.1267  0.0606
  242loPI   GL1 3861   0.228  18.701   9.504  0.1281  0.0461 -0.0604
  242loPI   GL2 3862   0.102  18.996   9.703 -0.1563 -0.0549  0.2138
  242loPI   C1A 3863   0.166  18.783   9.098  0.1227  0.0862 -0.0710
  242loPI   C2A 3864   0.150  19.130   8.749 -0.2112 -0.2403  0.4341
  242loPI   C3A 3865  -0.089  19.477   8.493 -0.1324  0.0928 -0.0956
  242loPI   C4A 3866  -0.217  19.627   8.124 -0.3527  0.1569  0.0642
  242loPI   C5A 3867  -0.531  19.637   7.943  0.0911 -0.1011  0.0023
  242loPI   C6A 3868  -0.887  19.408   8.137  0.0298 -0.2584  0.1172
  242loPI   C1B 3869   0.433  19.134   9.337  0.0728 -0.0488  0.2622
  242loPI   C2B 3870   0.704  19.271   8.944  0.3378 -0.0739 -0.0744
  242loPI   C3B 3871   0.722  19.619   8.665 -0.0253  0.2242 -0.0738
  242loPI   C4B 3872   0.708  19.784   8.336 -0.0913  0.2411  0.0823
  243loPI    C1 3873  17.688  14.238  10.596 -0.1805  0.0466  0.1796
  243loPI    C2 3874  17.435  14.311  10.897 -0.1788  0.3564  0.1096
  243loPI    C3 3875  17.829  14.287  10.967 -0.2063  0.0896  0.1839
  243loPI   PO4 3876  17.483  14.209  10.349  0.1286  0.0398 -0.0681
  243loPI   GL1 3877  17.614  14.150   9.876  0.0446 -0.2238 -0.0359
  243loPI   GL2 3878  17.622  14.434   9.954  0.1423 -0.0782 -0.0937
  243loPI   C1A 3879  18.011  14.082   9.703 -0.0416  0.2286  0.1845
  243loPI   C2A 3880  18.164  14.047   9.282 -0.1943 -0.0465 -0.0039
  243loPI   C3A 3881  18.270  13.999   8.896  0.0139 -0.1302 -0.1280
  243loPI   C4A 3882  18.610  13.709   8.741  0.1769  0.1057  0.1437
  243loPI   C5A 3883  19.020  13.467   8.611  0.1721 -0.1153 -0.2474
  243loPI   C6A 3884  19.361  13.218   8.361 -0.1691  0.0973  0.0348
  243loPI   C1B 3885  17.729  14.424   9.462  0.1917  0.0271  0.1142
  243loPI   C2B 3886  17.746  14.264   9.093 -0.4205  0.0702 -0.1581
  243loPI   C3B 3887  17.439  14.264   8.681  0.1273 -0.2477 -0.0868
  243loPI   C4B 3888  16.966  14.220   8.577 -0.1888  0.1445 -0.1727
  244loPI    C1 3889   9.155  15.745   9.764  0.1821 -0.2594  0.0765
  244loPI    C2 3890   8.903  15.825  10.064 -0.0460 -0.2552 -0.1136
  244loPI    C3 3891   9.296  15.798  10.135 -0.0272  0.3599  0.0786
  244loPI   PO4 3892   9.021  15.610   9.594  0.0573 -0.0819 -0.1140
  244loPI   GL1 3893   8.970  15.570   9.247  0.2719 -0.2956 -0.0212
  244loPI   GL2 3894   8.781  15.460   9.128  0.0461 -0.0902  0.0741
  244loPI   C1A 3895   9.215  15.688   8.929  0.1905  0.0734 -0.1580
  244loPI   C2A 3896   9.244  15.771   8.470  0.1325  0.0119 -0.2884
  244loPI   C3A 3897   9.165  15.768   7.927 -0.1599 -0.0438 -0.2151
  244loPI   C4A 3898   9.034  16.050   7.547 -0.1063  0.0724  0.0151
  244loPI   C5A 3899   8.763  16.168   7.298  0.1285  0.2645 -0.0272
  244loPI   C6A 3900   8.473  16.440   7.159 -0.1330 -0.1197  0.1238
  244loPI   C1B 3901   8.774  15.603   8.654 -0.0583 -0.5114  0.0127
  244loPI   C2B 3902   8.800  15.700   8.229 -0.1308 -0.0180  0.0953
  244loPI   C3B 3903   8.657  15.714   7.791 -0.3102  0.0999 -0.1757
  244loPI   C4B 3904   8.587  15.582   7.410 -0.0967 -0.0429 -0.0646
  245loPI    C1 3905   7.951   2.315  10.400  0.1061 -0.2278 -0.1475
  245loPI    C2 3906   8.152   2.646  10.502 -0.0030 -0.2089  0.0103
  245loPI    C3 3907   7.753   2.636  10.533  0.0068 -0.3856  0.0932
  245loPI   PO4 3908   8.001   2.251  10.135 -0.1950  0.1214 -0.1536
  245loPI   GL1 3909   8.214   2.400   9.910 -0.2922  0.0607  0.0615
  245loPI   GL2 3910   8.446   2.223   9.916  0.1186  0.2486 -0.1875
  245loPI   C1A 3911   8.112   2.220   9.525 -0.1665  0.1299 -0.0045
  245loPI   C2A 3912   8.280   2.185   9.086  0.1147 -0.0834  0.2476
  245loPI   C3A 3913   8.326   2.375   8.659  0.0608  0.2120 -0.0948
  245loPI   C4A 3914   8.221   2.516   8.355  0.0655 -0.0454  0.1461
  245loPI   C5A 3915   7.737   2.492   8.165 -0.1876 -0.1071 -0.0198
  245loPI   C6A 3916   7.311   2.553   8.075  0.1509  0.0610  0.0498
  245loPI   C1B 3917   8.632   2.113   9.569  0.2319 -0.0973 -0.0959
  245loPI   C2B 3918   8.724   2.360   9.173 -0.1261  0.0357 -0.1051
  245loPI   C3B 3919   8.927   2.452   8.798 -0.6445  0.1538  0.0414
  245loPI   C4B 3920   8.988   2.729   8.436  0.4252 -0.2366  0.2363
  246loPI    C1 3921  16.263  16.681  10.312 -0.0991 -0.0669 -0.2358
  246loPI    C2 3922  16.461  16.828  10.628  0.0173 -0.2230 -0.2346
  246loPI    C3 3923  16.114  16.637  10.681 -0.0539 -0.0910 -0.2203
  246loPI   PO4 3924  16.167  16.838  10.138 -0.1334 -0.4909 -0.1605
  246loPI   GL1 3925  16.167  16.855   9.704  0.3951  0.4454 -0.0649
  246loPI   GL2 3926  15.906  16.927   9.610 -0.2305 -0.3166 -0.0532
  246loPI   C1A 3927  16.313  16.412   9.543  0.0921 -0.1238  0.0209
  246loPI   C2A 3928  16.652  16.218   9.267 -0.2282 -0.0078 -0.1929
  246loPI   C3A 3929  17.096  16.238   9.162 -0.0080 -0.0977  0.1481
  246loPI   C4A 3930  17.457  16.278   8.813  0.2885  0.4341 -0.2031
  246loPI   C5A 3931  17.704  16.204   8.506  0.0658 -0.0498  0.0870
  246loPI   C6A 3932  17.953  16.372   8.086  0.0474 -0.0920  0.3097
  246loPI   C1B 3933  16.047  16.772   9.164  0.0530  0.2466 -0.1281
  246loPI   C2B 3934  16.313  16.491   8.992  0.0193 -0.1924  0.0148
  246loPI   C3B 3935  16.375  16.071   8.749  0.0247 -0.3171 -0.2126
  246loPI   C4B 3936  16.773  16.031   8.505  0.0578  0.3355  0.0603
  247loPI    C1 3937   3.457   8.503  10.430  0.0038 -0.3679 -0.1081
  247loPI    C2 3938   3.204   8.473  10.739  0.2552 -0.0917  0.1305
  247loPI    C3 3939   3.590   8.380  10.787  0.3366  0.1443 -0.0457
  247loPI   PO4 3940   3.359   8.759  10.305  0.1731  0.0632 -0.1703
  247loPI   GL1 3941   3.272   8.849   9.991 -0.2394 -0.2296  0.1195
  247loPI   GL2 3942   3.479   8.961   9.771 -0.1544 -0.0848 -0.1156
  247loPI   C1A 3943   3.066   8.780   9.540 -0.0924  0.0575  0.1803
  247loPI   C2A 3944   2.948   8.746   9.122  0.2722 -0.2555 -0.1341
  247loPI   C3A 3945   2.914   8.692   8.756 -0.0494 -0.0380 -0.0148
  247loPI   C4A 3946   2.907   8.406   8.413  0.0283 -0.0943 -0.0930
  247loPI   C5A 3947   2.698   8.018   8.139  0.3106  0.3416  0.0252
  247loPI   C6A 3948   2.330   7.760   8.234 -0.0972  0.1945 -0.0551
  247loPI   C1B 3949   3.546   8.801   9.376 -0.3646 -0.3850  0.2515
  247loPI   C2B 3950   3.515   8.722   8.949 -0.0197 -0.0394 -0.4408
  247loPI   C3B 3951   3.371   8.693   8.618 -0.1881  0.0710 -0.2118
  247loPI   C4B 3952   3.284   8.773   8.206  0.2570  0.1382 -0.0053
  248loPI    C1 3953   7.644  12.348   9.983 -0.1644  0.0653 -0.0644
  248loPI    C2 3954   8.004  12.220   9.865 -0.1493 -0.0024  0.0542
  248loPI    C3 3955   7.962  12.588  10.015 -0.0815 -0.0839  0.2778
  248loPI   PO4 3956   7.490  12.168  10.093 -0.0114 -0.0980  0.1424
  248loPI   GL1 3957   7.060  11.985   9.952 -0.0735 -0.4730 -0.1752
  248loPI   GL2 3958   6.739  11.957   9.778 -0.1207  0.0453 -0.5867
  248loPI   C1A 3959   7.021  11.610   9.600 -0.0614  0.0629 -0.2966
  248loPI   C2A 3960   6.971  11.555   9.131 -0.1878 -0.1501  0.0816
  248loPI   C3A 3961   6.820  11.653   8.724 -0.0035  0.0533  0.0930
  248loPI   C4A 3962   6.972  11.571   8.370 -0.1714  0.0531 -0.2316
  248loPI   C5A 3963   6.886  11.286   8.083 -0.1210  0.0213 -0.1931
  248loPI   C6A 3964   6.602  10.868   8.062 -0.1304  0.1575  0.1856
  248loPI   C1B 3965   6.590  11.795   9.424  0.0417  0.0409  0.0635
  248loPI   C2B 3966   6.431  11.852   8.970 -0.3658 -0.2933  0.2287
  248loPI   C3B 3967   6.406  11.980   8.574  0.1261  0.0924  0.0083
  248loPI   C4B 3968   6.344  12.106   8.199 -0.1078 -0.0915  0.0582
  249loPI    C1 3969  10.764   1.952  10.419  0.1790  0.3140  0.0123
  249loPI    C2 3970  11.030   2.032  10.706  0.1031 -0.0103  0.1782
  249loPI    C3 3971  10.686   1.850  10.798  0.0025  0.0379 -0.0947
  249loPI   PO4 3972  10.903   1.821  10.204  0.0634 -0.1909  0.2145
  249loPI   GL1 3973  10.713   1.854   9.796  0.0883  0.0324  0.1122
  249loPI   GL2 3974  10.424   1.667   9.749  0.1768 -0.2256 -0.1629
  249loPI   C1A 3975  10.648   1.942   9.385  0.0908  0.2116  0.1322
  249loPI   C2A 3976  10.692   2.062   9.047 -0.0651 -0.3381 -0.1666
  249loPI   C3A 3977  10.708   2.023   8.571 -0.2718 -0.0614 -0.2004
  249loPI   C4A 3978  10.687   1.890   8.148  0.0839 -0.1346 -0.0501
  249loPI   C5A 3979  10.386   1.742   7.880 -0.1837 -0.1080 -0.2362
  249loPI   C6A 3980   9.870   1.861   7.731 -0.1027 -0.1350 -0.1756
  249loPI   C1B 3981  10.303   1.565   9.392 -0.2340 -0.2478  0.0334
  249loPI   C2B 3982  10.128   1.426   8.979 -0.1527  0.2542  0.2373
  249loPI   C3B 3983  10.075   1.568   8.520 -0.0149  0.0524  0.2154
  249loPI   C4B 3984   9.974   1.487   8.049 -0.1589 -0.1506  0.2331
  250loPI    C1 3985  12.218   9.976  10.268  0.0415  0.0090 -0.0566
  250loPI    C2 3986  12.425  10.297  10.385  0.2041 -0.1072 -0.0223
  250loPI    C3 3987  12.027  10.294  10.418  0.1860  0.1577 -0.1837
  250loPI   PO4 3988  12.235   9.850   9.972 -0.0810  0.2992 -0.1119
  250loPI   GL1 3989  12.008   9.633   9.634 -0.4753 -0.5390 -0.0575
  250loPI   GL2 3990  12.339   9.707   9.494  0.2385  0.2598 -0.0699
  250loPI   C1A 3991  11.614   9.732   9.501 -0.1173  0.1772 -0.0046
  250loPI   C2A 3992  11.578   9.529   9.053  0.1013 -0.2360 -0.0670
  250loPI   C3A 3993  11.544   9.307   8.655  0.1543 -0.2625 -0.0521
  250loPI   C4A 3994  11.651   9.007   8.461 -0.0074 -0.2477 -0.2538
  250loPI   C5A 3995  11.820   8.840   8.245  0.0426 -0.2207  0.3014
  250loPI   C6A 3996  11.769   8.592   7.790 -0.0316  0.2530 -0.0575
  250loPI   C1B 3997  12.089   9.542   9.070 -0.1052  0.1353  0.0858
  250loPI   C2B 3998  12.050   9.476   8.666  0.4959  0.2566 -0.0907
  250loPI   C3B 3999  12.029   9.329   8.207 -0.2122  0.1756 -0.5483
  250loPI   C4B 4000  12.030   9.085   7.843  0.1791  0.1465  0.1481
  251loPI    C1 4001   7.520   8.919  10.767 -0.0213 -0.0029  0.0978
  251loPI    C2 4002   7.154   8.774  10.835 -0.0061 -0.1516 -0.1302
  251loPI    C3 4003   7.473   8.534  10.864  0.0689 -0.0364  0.0104
  251loPI   PO4 4004   7.608   9.010  10.516  0.1618  0.2801 -0.1655
  251loPI   GL1 4005   7.573   8.866  10.131  0.1436 -0.1178 -0.1573
  251loPI   GL2 4006   7.332   8.843  10.025 -0.1443  0.0091 -0.0268
  251loPI   C1A 4007   7.875   8.730   9.761 -0.1565 -0.0448 -0.0272
  251loPI   C2A 4008   7.762   8.770   9.332  0.0081 -0.0592  0.0305
  251loPI   C3A 4009   7.665   8.721   8.900 -0.0437  0.2487 -0.1750
  251loPI   C4A 4010   7.480   8.614   8.495 -0.0415 -0.0930  0.0716
  251loPI   C5A 4011   7.476   8.460   8.032  0.3498 -0.1451  0.5387
  251loPI   C6A 4012   7.004   8.392   7.924 -0.1673  0.0449  0.0064
  251loPI   C1B 4013   7.330   8.978   9.642 -0.1777  0.0426 -0.1283
  251loPI   C2B 4014   7.266   8.819   9.247  0.4984  0.0417  0.0529
  251loPI   C3B 4015   7.152   8.574   8.834  0.0433 -0.1238 -0.1561
  251loPI   C4B 4016   7.003   8.312   8.441 -0.0180 -0.0077  0.1669
  252loPI    C1 4017   9.565   0.243  10.049  0.0095 -0.0425  0.2222
  252loPI    C2 4018   9.594   0.576  10.269  0.2318  0.0163  0.1068
  252loPI    C3 4019   9.717   0.226  10.419  0.1117  0.0059  0.1827
  252loPI   PO4 4020   9.328   0.356   9.863  0.2792  0.0528  0.3650
  252loPI   GL1 4021   8.950   0.591   9.586 -0.2786  0.0018 -0.0229
  252loPI   GL2 4022   8.642   0.658   9.668 -0.1429 -0.0773  0.2265
  252loPI   C1A 4023   8.880   0.667   9.169 -0.1935  0.0121 -0.0389
  252loPI   C2A 4024   8.778   0.794   8.702  0.2229  0.0229 -0.1346
  252loPI   C3A 4025   8.446   0.972   8.346 -0.0061 -0.1444 -0.1534
  252loPI   C4A 4026   8.298   1.166   7.910 -0.1325 -0.2581  0.0884
  252loPI   C5A 4027   7.906   1.302   7.646  0.3056  0.1872  0.2084
  252loPI   C6A 4028   7.862   1.715   7.441  0.0238 -0.3569 -0.0412
  252loPI   C1B 4029   8.413   0.478   9.297 -0.0238 -0.1408  0.1420
  252loPI   C2B 4030   8.358   0.557   8.888 -0.1436  0.0594 -0.0784
  252loPI   C3B 4031   8.387   0.450   8.488  0.0792 -0.1688  0.2369
  252loPI   C4B 4032   8.228   0.480   8.014 -0.0653  0.5223 -0.1409
  253loPI    C1 4033  15.568   8.777  10.538  0.1937  0.0878  0.0540
  253loPI    C2 4034  15.473   8.730  10.924 -0.1583  0.0544 -0.0341
  253loPI    C3 4035  15.719   9.025  10.813 -0.2638  0.2276  0.1868
  253loPI   PO4 4036  15.320   8.681  10.438 -0.0888  0.0603  0.2075
  253loPI   GL1 4037  15.375   8.373  10.087  0.2157 -0.3712  0.1866
  253loPI   GL2 4038  15.352   7.978  10.220 -0.1233  0.3159 -0.0294
  253loPI   C1A 4039  15.436   8.415   9.639 -0.1558 -0.1749  0.2229
  253loPI   C2A 4040  15.589   8.419   9.254  0.2111 -0.0956 -0.1534
  253loPI   C3A 4041  15.747   8.391   8.935 -0.1730  0.1623  0.0577
  253loPI   C4A 4042  15.570   8.492   8.593  0.0193  0.1613  0.4287
  253loPI   C5A 4043  15.408   8.736   8.131  0.0560 -0.3302  0.0570
  253loPI   C6A 4044  15.404   8.456   7.796  0.1929  0.2105  0.1711
  253loPI   C1B 4045  15.454   7.954   9.891  0.1294 -0.0609  0.0805
  253loPI   C2B 4046  15.508   7.941   9.444 -0.1387 -0.0275  0.3101
  253loPI   C3B 4047  15.289   8.065   9.128 -0.0317  0.0903  0.0975
  253loPI   C4B 4048  15.081   8.108   8.596 -0.0630 -0.0885 -0.0169
  254loPI    C1 4049   3.712  11.581  10.703 -0.0493  0.1745 -0.0524
  254loPI    C2 4050   3.533  11.854  10.934  0.2577  0.1113  0.2697
  254loPI    C3 4051   3.489  11.465  11.015  0.0524  0.0713 -0.0172
  254loPI   PO4 4052   3.616  11.690  10.458  0.1327  0.2207  0.3804
  254loPI   GL1 4053   3.584  11.907   9.963 -0.1493 -0.0607  0.0652
  254loPI   GL2 4054   3.922  11.694   9.951  0.2255 -0.1183 -0.3211
  254loPI   C1A 4055   3.457  12.085   9.460 -0.2321 -0.1627 -0.1406
  254loPI   C2A 4056   3.611  12.219   9.093 -0.0144  0.3312 -0.0723
  254loPI   C3A 4057   3.662  12.620   8.826  0.0306 -0.3388  0.1640
  254loPI   C4A 4058   3.579  12.869   8.418  0.0002 -0.0783 -0.2414
  254loPI   C5A 4059   3.424  12.981   8.079  0.3979  0.2275 -0.1770
  254loPI   C6A 4060   2.972  13.060   7.938 -0.0281 -0.0324  0.1059
  254loPI   C1B 4061   4.262  11.535   9.589  0.1082 -0.4022  0.2995
  254loPI   C2B 4062   4.556  11.573   9.273  0.1872  0.1211  0.1858
  254loPI   C3B 4063   4.555  11.568   8.852 -0.0582  0.3220 -0.2327
  254loPI   C4B 4064   4.354  11.793   8.580  0.1437 -0.0163 -0.1669
  255loPI    C1 4065  17.271  17.426  10.366  0.0778 -0.0908 -0.1291
  255loPI    C2 4066  17.176  17.571  10.726  0.2073 -0.5642  0.1029
  255loPI    C3 4067  16.887  17.469  10.470  0.1114  0.1854 -0.1107
  255loPI   PO4 4068  17.389  17.588  10.166  0.0628 -0.0004  0.0986
  255loPI   GL1 4069  17.160  17.539   9.810  0.0138  0.1022 -0.0429
  255loPI   GL2 4070  16.838  17.530   9.910 -0.1288 -0.0506 -0.1110
  255loPI   C1A 4071  17.194  17.593   9.388  0.1256 -0.0336  0.2494
  255loPI   C2A 4072  17.454  17.389   9.142  0.0132 -0.4444  0.0667
  255loPI   C3A 4073  17.852  17.136   8.884  0.0677  0.0984  0.0659
  255loPI   C4A 4074  18.155  17.331   8.531 -0.0988 -0.2756 -0.2061
  255loPI   C5A 4075  17.881  17.734   8.357  0.2480  0.2135  0.0948
  255loPI   C6A 4076  17.727  18.137   8.278  0.1833 -0.0719 -0.0450
  255loPI   C1B 4077  16.674  17.513   9.488 -0.1434  0.2850 -0.0047
  255loPI   C2B 4078  16.491  17.255   9.178  0.3031 -0.3269  0.1280
  255loPI   C3B 4079  16.486  17.013   8.820 -0.2295 -0.2544 -0.2550
  255loPI   C4B 4080  16.560  16.609   8.542  0.0391 -0.0051 -0.0635
  256loPI    C1 4081   4.543   5.682  10.489  0.1578  0.0515 -0.1637
  256loPI    C2 4082   4.417   6.008  10.684 -0.2114 -0.1566 -0.0450
  256loPI    C3 4083   4.542   5.688  10.889 -0.0512 -0.1683 -0.1590
  256loPI   PO4 4084   4.357   5.662  10.276 -0.1998  0.4659 -0.1088
  256loPI   GL1 4085   4.568   5.684   9.849  0.1587  0.2696  0.0300
  256loPI   GL2 4086   4.393   5.384   9.851 -0.2464 -0.0465  0.0566
  256loPI   C1A 4087   4.600   5.598   9.383  0.0492 -0.1444  0.3045
  256loPI   C2A 4088   4.760   5.365   9.108  0.2792  0.0246  0.0140
  256loPI   C3A 4089   4.849   5.241   8.747  0.0967 -0.1476  0.4080
  256loPI   C4A 4090   4.903   5.097   8.321  0.2485  0.2537 -0.0163
  256loPI   C5A 4091   4.942   5.165   7.804 -0.0776  0.5723  0.1792
  256loPI   C6A 4092   4.909   4.963   7.394  0.0147 -0.1181 -0.0680
  256loPI   C1B 4093   4.373   5.136   9.376  0.0312 -0.0838 -0.1169
  256loPI   C2B 4094   4.310   5.155   8.922 -0.2810  0.2224  0.3541
  256loPI   C3B 4095   4.446   4.906   8.567  0.1049  0.3102  0.2199
  256loPI   C4B 4096   4.685   4.608   8.228 -0.0111  0.1298  0.2569
  257loPI    C1 4097  13.858   0.004  10.006 -0.2004 -0.0935  0.1716
  257loPI    C2 4098  14.078  -0.008   9.672 -0.0351  0.1665  0.2677
  257loPI    C3 4099  13.867  -0.329   9.784 -0.0856  0.0739 -0.0795
  257loPI   PO4 4100  13.680   0.164   9.987  0.1832 -0.3339 -0.0883
  257loPI   GL1 4101  13.657   0.488   9.712 -0.0552 -0.0030  0.3294
  257loPI   GL2 4102  13.340   0.357   9.662 -0.0265 -0.1751 -0.0795
  257loPI   C1A 4103  13.479   0.840   9.422  0.0946 -0.0639 -0.0405
  257loPI   C2A 4104  13.316   0.745   9.018  0.0604  0.0936 -0.1912
  257loPI   C3A 4105  13.144   0.800   8.647 -0.2301 -0.4597 -0.2493
  257loPI   C4A 4106  12.975   1.062   8.370  0.1503 -0.5485 -0.4514
  257loPI   C5A 4107  12.747   1.462   8.682 -0.3915  0.1036 -0.0928
  257loPI   C6A 4108  12.745   1.475   9.162 -0.0786 -0.0785 -0.2583
  257loPI   C1B 4109  13.089   0.211   9.362  0.2468  0.2294 -0.0320
  257loPI   C2B 4110  12.853   0.029   9.011 -0.1602  0.1374 -0.0924
  257loPI   C3B 4111  12.715  -0.332   8.873  0.0144  0.0673 -0.1356
  257loPI   C4B 4112  12.716  -0.692   8.526  0.2286 -0.1487  0.1898
  258loPI    C1 4113   8.335   1.356  10.287 -0.2643  0.2040  0.0435
  258loPI    C2 4114   8.158   1.135  10.569 -0.0383 -0.5487 -0.3764
  258loPI    C3 4115   8.557   1.153  10.551 -0.0529 -0.0912 -0.3504
  258loPI   PO4 4116   8.199   1.243  10.055  0.1647  0.1941 -0.1945
  258loPI   GL1 4117   8.246   1.322   9.542 -0.0381 -0.0769  0.0700
  258loPI   GL2 4118   8.382   1.074   9.509  0.2386  0.0021  0.1021
  258loPI   C1A 4119   8.155   1.436   9.076  0.0457 -0.0699 -0.4087
  258loPI   C2A 4120   8.074   1.767   8.840 -0.2072  0.0581 -0.0258
  258loPI   C3A 4121   8.269   1.841   8.431  0.0347 -0.0194  0.3790
  258loPI   C4A 4122   8.608   1.497   8.268  0.2780  0.0352  0.1220
  258loPI   C5A 4123   8.798   1.190   8.071 -0.1899 -0.0281  0.0443
  258loPI   C6A 4124   9.130   1.120   7.961 -0.2850 -0.3375  0.6480
  258loPI   C1B 4125   8.568   1.002   9.109 -0.0780 -0.0907 -0.3303
  258loPI   C2B 4126   8.563   1.250   8.789 -0.1113  0.0318  0.2936
  258loPI   C3B 4127   8.220   1.406   8.564 -0.1133  0.2556 -0.0777
  258loPI   C4B 4128   7.803   1.213   8.590 -0.1193  0.1856 -0.1306
  259loPI    C1 4129   8.532   5.977  10.078 -0.1478 -0.0480 -0.0188
  259loPI    C2 4130   8.386   5.662  10.278 -0.2030 -0.0027  0.0128
  259loPI    C3 4131   8.373   6.027  10.442  0.1333 -0.0278  0.1039
  259loPI   PO4 4132   8.413   5.902   9.851  0.1269  0.0024 -0.1311
  259loPI   GL1 4133   8.519   5.867   9.488  0.3222  0.3540 -0.1693
  259loPI   GL2 4134   8.525   5.444   9.511  0.0008  0.1769  0.0445
  259loPI   C1A 4135   8.531   5.806   9.077  0.1533 -0.0422 -0.1925
  259loPI   C2A 4136   8.359   5.914   8.695  0.1064 -0.1653  0.0312
  259loPI   C3A 4137   8.315   5.934   8.243  0.3400  0.2371 -0.0154
  259loPI   C4A 4138   8.079   5.629   7.999  0.0739  0.1647 -0.1731
  259loPI   C5A 4139   7.762   5.308   7.968 -0.0437  0.0002  0.1358
  259loPI   C6A 4140   7.719   4.802   7.803 -0.1796 -0.0660 -0.1932
  259loPI   C1B 4141   8.720   5.375   9.114 -0.2397  0.2616 -0.2158
  259loPI   C2B 4142   8.866   5.418   8.819  0.3483  0.0358 -0.4208
  259loPI   C3B 4143   9.130   5.544   8.447 -0.3791 -0.3916 -0.0221
  259loPI   C4B 4144   9.435   5.413   8.254 -0.0998  0.1858  0.2448
  260loPI    C1 4145   8.362   4.334  10.061  0.0583  0.0152  0.1109
  260loPI    C2 4146   7.962   4.347  10.062  0.0563 -0.0119 -0.0557
  260loPI    C3 4147   8.156   4.133  10.339 -0.0401  0.0999  0.0996
  260loPI   PO4 4148   8.383   4.267   9.785  0.2984 -0.0895 -0.0393
  260loPI   GL1 4149   8.017   4.363   9.541 -0.2055 -0.0420 -0.1541
  260loPI   GL2 4150   7.855   4.083   9.614 -0.2099  0.1301  0.2384
  260loPI   C1A 4151   8.048   4.550   9.181 -0.1085  0.0872  0.0747
  260loPI   C2A 4152   7.881   4.474   8.801 -0.2104  0.0418 -0.2886
  260loPI   C3A 4153   8.127   4.458   8.445 -0.0696 -0.2541 -0.1209
  260loPI   C4A 4154   8.562   4.533   8.305 -0.0154 -0.1550 -0.0156
  260loPI   C5A 4155   9.040   4.643   8.315  0.1765 -0.3491  0.0857
  260loPI   C6A 4156   9.513   4.680   8.100 -0.0979 -0.2054  0.0517
  260loPI   C1B 4157   8.000   4.092   9.141 -0.2501  0.1547  0.0427
  260loPI   C2B 4158   7.960   4.001   8.686 -0.0818 -0.0941  0.2792
  260loPI   C3B 4159   7.845   3.904   8.200  0.0998  0.2701  0.1463
  260loPI   C4B 4160   7.399   4.036   8.130 -0.1644 -0.0351 -0.0008
  261loPI    C1 4161  12.388  13.630   9.517  0.0568  0.1142  0.2936
  261loPI    C2 4162  12.050  13.518   9.698  0.0439 -0.2576  0.0506
  261loPI    C3 4163  12.103  13.900   9.593 -0.2140 -0.1591  0.2663
  261loPI   PO4 4164  12.561  13.439   9.609 -0.0050  0.0574 -0.1445
  261loPI   GL1 4165  12.851  13.461   9.385 -0.1092  0.2622  0.6058
  261loPI   GL2 4166  12.715  13.158   9.228 -0.3462 -0.0216  0.2433
  261loPI   C1A 4167  12.968  13.617   9.065 -0.2677 -0.1056 -0.0308
  261loPI   C2A 4168  13.035  13.754   8.560 -0.0280  0.0449 -0.2422
  261loPI   C3A 4169  13.090  13.986   8.195  0.1308 -0.2845  0.0624
  261loPI   C4A 4170  13.054  14.397   8.077  0.1866  0.1080  0.3657
  261loPI   C5A 4171  13.077  14.866   7.804 -0.0091  0.1885  0.0447
  261loPI   C6A 4172  12.683  15.128   7.629 -0.2505  0.2598 -0.0305
  261loPI   C1B 4173  13.011  13.173   8.865 -0.0150 -0.0685  0.2768
  261loPI   C2B 4174  13.126  13.223   8.451 -0.0575  0.0835 -0.0814
  261loPI   C3B 4175  13.083  13.079   8.088 -0.2912  0.2852  0.2871
  261loPI   C4B 4176  13.031  12.628   7.831  0.4222 -0.1583 -0.0893
  262loPI    C1 4177   0.208   9.252  10.999 -0.1285  0.0658 -0.0713
  262loPI    C2 4178   0.343   9.616  11.095  0.0071 -0.0123  0.0359
  262loPI    C3 4179   0.389   9.311  11.350 -0.2260 -0.0761  0.0038
  262loPI   PO4 4180   0.016   9.266  10.818  0.1158  0.2756  0.1805
  262loPI   GL1 4181  -0.155   9.331  10.374  0.0888  0.3479 -0.0007
  262loPI   GL2 4182  -0.353   9.519  10.310  0.1081  0.1827  0.2703
  262loPI   C1A 4183   0.025   9.270  10.001  0.1211  0.1625 -0.0001
  262loPI   C2A 4184   0.005   9.180   9.538  0.0330  0.0031  0.1671
  262loPI   C3A 4185  -0.062   9.117   9.203 -0.2201 -0.0340 -0.0863
  262loPI   C4A 4186  -0.198   9.227   8.830  0.1370 -0.1599  0.2391
  262loPI   C5A 4187  -0.202   9.234   8.335  0.0938 -0.1657 -0.0087
  262loPI   C6A 4188   0.003   9.051   8.106 -0.0943 -0.0025 -0.0543
  262loPI   C1B 4189  -0.398   9.535   9.844  0.0320 -0.0107 -0.0686
  262loPI   C2B 4190  -0.725   9.378   9.569 -0.0960 -0.1934  0.1897
  262loPI   C3B 4191  -0.736   9.311   9.132 -0.3712  0.5063  0.2455
  262loPI   C4B 4192  -0.650   9.239   8.672 -0.0932 -0.0016 -0.0899
  263loPI    C1 4193  12.707   2.532  10.529  0.0127  0.0153 -0.1444
  263loPI    C2 4194  12.660   2.146  10.431  0.1188 -0.0018 -0.1288
  263loPI    C3 4195  12.723   2.250  10.812 -0.0844  0.0468 -0.1072
  263loPI   PO4 4196  12.922   2.588  10.313 -0.1092 -0.0859 -0.2262
  263loPI   GL1 4197  13.160   2.762   9.873  0.0037  0.2725 -0.0562
  263loPI   GL2 4198  12.989   2.619   9.777  0.0782  0.2344  0.1128
  263loPI   C1A 4199  13.206   2.966   9.498 -0.1429 -0.3860  0.2979
  263loPI   C2A 4200  13.170   2.850   9.033 -0.0965 -0.1360 -0.2989
  263loPI   C3A 4201  13.130   2.946   8.564 -0.2121 -0.0806  0.0177
  263loPI   C4A 4202  13.280   3.214   8.227 -0.1372  0.1574 -0.0356
  263loPI   C5A 4203  13.242   3.641   7.977 -0.1196  0.2639  0.1209
  263loPI   C6A 4204  13.248   4.029   7.901 -0.0589  0.1181 -0.0676
  263loPI   C1B 4205  12.708   2.838   9.520  0.2715  0.0316  0.2563
  263loPI   C2B 4206  12.742   3.116   9.194  0.1411  0.0596 -0.1431
  263loPI   C3B 4207  12.829   3.329   8.792 -0.4418  0.1456 -0.1949
  263loPI   C4B 4208  12.784   3.428   8.421  0.0715 -0.0712  0.2072
  264loPI    C1 4209  10.323   4.393  10.521  0.0101 -0.2567  0.0567
  264loPI    C2 4210  10.269   4.712  10.756 -0.2079 -0.0659 -0.2449
  264loPI    C3 4211  10.319   4.350  10.919  0.0734  0.1221  0.1019
  264loPI   PO4 4212  10.564   4.445  10.414 -0.0515  0.1028 -0.2777
  264loPI   GL1 4213  10.674   4.715  10.068 -0.3080 -0.1052  0.0237
  264loPI   GL2 4214  10.332   4.555   9.995 -0.0994  0.0566  0.1857
  264loPI   C1A 4215  10.853   4.881   9.615 -0.1061 -0.1572 -0.1831
  264loPI   C2A 4216  10.913   4.975   9.222 -0.0990 -0.0360  0.1631
  264loPI   C3A 4217  10.862   4.957   8.816  0.1373  0.0928 -0.2451
  264loPI   C4A 4218  10.784   4.845   8.358 -0.0240  0.1924  0.1286
  264loPI   C5A 4219  10.977   4.399   8.239 -0.0850 -0.1436  0.1963
  264loPI   C6A 4220  10.853   4.067   7.936  0.2754  0.0444  0.0315
  264loPI   C1B 4221  10.426   4.573   9.641 -0.0406  0.2478 -0.1091
  264loPI   C2B 4222  10.450   4.777   9.161  0.0695  0.2335 -0.3354
  264loPI   C3B 4223  10.368   4.641   8.736 -0.0984  0.0293  0.1841
  264loPI   C4B 4224  10.270   4.788   8.366  0.1421 -0.2584  0.0478
  265loPI    C1 4225   1.347   1.806  10.362 -0.0305  0.0380 -0.0295
  265loPI    C2 4226   1.024   1.575  10.314 -0.0069 -0.0261  0.1133
  265loPI    C3 4227   1.031   1.851  10.604 -0.0577  0.1957 -0.0927
  265loPI   PO4 4228   1.559   1.703  10.314 -0.1197  0.1490  0.0310
  265loPI   GL1 4229   1.478   1.503   9.900  0.1204 -0.2335 -0.1410
  265loPI   GL2 4230   1.654   1.704   9.844  0.3608  0.0781  0.0081
  265loPI   C1A 4231   1.255   1.594   9.600  0.0154  0.1508  0.3764
  265loPI   C2A 4232   1.081   1.647   9.179 -0.2989 -0.0595 -0.0430
  265loPI   C3A 4233   1.157   1.880   8.783  0.0890  0.0592  0.1523
  265loPI   C4A 4234   1.401   1.956   8.401 -0.0378  0.1854 -0.1777
  265loPI   C5A 4235   1.675   1.991   8.199 -0.2493 -0.0718  0.0798
  265loPI   C6A 4236   1.953   2.308   7.945  0.2160 -0.1309 -0.2432
  265loPI   C1B 4237   1.960   1.634   9.459  0.0371  0.0488 -0.3872
  265loPI   C2B 4238   2.064   1.818   8.959 -0.0482 -0.2680  0.0895
  265loPI   C3B 4239   2.204   1.839   8.509 -0.1527  0.0415 -0.0764
  265loPI   C4B 4240   2.139   1.790   8.095  0.0533 -0.1824 -0.0755
  266loPI    C1 4241  10.981   0.458  10.037 -0.2353 -0.1067 -0.0019
  266loPI    C2 4242  11.035   0.545  10.424  0.0323 -0.1712 -0.0226
  266loPI    C3 4243  11.050   0.164  10.300 -0.0531 -0.1507 -0.0967
  266loPI   PO4 4244  11.171   0.611   9.898 -0.1717  0.0232 -0.0216
  266loPI   GL1 4245  11.196   0.885   9.623 -0.0763  0.3702  0.1971
  266loPI   GL2 4246  10.999   1.069   9.646 -0.0210  0.0171 -0.3147
  266loPI   C1A 4247  11.564   0.835   9.395  0.2592  0.0197 -0.0973
  266loPI   C2A 4248  11.727   0.975   8.890 -0.1985  0.1502 -0.2178
  266loPI   C3A 4249  11.894   0.833   8.504  0.0112 -0.1705  0.1359
  266loPI   C4A 4250  12.228   0.939   8.162 -0.0242 -0.1772  0.0623
  266loPI   C5A 4251  12.389   0.677   7.936  0.0261 -0.3147 -0.4284
  266loPI   C6A 4252  12.610   0.309   8.125  0.0256 -0.0949  0.2313
  266loPI   C1B 4253  10.872   1.320   9.338  0.2150 -0.2226  0.0129
  266loPI   C2B 4254  10.675   1.554   9.037  0.0585  0.0262  0.0238
  266loPI   C3B 4255  10.574   1.555   8.527 -0.0095  0.1994 -0.3159
  266loPI   C4B 4256  10.637   1.340   8.125  0.0177  0.1789 -0.0660
  267loPI    C1 4257   4.826  10.010  10.505  0.0018  0.3738  0.0931
  267loPI    C2 4258   4.571   9.795  10.726 -0.0245  0.2848 -0.0230
  267loPI    C3 4259   4.962   9.788  10.810 -0.0166  0.1368 -0.0683
  267loPI   PO4 4260   4.854   9.922  10.294 -0.3054 -0.0463  0.1139
  267loPI   GL1 4261   4.945  10.017   9.880 -0.1669 -0.2054  0.1585
  267loPI   GL2 4262   5.000  10.339   9.842 -0.5014 -0.2003 -0.0181
  267loPI   C1A 4263   5.196   9.699   9.593  0.0291  0.0110 -0.2515
  267loPI   C2A 4264   5.426   9.803   9.096 -0.2046 -0.1271 -0.4252
  267loPI   C3A 4265   5.699   9.571   8.780  0.1943 -0.0050  0.0376
  267loPI   C4A 4266   5.719   9.227   8.442 -0.2500  0.3287  0.2785
  267loPI   C5A 4267   5.563   9.226   8.086  0.2092 -0.0847 -0.2661
  267loPI   C6A 4268   5.775   9.328   7.784  0.3191 -0.0585  0.1814
  267loPI   C1B 4269   4.961  10.159   9.359  0.1027 -0.1439 -0.0743
  267loPI   C2B 4270   4.931  10.156   8.945  0.0487 -0.0070 -0.0962
  267loPI   C3B 4271   5.287  10.067   8.702  0.0149 -0.0105 -0.3414
  267loPI   C4B 4272   5.428   9.716   8.415 -0.0288 -0.0548 -0.1346
  268loPI    C1 4273  16.420   9.757  10.390  0.2090  0.0996  0.1004
  268loPI    C2 4274  16.239   9.973  10.674  0.1576 -0.1392  0.2521
  268loPI    C3 4275  16.547   9.736  10.768  0.0476 -0.3310  0.1361
  268loPI   PO4 4276  16.454   9.906  10.189  0.2884 -0.0146  0.1891
  268loPI   GL1 4277  16.477  10.051   9.781 -0.0559 -0.1233 -0.0400
  268loPI   GL2 4278  16.199  10.080   9.779 -0.1099  0.0013  0.0539
  268loPI   C1A 4279  16.812  10.023   9.566  0.2935 -0.1810 -0.0058
  268loPI   C2A 4280  16.990   9.779   9.329 -0.1356 -0.3189  0.0798
  268loPI   C3A 4281  17.250   9.942   8.898 -0.1961 -0.0214 -0.0133
  268loPI   C4A 4282  17.406   9.800   8.503 -0.0755  0.0757 -0.2153
  268loPI   C5A 4283  17.575   9.820   8.143 -0.1367 -0.0278  0.0991
  268loPI   C6A 4284  17.832  10.146   7.854  0.2438  0.0534  0.1368
  268loPI   C1B 4285  16.068   9.974   9.269 -0.0930  0.3924 -0.2089
  268loPI   C2B 4286  16.281  10.016   8.856  0.1561 -0.1905 -0.0787
  268loPI   C3B 4287  16.618  10.173   8.646 -0.4294 -0.0654 -0.1328
  268loPI   C4B 4288  16.890  10.052   8.451  0.4384  0.0370  0.1893
  269loPI    C1 4289  10.926   2.387  10.281 -0.0969 -0.0365 -0.2824
  269loPI    C2 4290  11.280   2.206  10.239 -0.0255  0.0628 -0.1173
  269loPI    C3 4291  11.224   2.471  10.534 -0.2510  0.0151 -0.1153
  269loPI   PO4 4292  10.835   2.434  10.059 -0.1117 -0.2170  0.2077
  269loPI   GL1 4293  10.983   2.355   9.686  0.5294  0.0524 -0.2372
  269loPI   GL2 4294  11.326   2.459   9.779 -0.0374 -0.0521 -0.0511
  269loPI   C1A 4295  11.084   2.289   9.246 -0.2467  0.1797 -0.2881
  269loPI   C2A 4296  11.447   2.228   8.973  0.0100 -0.1939 -0.1335
  269loPI   C3A 4297  11.633   2.294   8.645  0.0067 -0.2494  0.1527
  269loPI   C4A 4298  11.884   2.222   8.341 -0.5690 -0.2006 -0.1472
  269loPI   C5A 4299  11.946   1.993   7.984 -0.2059 -0.2526  0.1034
  269loPI   C6A 4300  12.061   2.139   7.565 -0.1360  0.0711 -0.2158
  269loPI   C1B 4301  11.541   2.499   9.397  0.0207  0.1850  0.1948
  269loPI   C2B 4302  11.818   2.634   8.997  0.0939 -0.1847  0.0552
  269loPI   C3B 4303  11.877   2.771   8.598  0.3300  0.1944  0.0400
  269loPI   C4B 4304  11.923   2.958   8.287  0.0450 -0.1267 -0.2002
  270loPI    C1 4305  15.683   4.506  10.813  0.1656  0.0017 -0.0555
  270loPI    C2 4306  16.029   4.319  10.883  0.0537 -0.2166 -0.0756
  270loPI    C3 4307  15.805   4.447  11.189  0.1939  0.0064 -0.0639
  270loPI   PO4 4308  15.752   4.510  10.508  0.0100  0.1748 -0.3917
  270loPI   GL1 4309  15.762   4.415  10.067 -0.2487 -0.1134 -0.0121
  270loPI   GL2 4310  16.077   4.633  10.074 -0.2194 -0.3711 -0.0542
  270loPI   C1A 4311  15.682   4.323   9.605  0.1103 -0.2881  0.2873
  270loPI   C2A 4312  15.489   4.141   9.258 -0.1100  0.1403  0.0737
  270loPI   C3A 4313  15.310   3.961   8.980  0.1302  0.0528  0.0427
  270loPI   C4A 4314  15.145   3.865   8.770 -0.3015 -0.0870  0.1005
  270loPI   C5A 4315  14.887   4.060   8.547  0.1196  0.1309  0.1648
  270loPI   C6A 4316  14.753   3.964   8.182 -0.0951 -0.3152 -0.2065
  270loPI   C1B 4317  15.989   4.736   9.632  0.1622  0.1867  0.2754
  270loPI   C2B 4318  16.074   4.707   9.246 -0.0176  0.3097 -0.2207
  270loPI   C3B 4319  16.185   4.725   8.852  0.2246  0.0182 -0.2227
  270loPI   C4B 4320  16.035   4.895   8.473 -0.1948 -0.1736  0.2572
  271loPI    C1 4321  10.435  12.822   9.856 -0.0453  0.0017  0.0185
  271loPI    C2 4322  10.259  12.738  10.205  0.0594 -0.0268  0.0647
  271loPI    C3 4323  10.399  13.106  10.135 -0.1507  0.0366 -0.0300
  271loPI   PO4 4324  10.309  12.782   9.641  0.0656  0.1257  0.0142
  271loPI   GL1 4325  10.052  12.814   9.395  0.1883  0.0465 -0.0703
  271loPI   GL2 4326  10.007  12.447   9.300 -0.1371 -0.1141 -0.0693
  271loPI   C1A 4327  10.251  12.786   8.997 -0.0769 -0.2254 -0.0649
  271loPI   C2A 4328  10.357  12.707   8.602 -0.0212 -0.0048 -0.2988
  271loPI   C3A 4329  10.652  12.742   8.273 -0.1024 -0.1811  0.0248
  271loPI   C4A 4330  10.817  12.555   8.011 -0.2567  0.1688  0.0903
  271loPI   C5A 4331  10.971  12.292   7.734  0.1375  0.0406 -0.1984
  271loPI   C6A 4332  11.260  12.422   7.404 -0.1209  0.0833 -0.2307
  271loPI   C1B 4333  10.178  12.296   8.865 -0.0073 -0.0934  0.1143
  271loPI   C2B 4334  10.047  12.203   8.406 -0.0488  0.0768  0.1681
  271loPI   C3B 4335   9.885  12.144   7.889 -0.3563 -0.1740 -0.0076
  271loPI   C4B 4336   9.885  12.207   7.518 -0.0479 -0.1869  0.0905
  272loPI    C1 4337  18.151  12.671  10.554  0.1496 -0.1378 -0.0032
  272loPI    C2 4338  18.426  12.406  10.673  0.2501  0.0073  0.0912
  272loPI    C3 4339  18.397  12.759  10.857  0.1226  0.0657 -0.0394
  272loPI   PO4 4340  18.202  12.675  10.333 -0.1399  0.0197  0.1320
  272loPI   GL1 4341  18.471  12.846   9.985  0.0461  0.0871 -0.2443
  272loPI   GL2 4342  18.195  12.998   9.908  0.2432  0.0091  0.0023
  272loPI   C1A 4343  18.880  12.890   9.751  0.0452 -0.1085 -0.0924
  272loPI   C2A 4344  18.887  12.924   9.259 -0.0644 -0.2299  0.0336
  272loPI   C3A 4345  18.799  13.156   8.950 -0.4619  0.1049  0.2339
  272loPI   C4A 4346  18.666  13.110   8.488  0.3096 -0.0642 -0.0485
  272loPI   C5A 4347  18.876  13.052   8.192  0.0729 -0.2632 -0.1989
  272loPI   C6A 4348  18.878  12.805   7.788  0.2503 -0.3052 -0.0934
  272loPI   C1B 4349  18.343  12.909   9.436  0.0123 -0.1028 -0.2303
  272loPI   C2B 4350  18.293  13.016   9.100  0.0814 -0.3041 -0.0504
  272loPI   C3B 4351  17.809  12.904   8.936 -0.2625  0.4794 -0.1438
  272loPI   C4B 4352  17.482  12.757   9.077  0.1278 -0.1944 -0.0176
  273loPI    C1 4353   8.296  10.977  10.023  0.0112 -0.0838 -0.0813
  273loPI    C2 4354   8.409  10.907  10.401 -0.1525 -0.1523 -0.0443
  273loPI    C3 4355   8.044  11.053  10.324 -0.0250  0.1116 -0.1596
  273loPI   PO4 4356   8.524  11.052   9.903 -0.0991  0.1949 -0.0075
  273loPI   GL1 4357   8.553  11.298   9.624 -0.3693  0.1540  0.2312
  273loPI   GL2 4358   8.806  11.476   9.446  0.1987 -0.2248  0.2181
  273loPI   C1A 4359   8.416  11.546   9.211 -0.0610  0.3475 -0.3272
  273loPI   C2A 4360   8.397  11.584   8.802  0.1403 -0.2016 -0.0191
  273loPI   C3A 4361   8.353  11.525   8.397  0.0166  0.0805  0.0080
  273loPI   C4A 4362   8.309  11.806   8.035  0.2698 -0.1176 -0.0003
  273loPI   C5A 4363   8.400  11.899   7.683  0.1205 -0.2613 -0.0280
  273loPI   C6A 4364   8.745  12.198   7.473  0.1832  0.2593  0.2283
  273loPI   C1B 4365   8.818  11.070   9.246  0.0162 -0.1701  0.4790
  273loPI   C2B 4366   8.892  10.990   8.838 -0.1282 -0.2396  0.1577
  273loPI   C3B 4367   9.152  11.004   8.541 -0.0159  0.3794 -0.1811
  273loPI   C4B 4368   9.121  11.080   8.151  0.1863  0.0283 -0.1782
  274loPI    C1 4369   9.210  13.408   9.963 -0.0383  0.0814  0.0299
  274loPI    C2 4370   9.103  13.792   9.997  0.1309  0.1250  0.0795
  274loPI    C3 4371   9.486  13.687  10.042  0.0834 -0.0514  0.0767
  274loPI   PO4 4372   9.215  13.209   9.762  0.1474 -0.1211  0.1864
  274loPI   GL1 4373   9.102  12.945   9.471  0.0064 -0.2794 -0.0025
  274loPI   GL2 4374   8.777  13.041   9.616  0.3555  0.1326 -0.3015
  274loPI   C1A 4375   9.373  13.143   9.103 -0.3388 -0.1600  0.2261
  274loPI   C2A 4376   9.444  13.342   8.692 -0.1180  0.0436 -0.2488
  274loPI   C3A 4377   9.390  13.514   8.395 -0.1735 -0.1056 -0.0054
  274loPI   C4A 4378   9.317  13.560   8.001  0.0227  0.0259  0.1183
  274loPI   C5A 4379   9.316  13.449   7.563 -0.1628  0.0910 -0.0968
  274loPI   C6A 4380   9.085  13.750   7.343  0.1674 -0.0837  0.2363
  274loPI   C1B 4381   8.512  12.840   9.326 -0.1220 -0.0641 -0.2554
  274loPI   C2B 4382   8.450  12.737   8.932  0.3768  0.1009  0.2001
  274loPI   C3B 4383   8.429  12.700   8.601  0.1713 -0.4062 -0.2410
  274loPI   C4B 4384   8.255  12.791   8.300 -0.1064  0.0234 -0.0400
  275loPI    C1 4385   4.430   9.140  10.105  0.1424  0.0317 -0.2335
  275loPI    C2 4386   4.588   9.103  10.470 -0.0746 -0.0002 -0.1411
  275loPI    C3 4387   4.434   9.453  10.354  0.1942  0.0729 -0.2859
  275loPI   PO4 4388   4.660   9.015   9.955 -0.1438 -0.0891  0.1274
  275loPI   GL1 4389   4.907   8.714   9.794 -0.0168 -0.1526  0.3299
  275loPI   GL2 4390   5.194   8.600   9.874  0.0160  0.0099 -0.1377
  275loPI   C1A 4391   4.692   8.602   9.481 -0.4403  0.1980  0.1969
  275loPI   C2A 4392   4.464   8.607   9.053 -0.0157 -0.2548 -0.0738
  275loPI   C3A 4393   4.541   8.542   8.604  0.2645 -0.1630  0.2898
  275loPI   C4A 4394   4.390   8.594   8.268  0.0737 -0.0104 -0.2518
  275loPI   C5A 4395   4.227   8.915   8.022  0.1180  0.2560  0.3450
  275loPI   C6A 4396   4.076   9.212   7.722 -0.0745  0.1074 -0.1263
  275loPI   C1B 4397   5.318   8.804   9.393 -0.0081 -0.0850 -0.3412
  275loPI   C2B 4398   5.753   8.947   9.415 -0.0702 -0.0412 -0.0229
  275loPI   C3B 4399   6.246   8.915   9.221  0.2236 -0.0844 -0.3909
  275loPI   C4B 4400   6.656   8.758   9.202 -0.3239  0.1431  0.1904
  276loPI    C1 4401   9.579  14.907   9.622  0.1572 -0.1875 -0.2953
  276loPI    C2 4402   9.607  14.547   9.796 -0.0192  0.0248  0.1895
  276loPI    C3 4403   9.920  14.796   9.799  0.0237 -0.0276  0.0746
  276loPI   PO4 4404   9.590  15.004   9.331  0.1516 -0.0239 -0.0036
  276loPI   GL1 4405   9.760  15.297   9.133  0.2523 -0.1851  0.1667
  276loPI   GL2 4406  10.004  15.244   8.829 -0.0379  0.2617  0.0717
  276loPI   C1A 4407   9.522  15.270   8.744 -0.1628  0.0744 -0.0804
  276loPI   C2A 4408   9.512  15.324   8.315  0.1410 -0.1344 -0.0821
  276loPI   C3A 4409   9.503  15.420   7.801 -0.0652  0.0933 -0.1581
  276loPI   C4A 4410   9.771  15.629   7.450 -0.1158  0.2370 -0.0089
  276loPI   C5A 4411   9.802  15.458   7.065  0.1859 -0.1000  0.1982
  276loPI   C6A 4412   9.913  15.306   6.778 -0.3232  0.4210 -0.0689
  276loPI   C1B 4413  10.052  15.366   8.423  0.0686  0.3956 -0.0515
  276loPI   C2B 4414   9.944  15.431   7.961  0.2511  0.0753 -0.0161
  276loPI   C3B 4415   9.870  15.196   7.544 -0.0020  0.1281 -0.2886
  276loPI   C4B 4416   9.746  14.973   7.193 -0.1077 -0.1076  0.1445
  277loPI    C1 4417  15.028  12.005   9.918 -0.0412 -0.3689 -0.2550
  277loPI    C2 4418  14.866  11.676  10.077 -0.1471 -0.1105  0.1861
  277loPI    C3 4419  15.014  11.962  10.315 -0.3958  0.3325 -0.1763
  277loPI   PO4 4420  14.945  12.158   9.783  0.0493  0.2835  0.1993
  277loPI   GL1 4421  14.706  12.267   9.365 -0.0836 -0.1035 -0.2052
  277loPI   GL2 4422  14.318  12.168   9.260 -0.2071 -0.1346 -0.1277
  277loPI   C1A 4423  14.914  12.235   8.934  0.3908 -0.0129  0.1724
  277loPI   C2A 4424  14.778  12.138   8.582  0.2153  0.1145 -0.1497
  277loPI   C3A 4425  14.949  12.315   8.234 -0.0160  0.1846  0.0755
  277loPI   C4A 4426  15.220  12.361   7.975  0.2163  0.2566  0.0244
  277loPI   C5A 4427  15.603  12.427   7.904 -0.1943 -0.2735  0.4668
  277loPI   C6A 4428  15.628  12.894   7.969 -0.1445 -0.0747  0.1843
  277loPI   C1B 4429  14.287  12.152   8.853 -0.0724 -0.1667  0.0719
  277loPI   C2B 4430  14.300  11.923   8.494 -0.1439  0.1077 -0.1541
  277loPI   C3B 4431  14.084  11.933   8.143 -0.3299 -0.1229  0.2362
  277loPI   C4B 4432  13.989  12.113   7.756 -0.0352  0.0284  0.1127
  278loPI    C1 4433  10.439  17.737   9.719 -0.1694 -0.1846  0.1233
  278loPI    C2 4434  10.816  17.762   9.587 -0.2233 -0.1093 -0.0182
  278loPI    C3 4435  10.721  17.900   9.950 -0.1143 -0.1314  0.0189
  278loPI   PO4 4436  10.332  17.490   9.618 -0.1439 -0.0800  0.0984
  278loPI   GL1 4437  10.321  17.585   9.250 -0.1589  0.2237  0.0814
  278loPI   GL2 4438  10.166  17.891   9.327 -0.0296  0.0055 -0.5176
  278loPI   C1A 4439  10.576  17.738   8.873  0.2658 -0.1483  0.0776
  278loPI   C2A 4440  10.696  17.756   8.370 -0.0509 -0.0439 -0.0555
  278loPI   C3A 4441  10.869  17.784   7.930  0.1193 -0.4273 -0.0447
  278loPI   C4A 4442  10.960  17.827   7.452  0.2373  0.1522 -0.3055
  278loPI   C5A 4443  10.806  17.863   7.059  0.0919 -0.0999 -0.0493
  278loPI   C6A 4444  10.715  17.584   6.720 -0.2629 -0.2599  0.0608
  278loPI   C1B 4445  10.369  18.199   8.992  0.1045  0.0304 -0.2835
  278loPI   C2B 4446  10.179  18.512   8.712 -0.0527  0.4838 -0.3430
  278loPI   C3B 4447  10.185  18.616   8.290  0.0281  0.0908  0.1719
  278loPI   C4B 4448  10.178  18.621   7.894 -0.0729  0.3075 -0.1133
  279loPI    C1 4449  15.807   6.883  10.427 -0.0209  0.0881 -0.1655
  279loPI    C2 4450  15.804   7.029  10.800  0.0561 -0.1774 -0.0587
  279loPI    C3 4451  15.670   7.253  10.496 -0.0096  0.0398  0.1276
  279loPI   PO4 4452  16.028   6.846  10.428  0.0387  0.1101  0.1364
  279loPI   GL1 4453  16.217   6.854  10.079  0.1508  0.0905  0.2664
  279loPI   GL2 4454  15.924   6.696   9.985 -0.2454  0.0735  0.1981
  279loPI   C1A 4455  16.169   7.070   9.740  0.0092 -0.2500  0.1091
  279loPI   C2A 4456  16.071   7.099   9.325 -0.0158  0.0687  0.4209
  279loPI   C3A 4457  16.024   7.378   8.934 -0.2201  0.1181  0.2673
  279loPI   C4A 4458  15.787   7.725   8.571  0.0277  0.1372  0.0196
  279loPI   C5A 4459  15.865   8.037   8.463  0.2567 -0.0009  0.0625
  279loPI   C6A 4460  15.902   8.375   8.149 -0.2360  0.2044  0.0632
  279loPI   C1B 4461  15.839   6.601   9.613 -0.0326 -0.0085  0.3216
  279loPI   C2B 4462  15.798   6.645   9.160 -0.0102 -0.1687 -0.0929
  279loPI   C3B 4463  15.735   6.517   8.738  0.3870 -0.0248  0.1407
  279loPI   C4B 4464  15.721   6.468   8.287 -0.0534  0.1266  0.1199
  280loPI    C1 4465   2.581  14.759  10.226 -0.1605  0.0102  0.0948
  280loPI    C2 4466   2.474  15.134  10.312  0.0293  0.0443  0.1868
  280loPI    C3 4467   2.830  14.996  10.429  0.1215 -0.0417 -0.1835
  280loPI   PO4 4468   2.531  14.673   9.981  0.3462  0.0919 -0.4108
  280loPI   GL1 4469   2.174  14.953   9.763  0.1007 -0.1861  0.0426
  280loPI   GL2 4470   1.874  14.728   9.712 -0.1211 -0.3522  0.1553
  280loPI   C1A 4471   2.315  14.917   9.253  0.1039 -0.2120  0.0573
  280loPI   C2A 4472   2.313  14.804   8.869  0.0622  0.1598  0.1002
  280loPI   C3A 4473   2.249  14.467   8.525  0.2043  0.3220 -0.2838
  280loPI   C4A 4474   2.036  14.496   8.116 -0.2538 -0.1713  0.1831
  280loPI   C5A 4475   2.228  14.822   7.887  0.1590 -0.3463 -0.2086
  280loPI   C6A 4476   2.518  14.924   7.649 -0.3301  0.2260  0.1842
  280loPI   C1B 4477   1.879  14.690   9.172 -0.1965  0.0752 -0.1708
  280loPI   C2B 4478   1.826  14.581   8.784 -0.3980  0.0533 -0.1408
  280loPI   C3B 4479   1.534  14.364   8.459 -0.2066 -0.3733 -0.0789
  280loPI   C4B 4480   1.276  14.488   8.066  0.2017  0.1152 -0.0388
  281loPI    C1 4481  13.317  18.315  10.243  0.3533  0.2106  0.2915
  281loPI    C2 4482  13.700  18.237  10.327  0.2527 -0.3624  0.2626
  281loPI    C3 4483  13.410  18.043  10.521 -0.0294  0.0789  0.2964
  281loPI   PO4 4484  13.349  18.248   9.914 -0.1192 -0.2775  0.0980
  281loPI   GL1 4485  13.451  18.100   9.562  0.0767 -0.0459 -0.0990
  281loPI   GL2 4486  13.531  18.490   9.503 -0.0447 -0.2311  0.0748
  281loPI   C1A 4487  13.472  17.816   9.169 -0.0560  0.2614 -0.2305
  281loPI   C2A 4488  13.688  17.536   8.931  0.0930 -0.3001 -0.3380
  281loPI   C3A 4489  13.731  17.103   8.788 -0.0198  0.1631 -0.1214
  281loPI   C4A 4490  13.650  16.765   8.812  0.2713 -0.1873 -0.1698
  281loPI   C5A 4491  13.677  16.438   8.641  0.0623  0.3792  0.1741
  281loPI   C6A 4492  13.834  15.927   8.579  0.2037 -0.0431  0.1615
  281loPI   C1B 4493  13.818  18.269   9.215  0.0236 -0.1108  0.1297
  281loPI   C2B 4494  13.910  18.291   8.864  0.0692  0.0039  0.3627
  281loPI   C3B 4495  13.979  18.375   8.418  0.3016  0.1132  0.1695
  281loPI   C4B 4496  13.493  18.374   8.157 -0.0767 -0.0284 -0.1803
  282loPI    C1 4497   5.996  12.795  10.270  0.1188  0.2730 -0.1299
  282loPI    C2 4498   6.275  12.684  10.006  0.0528 -0.3881  0.0592
  282loPI    C3 4499   6.353  12.667  10.398  0.0429  0.2893  0.1031
  282loPI   PO4 4500   5.854  13.010  10.087  0.1352 -0.2640  0.0105
  282loPI   GL1 4501   5.456  12.922   9.776  0.2582 -0.3090 -0.1367
  282loPI   GL2 4502   5.411  12.570   9.656  0.1085  0.0678  0.0291
  282loPI   C1A 4503   5.040  13.043   9.477 -0.1120  0.2515 -0.1875
  282loPI   C2A 4504   4.853  13.039   9.091 -0.0035 -0.0912 -0.1601
  282loPI   C3A 4505   4.828  12.996   8.677 -0.0126 -0.1131 -0.1304
  282loPI   C4A 4506   4.694  13.014   8.254 -0.1418 -0.0710 -0.2668
  282loPI   C5A 4507   4.867  12.734   7.932 -0.2282 -0.2207 -0.0797
  282loPI   C6A 4508   5.186  12.532   7.704  0.3165 -0.2203  0.0705
  282loPI   C1B 4509   5.292  12.638   9.315 -0.0118 -0.0108 -0.0139
  282loPI   C2B 4510   5.220  12.636   8.985 -0.3261 -0.2215 -0.0704
  282loPI   C3B 4511   5.334  12.767   8.573  0.2026 -0.4347  0.1549
  282loPI   C4B 4512   5.463  12.743   8.090 -0.3329 -0.1306 -0.1276
  283loPI    C1 4513   3.979  15.622  10.203 -0.1056 -0.0088 -0.1625
  283loPI    C2 4514   4.114  15.998  10.215 -0.0575 -0.0249 -0.1979
  283loPI    C3 4515   4.166  15.757  10.530 -0.1334  0.0133 -0.1557
  283loPI   PO4 4516   4.075  15.507   9.947  0.3473  0.0798  0.3315
  283loPI   GL1 4517   3.801  15.414   9.557 -0.0112  0.0413 -0.0753
  283loPI   GL2 4518   4.188  15.346   9.452 -0.2047 -0.1866 -0.1419
  283loPI   C1A 4519   3.821  15.672   9.172  0.0487 -0.0140 -0.2294
  283loPI   C2A 4520   3.858  15.689   8.760  0.1215 -0.1075 -0.1265
  283loPI   C3A 4521   3.916  15.603   8.285 -0.1414  0.0545  0.3354
  283loPI   C4A 4522   3.971  15.507   7.883  0.0733 -0.0178 -0.0789
  283loPI   C5A 4523   3.987  15.647   7.465  0.1551 -0.1093 -0.1004
  283loPI   C6A 4524   4.322  15.888   7.323 -0.0808 -0.2367 -0.0856
  283loPI   C1B 4525   4.194  15.381   9.032  0.2350 -0.0330 -0.0345
  283loPI   C2B 4526   4.170  15.273   8.610  0.0013 -0.3701 -0.0545
  283loPI   C3B 4527   4.226  15.210   8.181  0.0039 -0.0409 -0.2021
  283loPI   C4B 4528   4.155  14.911   7.884 -0.0925 -0.2116  0.2100
  284loPI    C1 4529  11.678   2.566  10.470 -0.4024  0.1150  0.0366
  284loPI    C2 4530  11.613   2.954  10.541  0.2521  0.2631 -0.1052
  284loPI    C3 4531  11.875   2.751  10.765 -0.0773 -0.1021 -0.0392
  284loPI   PO4 4532  11.664   2.602  10.112 -0.1736 -0.1616  0.0405
  284loPI   GL1 4533  12.074   2.650  10.021 -0.0041  0.4270 -0.2291
  284loPI   GL2 4534  11.966   2.940   9.904 -0.3022 -0.0635 -0.0306
  284loPI   C1A 4535  12.076   2.473   9.585 -0.3831 -0.2536 -0.2961
  284loPI   C2A 4536  12.298   2.580   9.190 -0.1284  0.1797  0.0149
  284loPI   C3A 4537  12.278   2.834   8.890 -0.0889 -0.0732  0.1560
  284loPI   C4A 4538  12.483   3.032   8.563  0.2599  0.0754 -0.0470
  284loPI   C5A 4539  12.327   3.325   8.350 -0.1741  0.0924  0.2118
  284loPI   C6A 4540  12.013   3.399   7.953  0.2711  0.0168 -0.0042
  284loPI   C1B 4541  11.853   2.940   9.419  0.0718  0.0868  0.2501
  284loPI   C2B 4542  11.851   3.173   8.986 -0.1236 -0.1867 -0.0467
  284loPI   C3B 4543  11.516   3.235   8.623  0.3926  0.2358 -0.1507
  284loPI   C4B 4544  11.478   3.290   8.037  0.1319 -0.0157 -0.1987
  285loPI    C1 4545   2.794  16.644   9.950 -0.0775 -0.1580 -0.0433
  285loPI    C2 4546   2.422  16.552  10.065 -0.0422 -0.1117  0.1111
  285loPI    C3 4547   2.732  16.457  10.298  0.0355 -0.0671  0.0264
  285loPI   PO4 4548   2.782  16.617   9.607 -0.0581  0.1226 -0.1175
  285loPI   GL1 4549   2.695  16.469   9.290 -0.0969 -0.2440 -0.3032
  285loPI   GL2 4550   2.325  16.419   9.594  0.1617  0.0915 -0.1573
  285loPI   C1A 4551   2.549  16.463   8.815  0.1375  0.1469 -0.0855
  285loPI   C2A 4552   2.280  16.410   8.465 -0.1560  0.0890 -0.0946
  285loPI   C3A 4553   2.156  16.723   8.141  0.0232 -0.1072 -0.1283
  285loPI   C4A 4554   1.908  16.958   7.777 -0.0046 -0.2320  0.1910
  285loPI   C5A 4555   1.503  17.069   7.687 -0.1883  0.1514  0.0226
  285loPI   C6A 4556   1.216  17.236   7.471  0.1716 -0.2241 -0.0951
  285loPI   C1B 4557   2.155  16.296   9.265  0.1780 -0.0099  0.1283
  285loPI   C2B 4558   2.067  16.177   8.853  0.0854 -0.1409 -0.3054
  285loPI   C3B 4559   2.019  15.992   8.387  0.0610  0.2010  0.0237
  285loPI   C4B 4560   1.809  15.816   8.037 -0.1084  0.1047  0.1444
  286loPI    C1 4561  11.071   4.578  10.321 -0.1311  0.2499  0.2011
  286loPI    C2 4562  11.008   4.257  10.551 -0.0510 -0.0801 -0.2252
  286loPI    C3 4563  11.273   4.535  10.664 -0.2195 -0.0894  0.2136
  286loPI   PO4 4564  11.049   4.378  10.050 -0.1545 -0.0729 -0.0540
  286loPI   GL1 4565  11.201   4.421   9.701  0.1593 -0.0065  0.0248
  286loPI   GL2 4566  11.319   4.692   9.466  0.1311  0.1474 -0.1727
  286loPI   C1A 4567  10.849   4.425   9.417 -0.1844  0.0018 -0.2024
  286loPI   C2A 4568  10.779   4.472   9.063  0.1513 -0.1657  0.0797
  286loPI   C3A 4569  10.639   4.271   8.676  0.3913  0.1634  0.0674
  286loPI   C4A 4570  10.451   4.199   8.294 -0.1698 -0.2108  0.0062
  286loPI   C5A 4571  10.451   3.796   8.039 -0.0850  0.2648 -0.0796
  286loPI   C6A 4572  10.584   3.346   8.188  0.1822  0.2480 -0.2009
  286loPI   C1B 4573  11.255   4.635   9.113  0.2725 -0.2599 -0.0346
  286loPI   C2B 4574  11.154   4.587   8.693 -0.3085  0.1362 -0.2610
  286loPI   C3B 4575  11.363   4.701   8.320 -0.0810 -0.0173  0.4966
  286loPI   C4B 4576  11.141   4.801   8.011 -0.2234 -0.1153 -0.1657
  287loPI    C1 4577  16.695   5.520  10.588 -0.2594  0.0290 -0.3183
  287loPI    C2 4578  16.379   5.590  10.823  0.0104  0.0317  0.0525
  287loPI    C3 4579  16.725   5.470  10.983  0.1881 -0.0152 -0.3528
  287loPI   PO4 4580  16.614   5.362  10.371 -0.0181 -0.0192 -0.0435
  287loPI   GL1 4581  16.697   5.343   9.930  0.3566 -0.1191 -0.0015
  287loPI   GL2 4582  16.617   4.957   9.892 -0.1781  0.0126  0.3340
  287loPI   C1A 4583  16.805   5.427   9.561 -0.1651  0.1895  0.1406
  287loPI   C2A 4584  16.849   5.445   9.185  0.1231  0.1297  0.0813
  287loPI   C3A 4585  16.892   5.421   8.784  0.1738 -0.0405  0.0169
  287loPI   C4A 4586  16.859   5.614   8.386  0.0849 -0.1751 -0.0299
  287loPI   C5A 4587  16.995   5.879   8.019  0.1688  0.1547  0.1000
  287loPI   C6A 4588  17.139   6.439   7.756  0.0736  0.2172  0.0679
  287loPI   C1B 4589  16.479   4.700   9.588  0.1634 -0.1820  0.0418
  287loPI   C2B 4590  16.603   4.656   9.159  0.3706 -0.2505 -0.1752
  287loPI   C3B 4591  16.612   4.528   8.708 -0.1311  0.1165  0.1222
  287loPI   C4B 4592  16.546   4.581   8.274  0.1224 -0.2320 -0.1765
  288loPI    C1 4593  10.248  10.588   9.806 -0.1006 -0.0907 -0.1292
  288loPI    C2 4594   9.934  10.612   9.560 -0.0497  0.3678 -0.1583
  288loPI    C3 4595   9.899  10.730   9.940 -0.0778 -0.1676  0.0131
  288loPI   PO4 4596  10.466  10.625   9.634  0.2196  0.1183 -0.1347
  288loPI   GL1 4597  10.500  10.496   9.212  0.2394 -0.0002 -0.1990
  288loPI   GL2 4598  10.705  10.274   9.238  0.1525  0.1616  0.4262
  288loPI   C1A 4599  10.529  10.814   8.837  0.1551  0.2109  0.1579
  288loPI   C2A 4600  10.501  11.167   8.530 -0.3528  0.1637 -0.2801
  288loPI   C3A 4601  10.328  11.464   8.474 -0.5299  0.1466 -0.3331
  288loPI   C4A 4602  10.280  11.857   8.207 -0.0075 -0.0621 -0.1237
  288loPI   C5A 4603  10.284  11.953   7.758 -0.2315  0.0007  0.0103
  288loPI   C6A 4604  10.351  12.318   7.630  0.2961 -0.0094  0.2017
  288loPI   C1B 4605  10.832   9.952   8.891 -0.2813 -0.0965 -0.1301
  288loPI   C2B 4606  10.975   9.962   8.538  0.3783  0.0177  0.0274
  288loPI   C3B 4607  10.863  10.216   8.184  0.3253  0.1499  0.0318
  288loPI   C4B 4608  10.951  10.166   7.806  0.1587  0.3341 -0.0275
  289loPI    C1 4609   1.941  11.339  10.813  0.0016  0.0791  0.0323
  289loPI    C2 4610   2.307  11.451  10.697 -0.0107  0.0093 -0.0751
  289loPI    C3 4611   2.166  11.568  11.053  0.0539  0.1678 -0.1005
  289loPI   PO4 4612   1.965  11.081  10.513  0.0573 -0.1584 -0.1143
  289loPI   GL1 4613   1.845  11.101  10.032  0.1107 -0.1376  0.4705
  289loPI   GL2 4614   2.231  11.193  10.001  0.1352  0.0397  0.2756
  289loPI   C1A 4615   1.959  10.799   9.774  0.1147  0.0907 -0.0661
  289loPI   C2A 4616   1.834  10.563   9.405 -0.2951  0.0158 -0.3435
  289loPI   C3A 4617   1.761  10.530   8.999  0.0181  0.0926  0.0351
  289loPI   C4A 4618   1.557  10.382   8.668 -0.0708  0.1993  0.1101
  289loPI   C5A 4619   1.234  10.305   8.445 -0.0560  0.0365  0.1571
  289loPI   C6A 4620   1.040  10.625   8.156  0.2586  0.0712 -0.1460
  289loPI   C1B 4621   2.026  11.470   9.639  0.2238  0.2233  0.1239
  289loPI   C2B 4622   2.066  11.772   9.391 -0.1862  0.1932  0.0908
  289loPI   C3B 4623   2.023  11.792   8.957 -0.3717 -0.0123 -0.1495
  289loPI   C4B 4624   2.318  11.631   8.793 -0.2014 -0.1632  0.0827
  290loPI    C1 4625   9.460  17.364  10.033 -0.2578  0.1999  0.2656
  290loPI    C2 4626   9.858  17.387  10.064 -0.2326 -0.0654  0.1672
  290loPI    C3 4627   9.635  17.716  10.106  0.0114  0.1264 -0.0053
  290loPI   PO4 4628   9.414  17.284   9.805  0.1278  0.0578 -0.2507
  290loPI   GL1 4629   9.305  17.021   9.588 -0.3559 -0.0528  0.1172
  290loPI   GL2 4630   9.132  17.033   9.372 -0.2388 -0.1345 -0.3979
  290loPI   C1A 4631   9.582  17.095   9.147 -0.2199 -0.0005 -0.4093
  290loPI   C2A 4632   9.726  17.132   8.726  0.0278  0.0110  0.0376
  290loPI   C3A 4633   9.595  17.342   8.404  0.3866  0.0319  0.0340
  290loPI   C4A 4634   9.664  17.756   8.147  0.0988 -0.2275 -0.1991
  290loPI   C5A 4635   9.581  18.028   7.787  0.2319 -0.3069 -0.4939
  290loPI   C6A 4636   9.650  18.389   7.655  0.3142  0.0012  0.0365
  290loPI   C1B 4637   9.118  17.135   8.965 -0.0333 -0.1423  0.1539
  290loPI   C2B 4638   9.139  17.253   8.579 -0.0767  0.0123  0.0849
  290loPI   C3B 4639   9.208  17.407   8.147 -0.3425  0.0660  0.0406
  290loPI   C4B 4640   9.314  17.493   7.674 -0.0997  0.0699  0.0031
  291loPI    C1 4641  12.437   4.222  10.141 -0.2046 -0.1109  0.0904
  291loPI    C2 4642  12.775   4.218  10.356 -0.2154 -0.3974  0.1058
  291loPI    C3 4643  12.432   4.341  10.523 -0.1116 -0.0529  0.0739
  291loPI   PO4 4644  12.639   4.097   9.888 -0.1388 -0.1268 -0.2675
  291loPI   GL1 4645  12.821   4.039   9.500 -0.2547 -0.0731  0.1793
  291loPI   GL2 4646  12.674   4.363   9.429 -0.0551  0.0737 -0.0793
  291loPI   C1A 4647  12.748   3.844   9.054 -0.2538  0.3466  0.1540
  291loPI   C2A 4648  12.565   3.767   8.753 -0.2704 -0.3232 -0.0889
  291loPI   C3A 4649  12.362   3.791   8.344  0.0009  0.0141 -0.3787
  291loPI   C4A 4650  12.276   3.751   7.916  0.0999 -0.2759 -0.1843
  291loPI   C5A 4651  12.557   3.616   7.648 -0.0441 -0.0792  0.2135
  291loPI   C6A 4652  13.020   3.730   7.504  0.1272  0.1848  0.1478
  291loPI   C1B 4653  12.713   4.313   9.018 -0.1532 -0.3860  0.2299
  291loPI   C2B 4654  12.592   4.229   8.552 -0.1400  0.1889 -0.1515
  291loPI   C3B 4655  12.587   4.264   8.109 -0.1440  0.2488  0.0717
  291loPI   C4B 4656  12.709   4.143   7.737  0.2459  0.3807  0.0964
  292loPI    C1 4657   4.551  17.146   9.613  0.2661 -0.1359 -0.0264
  292loPI    C2 4658   4.589  17.108  10.010  0.0075 -0.0784  0.0059
  292loPI    C3 4659   4.466  16.797   9.789 -0.0373 -0.0540 -0.0035
  292loPI   PO4 4660   4.247  17.268   9.621  0.3645 -0.0346  0.2540
  292loPI   GL1 4661   3.919  17.305   9.329 -0.0027  0.1682  0.0063
  292loPI   GL2 4662   3.724  17.155   9.280 -0.1071 -0.1143  0.1785
  292loPI   C1A 4663   3.639  17.497   8.887 -0.1311 -0.1680  0.1997
  292loPI   C2A 4664   3.775  17.665   8.525 -0.0626 -0.0977  0.1318
  292loPI   C3A 4665   3.948  17.863   8.150 -0.0033 -0.4942 -0.4010
  292loPI   C4A 4666   4.113  17.754   7.950  0.0349 -0.1620 -0.0914
  292loPI   C5A 4667   4.496  17.652   7.793  0.0629 -0.0070 -0.0240
  292loPI   C6A 4668   4.962  17.448   7.869 -0.0221 -0.1473  0.1489
  292loPI   C1B 4669   3.389  17.140   9.051 -0.0374 -0.2500 -0.0489
  292loPI   C2B 4670   3.222  17.200   8.737  0.2036  0.0097 -0.0899
  292loPI   C3B 4671   3.104  17.096   8.389 -0.3229  0.2912 -0.2259
  292loPI   C4B 4672   3.061  17.036   8.054  0.1802  0.0910  0.0421
  293loPI    C1 4673  16.908  16.911  10.326 -0.0151 -0.1745  0.0037
  293loPI    C2 4674  17.200  16.638  10.348 -0.0306 -0.1843  0.0892
  293loPI    C3 4675  17.221  16.972  10.567 -0.0483 -0.1513  0.0406
  293loPI   PO4 4676  16.891  16.957  10.104  0.1167  0.0133  0.2595
  293loPI   GL1 4677  16.622  17.098   9.710 -0.1646 -0.2637 -0.5752
  293loPI   GL2 4678  16.929  17.113   9.621  0.1141  0.1978 -0.1053
  293loPI   C1A 4679  16.603  16.791   9.362 -0.0104  0.0272 -0.0907
  293loPI   C2A 4680  16.793  16.686   9.048 -0.0557  0.3195 -0.3847
  293loPI   C3A 4681  17.012  16.459   8.693  0.1654 -0.3222 -0.2873
  293loPI   C4A 4682  17.320  16.556   8.334  0.0719  0.0011 -0.0486
  293loPI   C5A 4683  17.518  16.915   8.134 -0.0099  0.2337 -0.0306
  293loPI   C6A 4684  17.755  17.268   8.229 -0.2479 -0.2400 -0.2775
  293loPI   C1B 4685  16.968  17.126   9.272  0.0244  0.1407  0.0782
  293loPI   C2B 4686  17.067  17.278   8.875 -0.2603  0.1998  0.0594
  293loPI   C3B 4687  16.830  17.414   8.613  0.0666 -0.1763  0.0510
  293loPI   C4B 4688  16.796  17.480   8.247 -0.1736  0.4528  0.2364
  294loPI    C1 4689   3.616   5.520  10.490 -0.1424  0.1687  0.1966
  294loPI    C2 4690   3.627   5.150  10.640  0.0590  0.1745  0.1991
  294loPI    C3 4691   3.363   5.415  10.781 -0.1287  0.0143  0.1538
  294loPI   PO4 4692   3.554   5.441  10.238 -0.3737  0.1016  0.3355
  294loPI   GL1 4693   3.748   5.457   9.862  0.2395 -0.1932 -0.1419
  294loPI   GL2 4694   3.545   5.173   9.754  0.0869 -0.0893  0.0897
  294loPI   C1A 4695   3.976   5.408   9.514 -0.0605 -0.1194  0.0806
  294loPI   C2A 4696   3.899   5.431   9.081 -0.1677  0.0844  0.2247
  294loPI   C3A 4697   3.902   5.256   8.591 -0.0643 -0.1602 -0.4598
  294loPI   C4A 4698   4.048   4.858   8.334  0.2354 -0.2375 -0.0356
  294loPI   C5A 4699   4.152   4.545   8.066 -0.2218  0.0830  0.2189
  294loPI   C6A 4700   4.338   4.269   7.694 -0.0238 -0.1461  0.2340
  294loPI   C1B 4701   3.394   5.224   9.226 -0.2687  0.2630 -0.0259
  294loPI   C2B 4702   3.490   5.474   8.848  0.2488 -0.0590  0.1516
  294loPI   C3B 4703   3.422   5.555   8.375  0.2771  0.0535  0.0109
  294loPI   C4B 4704   3.423   5.702   7.966 -0.1591  0.0231 -0.1091
  295loPI    C1 4705   3.266   4.126  10.270  0.1395 -0.1360 -0.0418
  295loPI    C2 4706   2.902   4.239  10.147  0.1762 -0.0552 -0.0766
  295loPI    C3 4707   3.032   3.868  10.072  0.1095 -0.0772 -0.0832
  295loPI   PO4 4708   3.412   4.400  10.269  0.2354 -0.1049  0.0537
  295loPI   GL1 4709   3.685   4.467   9.883 -0.2146 -0.2041 -0.3678
  295loPI   GL2 4710   3.865   4.244   9.558  0.0737 -0.2899  0.0633
  295loPI   C1A 4711   3.503   4.754   9.478 -0.0544 -0.0272 -0.0031
  295loPI   C2A 4712   3.249   4.741   9.081  0.0293 -0.2758  0.0550
  295loPI   C3A 4713   2.951   4.695   8.822  0.0371  0.1586 -0.0360
  295loPI   C4A 4714   3.032   4.696   8.366  0.2911 -0.1346  0.0453
  295loPI   C5A 4715   2.742   4.823   8.021 -0.2772  0.0665  0.0795
  295loPI   C6A 4716   2.472   4.928   7.786 -0.0234  0.1509 -0.0997
  295loPI   C1B 4717   3.832   4.042   9.060 -0.0315  0.0525 -0.1132
  295loPI   C2B 4718   3.786   4.149   8.645  0.1971 -0.0605 -0.3164
  295loPI   C3B 4719   3.730   4.419   8.276 -0.1264 -0.3496 -0.0256
  295loPI   C4B 4720   3.539   4.548   8.004  0.0029 -0.1435  0.2600
  296loPI    C1 4721   8.986   1.617  10.035 -0.0566 -0.1161 -0.0895
  296loPI    C2 4722   8.751   1.701  10.347 -0.2508  0.0665 -0.2814
  296loPI    C3 4723   9.009   1.396  10.368 -0.0986  0.2162  0.1389
  296loPI   PO4 4724   9.047   1.799   9.952  0.3739 -0.1750  0.0053
  296loPI   GL1 4725   9.096   2.159   9.599  0.1297 -0.0782 -0.0714
  296loPI   GL2 4726   9.310   2.332   9.526 -0.0211 -0.1815  0.1686
  296loPI   C1A 4727   9.085   2.048   9.244  0.1534  0.0214 -0.2136
  296loPI   C2A 4728   9.128   2.085   8.993 -0.1751 -0.0109 -0.2121
  296loPI   C3A 4729   9.255   2.131   8.595 -0.0328 -0.0304 -0.2672
  296loPI   C4A 4730   9.211   2.269   8.177  0.1307  0.1917 -0.0592
  296loPI   C5A 4731   9.240   2.601   7.973 -0.0687 -0.0690  0.1389
  296loPI   C6A 4732   9.505   2.981   8.128 -0.1306  0.3201 -0.0245
  296loPI   C1B 4733   9.387   2.516   9.160 -0.3950 -0.1240 -0.0560
  296loPI   C2B 4734   9.482   2.476   8.832  0.1970 -0.1463  0.0192
  296loPI   C3B 4735   9.524   2.560   8.453 -0.0676  0.0785  0.0902
  296loPI   C4B 4736   9.678   2.377   8.062  0.0904  0.0169 -0.1410
  297loPI    C1 4737   3.122   9.973  10.289  0.0577  0.0541  0.0109
  297loPI    C2 4738   3.466   9.816  10.161  0.0193 -0.1151  0.1124
  297loPI    C3 4739   3.308   9.694  10.507 -0.1565 -0.0572  0.0533
  297loPI   PO4 4740   3.037  10.000  10.095 -0.2823  0.1846  0.1811
  297loPI   GL1 4741   3.121   9.727   9.751  0.0443  0.2280 -0.1697
  297loPI   GL2 4742   3.153   9.464   9.947  0.0193 -0.1693  0.0121
  297loPI   C1A 4743   3.017   9.765   9.324 -0.2404  0.2454  0.2583
  297loPI   C2A 4744   2.985   9.644   8.931 -0.0513 -0.2813 -0.1936
  297loPI   C3A 4745   2.967   9.703   8.534 -0.3301  0.0126 -0.2514
  297loPI   C4A 4746   2.826   9.738   8.191  0.0210  0.1140  0.0319
  297loPI   C5A 4747   2.891   9.986   7.807 -0.1052 -0.1174  0.3851
  297loPI   C6A 4748   3.050  10.392   7.540  0.0847  0.1472 -0.1247
  297loPI   C1B 4749   2.891   9.288   9.643 -0.1159  0.0839  0.0005
  297loPI   C2B 4750   2.723   9.160   9.323  0.4493  0.2042  0.4035
  297loPI   C3B 4751   2.661   9.251   8.753 -0.3106  0.1273 -0.4346
  297loPI   C4B 4752   2.626   9.272   8.277  0.2175  0.0067  0.1529
  298loPI    C1 4753   3.464  17.473  10.112 -0.1488  0.3081 -0.2051
  298loPI    C2 4754   3.325  17.625  10.455 -0.0629  0.1428 -0.0957
  298loPI    C3 4755   3.719  17.582  10.401 -0.0809  0.0781 -0.1766
  298loPI   PO4 4756   3.296  17.561   9.961  0.1246 -0.1600  0.0251
  298loPI   GL1 4757   3.272  18.013   9.679 -0.0656  0.1668  0.0368
  298loPI   GL2 4758   3.386  18.224   9.487  0.2464 -0.2544 -0.1085
  298loPI   C1A 4759   2.995  17.893   9.349 -0.2448 -0.0955 -0.0021
  298loPI   C2A 4760   2.644  17.771   8.993  0.0387 -0.0750  0.1430
  298loPI   C3A 4761   2.489  17.845   8.486 -0.3125  0.0450 -0.0780
  298loPI   C4A 4762   2.420  17.970   8.045  0.0079  0.0780 -0.1608
  298loPI   C5A 4763   2.461  18.397   8.002 -0.2178 -0.3543  0.1526
  298loPI   C6A 4764   2.815  18.740   7.861 -0.0883  0.1192  0.0830
  298loPI   C1B 4765   3.265  18.495   9.153 -0.0444 -0.5077  0.0223
  298loPI   C2B 4766   3.227  18.795   8.880 -0.0786  0.2710  0.2613
  298loPI   C3B 4767   2.961  19.120   8.694  0.0280  0.1678 -0.3875
  298loPI   C4B 4768   3.056  19.423   8.939  0.1547 -0.3772  0.0344
  299loPI    C1 4769   8.425  11.395  10.774  0.1243 -0.1473 -0.0377
  299loPI    C2 4770   8.602  11.040  10.823  0.0155 -0.1673  0.2251
  299loPI    C3 4771   8.822  11.373  10.811  0.1177 -0.2412 -0.0191
  299loPI   PO4 4772   8.334  11.423  10.472 -0.0655  0.3381 -0.2557
  299loPI   GL1 4773   8.189  11.482  10.015 -0.0864 -0.1003  0.1242
  299loPI   GL2 4774   8.302  11.767   9.693  0.1313  0.3162 -0.0464
  299loPI   C1A 4775   8.019  11.392   9.525 -0.0531 -0.0254  0.3543
  299loPI   C2A 4776   7.878  11.367   9.109  0.1602 -0.1171  0.0552
  299loPI   C3A 4777   7.790  11.327   8.708  0.2108 -0.1096 -0.0785
  299loPI   C4A 4778   7.760  11.363   8.307  0.0785 -0.1001 -0.2653
  299loPI   C5A 4779   7.933  11.471   7.896  0.1665  0.1608  0.2704
  299loPI   C6A 4780   7.897  11.307   7.480 -0.0426  0.1689 -0.0130
  299loPI   C1B 4781   8.089  11.941   9.384  0.2703 -0.1033  0.0801
  299loPI   C2B 4782   8.001  11.829   8.999 -0.1235 -0.3207  0.2462
  299loPI   C3B 4783   7.900  11.800   8.634  0.2717  0.3722 -0.1435
  299loPI   C4B 4784   7.821  11.908   8.261 -0.0059 -0.3186  0.1207
  300loPI    C1 4785   3.659   3.956   9.955 -0.2526  0.2923  0.1277
  300loPI    C2 4786   3.851   3.983  10.305 -0.1248  0.2486  0.0619
  300loPI    C3 4787   4.052   4.029   9.963 -0.2413  0.2484 -0.0073
  300loPI   PO4 4788   3.554   3.813   9.926  0.0617 -0.2031 -0.0691
  300loPI   GL1 4789   3.505   3.465   9.619 -0.3430 -0.0424 -0.2423
  300loPI   GL2 4790   3.141   3.444   9.700  0.0160 -0.2574 -0.3311
  300loPI   C1A 4791   3.485   3.703   9.248  0.0260 -0.1185 -0.2270
  300loPI   C2A 4792   3.348   3.889   8.848 -0.0767  0.0795 -0.1754
  300loPI   C3A 4793   3.456   3.863   8.431  0.3836  0.2532 -0.0992
  300loPI   C4A 4794   3.636   3.649   8.054  0.4236 -0.3264 -0.1259
  300loPI   C5A 4795   3.787   3.363   7.794 -0.2244  0.0650 -0.2369
  300loPI   C6A 4796   4.196   3.302   7.777  0.3775  0.0533  0.0492
  300loPI   C1B 4797   3.232   3.321   9.234 -0.0741 -0.0571  0.2023
  300loPI   C2B 4798   3.418   3.379   8.836 -0.2638 -0.0864  0.2198
  300loPI   C3B 4799   3.225   3.253   8.394  0.0167 -0.2120  0.2561
  300loPI   C4B 4800   3.102   3.537   8.166 -0.0106  0.2840 -0.1383
  301loPI    C1 4801   1.864   4.133  10.094 -0.1429 -0.1003  0.1445
  301loPI    C2 4802   1.956   4.299  10.445  0.0283  0.1998 -0.0381
  301loPI    C3 4803   2.118   3.948  10.341  0.0174  0.1351  0.1588
  301loPI   PO4 4804   1.609   4.221  10.048  0.1641 -0.0827 -0.1008
  301loPI   GL1 4805   1.334   4.057   9.821 -0.1445  0.3583  0.0498
  301loPI   GL2 4806   1.087   4.256   9.727 -0.3666  0.2387  0.2884
  301loPI   C1A 4807   1.117   3.942   9.348 -0.1713 -0.3277  0.0982
  301loPI   C2A 4808   1.074   3.882   8.914  0.0458  0.0058  0.2112
  301loPI   C3A 4809   0.928   4.096   8.527 -0.0741  0.3062  0.0765
  301loPI   C4A 4810   1.049   3.972   8.086  0.1152  0.0826  0.2537
  301loPI   C5A 4811   0.913   3.777   7.667 -0.1521 -0.0800  0.1645
  301loPI   C6A 4812   0.587   3.710   7.306 -0.1789 -0.0961 -0.0037
  301loPI   C1B 4813   1.027   4.401   9.290  0.0245 -0.0508 -0.1726
  301loPI   C2B 4814   1.400   4.356   9.088  0.3354  0.1622  0.1538
  301loPI   C3B 4815   1.328   4.328   8.635 -0.0079 -0.1924 -0.3409
  301loPI   C4B 4816   1.258   4.449   8.209  0.0221 -0.1059 -0.1031
  302loPI    C1 4817   3.065  16.170  10.326 -0.0847 -0.0560  0.2264
  302loPI    C2 4818   3.353  16.280  10.581  0.0532  0.0349  0.0333
  302loPI    C3 4819   3.256  16.517  10.273 -0.0037 -0.1454 -0.0895
  302loPI   PO4 4820   3.151  15.942  10.189  0.1946  0.0116 -0.4274
  302loPI   GL1 4821   3.255  15.701   9.796 -0.0549  0.0101 -0.1996
  302loPI   GL2 4822   2.844  15.713   9.693 -0.1270  0.0704  0.1693
  302loPI   C1A 4823   3.405  15.638   9.400 -0.1532 -0.1516  0.0348
  302loPI   C2A 4824   3.340  15.583   8.983 -0.0287  0.0469  0.0526
  302loPI   C3A 4825   3.385  15.708   8.487 -0.0915  0.1072  0.1270
  302loPI   C4A 4826   3.345  15.602   8.039 -0.0771  0.1193  0.0286
  302loPI   C5A 4827   3.496  15.633   7.642 -0.0013 -0.3234 -0.3431
  302loPI   C6A 4828   3.540  15.724   7.237 -0.0324  0.0875  0.1416
  302loPI   C1B 4829   2.879  15.566   9.301 -0.1416  0.0867 -0.1163
  302loPI   C2B 4830   2.823  15.570   8.807  0.0450 -0.1619  0.0754
  302loPI   C3B 4831   2.834  15.510   8.499 -0.0400 -0.0770  0.0185
  302loPI   C4B 4832   2.866  15.696   8.159  0.0805  0.0425  0.0563
  303loPI    C1 4833  17.901   4.239  10.501  0.1286  0.1107 -0.2257
  303loPI    C2 4834  18.070   4.580  10.622  0.0079  0.1405 -0.1393
  303loPI    C3 4835  18.212   4.230  10.751  0.0432  0.1632 -0.1163
  303loPI   PO4 4836  17.763   4.396  10.209  0.2058 -0.1035 -0.4392
  303loPI   GL1 4837  17.971   4.508   9.789  0.1866  0.0573  0.1693
  303loPI   GL2 4838  18.305   4.477   9.724  0.0846 -0.1080  0.0002
  303loPI   C1A 4839  17.888   4.485   9.346  0.0790  0.2193 -0.3604
  303loPI   C2A 4840  17.743   4.429   8.949  0.0350 -0.1815 -0.0896
  303loPI   C3A 4841  17.673   4.157   8.663 -0.7576  0.0312  0.6008
  303loPI   C4A 4842  17.513   4.228   8.247  0.2523 -0.2370 -0.0134
  303loPI   C5A 4843  17.215   3.921   8.092  0.0592 -0.0340 -0.0178
  303loPI   C6A 4844  16.903   3.651   8.156 -0.0407  0.0086 -0.2374
  303loPI   C1B 4845  18.345   4.231   9.282 -0.1209  0.0680  0.0031
  303loPI   C2B 4846  18.064   4.081   9.085 -0.2170  0.1552 -0.0366
  303loPI   C3B 4847  18.003   3.830   8.767 -0.0060  0.4319  0.0614
  303loPI   C4B 4848  17.893   3.749   8.214 -0.0168  0.0676  0.0016
  304loPI    C1 4849  14.057   5.575  10.451  0.1589 -0.0118  0.0602
  304loPI    C2 4850  14.023   5.962  10.546 -0.0585 -0.0171  0.0104
  304loPI    C3 4851  13.936   5.681  10.817  0.3523 -0.0342  0.1314
  304loPI   PO4 4852  14.202   5.641  10.188 -0.2393  0.1822  0.1719
  304loPI   GL1 4853  14.138   5.549   9.806  0.0391  0.0682  0.1912
  304loPI   GL2 4854  14.433   5.345   9.835  0.1098  0.2129  0.0530
  304loPI   C1A 4855  13.928   5.520   9.331  0.2839 -0.0081  0.3215
  304loPI   C2A 4856  14.072   5.721   8.930 -0.0130 -0.2444  0.0349
  304loPI   C3A 4857  13.813   5.885   8.713 -0.0158 -0.0783  0.1035
  304loPI   C4A 4858  13.661   5.860   8.270  0.1763 -0.2168 -0.0680
  304loPI   C5A 4859  13.351   5.786   7.906 -0.0298 -0.3590  0.1566
  304loPI   C6A 4860  13.139   5.693   7.474  0.1556  0.0424 -0.0793
  304loPI   C1B 4861  14.353   5.300   9.416  0.0813 -0.2105 -0.2439
  304loPI   C2B 4862  14.698   5.189   9.157  0.1699  0.2859  0.4181
  304loPI   C3B 4863  14.805   5.067   8.783  0.2336 -0.2629  0.0260
  304loPI   C4B 4864  15.098   4.770   8.588 -0.1813 -0.0195 -0.2844
  305loPI    C1 4865   1.291  12.632  11.122 -0.2199  0.1384 -0.1957
  305loPI    C2 4866   1.389  13.003  11.236 -0.0582  0.1877 -0.4841
  305loPI    C3 4867   1.015  12.870  11.286 -0.0379  0.2711 -0.0778
  305loPI   PO4 4868   1.485  12.547  10.850  0.3622 -0.1436  0.1776
  305loPI   GL1 4869   1.257  12.562  10.460  0.0064 -0.2493 -0.0707
  305loPI   GL2 4870   1.020  12.476  10.325 -0.2005 -0.2091  0.1387
  305loPI   C1A 4871   1.324  12.898  10.129 -0.1194 -0.0455  0.0159
  305loPI   C2A 4872   1.440  12.980   9.717  0.0159 -0.1759  0.0890
  305loPI   C3A 4873   1.390  13.065   9.201 -0.2283  0.2709  0.1424
  305loPI   C4A 4874   1.231  12.788   8.888  0.1020 -0.0963  0.2103
  305loPI   C5A 4875   1.108  12.789   8.515 -0.1329 -0.1532  0.1447
  305loPI   C6A 4876   0.732  12.697   8.287  0.3445 -0.0428  0.1802
  305loPI   C1B 4877   0.900  12.680   9.907 -0.2439 -0.3985  0.2237
  305loPI   C2B 4878   0.913  12.921   9.508  0.0268  0.2911  0.0051
  305loPI   C3B 4879   0.795  13.145   9.186  0.1180 -0.2723  0.0768
  305loPI   C4B 4880   0.908  13.368   8.883  0.0580  0.1164 -0.4868
  306loPI    C1 4881   3.074   7.547  10.234 -0.0523  0.1297 -0.0823
  306loPI    C2 4882   3.108   7.349  10.580 -0.1997  0.3037  0.0336
  306loPI    C3 4883   3.436   7.469  10.385 -0.1080 -0.0658 -0.0470
  306loPI   PO4 4884   2.864   7.687  10.252 -0.0074 -0.0833  0.0324
  306loPI   GL1 4885   2.603   7.802   9.893 -0.0835 -0.0154 -0.1315
  306loPI   GL2 4886   2.328   7.830   9.750  0.1618 -0.0713  0.0436
  306loPI   C1A 4887   2.836   7.872   9.452  0.0618  0.0938 -0.0257
  306loPI   C2A 4888   3.084   7.605   9.139  0.1836  0.1703  0.0996
  306loPI   C3A 4889   3.108   7.528   8.730 -0.0767  0.2397 -0.1322
  306loPI   C4A 4890   3.186   7.195   8.441  0.0479 -0.4124 -0.0351
  306loPI   C5A 4891   3.167   6.945   8.092 -0.1769  0.3350  0.3563
  306loPI   C6A 4892   3.440   6.533   8.106 -0.0881  0.0968  0.0089
  306loPI   C1B 4893   2.378   7.821   9.310  0.0578  0.1141  0.0900
  306loPI   C2B 4894   2.633   7.768   8.976  0.0000 -0.0821  0.4423
  306loPI   C3B 4895   2.673   7.866   8.573 -0.1250  0.1700 -0.0008
  306loPI   C4B 4896   2.840   7.596   8.292 -0.1575  0.1440  0.2422
  307loPI    C1 4897  13.345  16.510  10.260 -0.1791  0.0052 -0.0159
  307loPI    C2 4898  13.072  16.230  10.173 -0.1058 -0.0438 -0.0902
  307loPI    C3 4899  13.368  16.149  10.431 -0.1066 -0.0220 -0.0823
  307loPI   PO4 4900  13.424  16.585   9.998 -0.1750 -0.1161  0.0487
  307loPI   GL1 4901  13.084  16.396   9.730 -0.2828 -0.2108 -0.0653
  307loPI   GL2 4902  12.754  16.472   9.605 -0.2106  0.1501 -0.0940
  307loPI   C1A 4903  13.305  16.224   9.343 -0.1881  0.2199  0.3480
  307loPI   C2A 4904  13.646  16.058   9.110  0.0833  0.1830  0.1717
  307loPI   C3A 4905  14.025  15.856   9.100  0.0667  0.1530 -0.1227
  307loPI   C4A 4906  14.273  15.790   8.794  0.0236  0.3974  0.2350
  307loPI   C5A 4907  14.242  15.763   8.348  0.4293 -0.0364  0.2916
  307loPI   C6A 4908  14.518  15.659   8.019 -0.3945  0.0416  0.0888
  307loPI   C1B 4909  12.666  16.238   9.243 -0.1318 -0.1837  0.1810
  307loPI   C2B 4910  12.668  16.255   8.802 -0.1012  0.3880  0.2389
  307loPI   C3B 4911  12.718  16.333   8.406  0.1203  0.0882  0.0537
  307loPI   C4B 4912  12.851  16.538   7.955 -0.1373  0.1818 -0.0852
  308loPI    C1 4913   7.305  16.101   9.963 -0.1896  0.1700  0.2375
  308loPI    C2 4914   7.660  16.240   9.843 -0.0059 -0.4926 -0.0336
  308loPI    C3 4915   7.556  16.264  10.228  0.2691 -0.1692  0.0260
  308loPI   PO4 4916   7.360  15.843   9.908  0.0195  0.1249 -0.1848
  308loPI   GL1 4917   7.140  15.613   9.687  0.2576  0.1009  0.0448
  308loPI   GL2 4918   6.915  15.904   9.608  0.3899  0.0461 -0.1497
  308loPI   C1A 4919   7.025  15.455   9.377  0.0965 -0.1391  0.0436
  308loPI   C2A 4920   6.744  15.160   9.262 -0.0057 -0.0086  0.0407
  308loPI   C3A 4921   6.608  15.231   8.773  0.2317 -0.2451 -0.0038
  308loPI   C4A 4922   6.557  15.202   8.388 -0.1283  0.4503 -0.1579
  308loPI   C5A 4923   6.552  14.833   8.125  0.0369 -0.3407  0.3424
  308loPI   C6A 4924   6.638  14.510   7.957  0.4854 -0.2024  0.1196
  308loPI   C1B 4925   6.857  15.957   9.229  0.2564 -0.0790 -0.0225
  308loPI   C2B 4926   6.856  15.955   8.772 -0.0883 -0.0994 -0.1708
  308loPI   C3B 4927   6.868  15.651   8.585  0.0502 -0.0938 -0.0588
  308loPI   C4B 4928   6.803  15.545   8.183  0.2796  0.1976  0.0573
  309loPI    C1 4929   0.628   5.608  10.240 -0.0106 -0.2638  0.0499
  309loPI    C2 4930   0.536   5.650  10.627 -0.2479  0.0451 -0.0354
  309loPI    C3 4931   0.415   5.325  10.427 -0.0023 -0.1847  0.1804
  309loPI   PO4 4932   0.491   5.816  10.031 -0.1781  0.0235  0.0028
  309loPI   GL1 4933   0.511   6.026   9.726  0.2006 -0.2562  0.2140
  309loPI   GL2 4934   0.493   5.791   9.531 -0.1609 -0.6588 -0.0280
  309loPI   C1A 4935   0.428   6.233   9.299 -0.0138 -0.1443 -0.0356
  309loPI   C2A 4936   0.249   6.161   8.764  0.5225 -0.0826 -0.4367
  309loPI   C3A 4937  -0.199   6.223   8.517  0.0475  0.3989 -0.0929
  309loPI   C4A 4938  -0.398   6.612   8.472  0.1072  0.0240 -0.1716
  309loPI   C5A 4939  -0.790   6.775   8.470  0.0700 -0.2040  0.0133
  309loPI   C6A 4940  -0.951   7.215   8.381 -0.1500 -0.0672 -0.3598
  309loPI   C1B 4941   0.666   5.706   9.170 -0.2781 -0.4770  0.2735
  309loPI   C2B 4942   0.648   5.809   8.830  0.0955  0.0517  0.0205
  309loPI   C3B 4943   0.619   5.699   8.370 -0.1694  0.2758  0.0548
  309loPI   C4B 4944   0.569   5.883   7.903 -0.2351  0.0756  0.1372
  310loPI    C1 4945   0.752  12.059  10.640 -0.1156  0.0776 -0.0319
  310loPI    C2 4946   0.661  12.130  11.023  0.1137 -0.1826  0.0742
  310loPI    C3 4947   0.873  12.398  10.815 -0.0392 -0.0257  0.1179
  310loPI   PO4 4948   0.520  11.860  10.567 -0.0201 -0.4100  0.3588
  310loPI   GL1 4949   0.403  11.960  10.107  0.5562 -0.0256 -0.1101
  310loPI   GL2 4950   0.537  12.210  10.093 -0.2712  0.0933  0.3300
  310loPI   C1A 4951   0.395  11.971   9.624  0.3018  0.0029 -0.0271
  310loPI   C2A 4952   0.330  11.903   9.123 -0.1094  0.0192  0.3980
  310loPI   C3A 4953   0.123  12.116   8.823  0.1969  0.1175 -0.0813
  310loPI   C4A 4954  -0.139  12.146   8.512  0.0595  0.0729 -0.0578
  310loPI   C5A 4955  -0.177  12.188   8.032  0.2147 -0.3792  0.0170
  310loPI   C6A 4956   0.009  12.368   7.733 -0.3510  0.0429 -0.2167
  310loPI   C1B 4957   0.651  12.395   9.639  0.1269 -0.1080 -0.1721
  310loPI   C2B 4958   0.645  12.487   9.230 -0.2714 -0.0931  0.2442
  310loPI   C3B 4959   0.771  12.632   8.969 -0.1809  0.2064  0.1618
  310loPI   C4B 4960   0.664  12.951   8.721 -0.1122 -0.2197 -0.1275
  311loPI    C1 4961   5.122  10.494  10.467  0.1420  0.2185  0.1029
  311loPI    C2 4962   5.158  10.255  10.786 -0.0544 -0.0792 -0.0931
  311loPI    C3 4963   4.825  10.472  10.735  0.0446  0.0936 -0.0140
  311loPI   PO4 4964   5.268  10.346  10.250 -0.0060 -0.3003  0.0889
  311loPI   GL1 4965   5.439  10.562   9.869  0.4186 -0.0825  0.0669
  311loPI   GL2 4966   5.196  10.817   9.745  0.2707 -0.0568  0.0197
  311loPI   C1A 4967   5.433  10.298   9.539  0.1656 -0.1401 -0.1436
  311loPI   C2A 4968   5.436  10.355   9.160 -0.2893  0.1038 -0.1269
  311loPI   C3A 4969   5.592  10.476   8.871 -0.2366 -0.0264  0.0871
  311loPI   C4A 4970   5.737  10.437   8.478  0.1144  0.0064 -0.2457
  311loPI   C5A 4971   6.056  10.254   8.130  0.1314 -0.4712 -0.1896
  311loPI   C6A 4972   6.492  10.396   8.113  0.1105  0.0586 -0.0953
  311loPI   C1B 4973   5.122  10.714   9.402 -0.0734  0.4733 -0.0238
  311loPI   C2B 4974   5.094  10.619   8.936 -0.0160  0.1936 -0.1321
  311loPI   C3B 4975   5.211  10.506   8.550  0.0476  0.1103 -0.1529
  311loPI   C4B 4976   5.386  10.218   8.190 -0.0786 -0.0568  0.1335
  312loPI    C1 4977   4.328   3.877  10.438 -0.1541  0.1344 -0.0996
  312loPI    C2 4978   4.137   3.635  10.693 -0.2439  0.2081 -0.0963
  312loPI    C3 4979   4.469   3.826  10.809 -0.1921  0.1133 -0.0881
  312loPI   PO4 4980   4.376   3.721  10.248  0.0484  0.0287  0.1172
  312loPI   GL1 4981   4.415   3.540   9.839 -0.1681  0.0382  0.2591
  312loPI   GL2 4982   4.627   3.352   9.934 -0.0035 -0.0739 -0.0130
  312loPI   C1A 4983   4.791   3.710   9.626 -0.3635 -0.0092  0.3174
  312loPI   C2A 4984   4.818   3.768   9.256  0.2485 -0.1945 -0.0435
  312loPI   C3A 4985   4.781   3.658   8.852 -0.0862 -0.0462 -0.1122
  312loPI   C4A 4986   4.588   3.687   8.422 -0.3018  0.4908  0.3491
  312loPI   C5A 4987   4.353   3.840   8.023 -0.1195  0.3615  0.0390
  312loPI   C6A 4988   3.911   4.077   7.983 -0.1574  0.1092  0.0422
  312loPI   C1B 4989   4.785   3.140   9.607  0.0704 -0.0411  0.1120
  312loPI   C2B 4990   4.756   3.234   9.140  0.0235  0.1059 -0.1353
  312loPI   C3B 4991   4.647   3.189   8.710 -0.0725 -0.0728 -0.1478
  312loPI   C4B 4992   4.333   3.210   8.313  0.2129 -0.2289 -0.0871
  313loPI    C1 4993  15.029   7.643  10.770  0.2213 -0.0344  0.0430
  313loPI    C2 4994  14.670   7.622  10.944  0.0685  0.3065 -0.2180
  313loPI    C3 4995  14.906   7.937  11.011  0.3621  0.0428  0.0217
  313loPI   PO4 4996  15.037   7.562  10.516 -0.4658  0.2612  0.0012
  313loPI   GL1 4997  14.904   7.277  10.243 -0.0470 -0.0179 -0.0484
  313loPI   GL2 4998  14.873   6.901  10.097 -0.1006  0.3227  0.1121
  313loPI   C1A 4999  14.769   7.263   9.725  0.0950 -0.0451 -0.2406
  313loPI   C2A 5000  14.722   7.373   9.258  0.1345 -0.0110 -0.2090
  313loPI   C3A 5001  14.812   7.586   8.937  0.0656  0.0927  0.2276
  313loPI   C4A 5002  14.780   7.686   8.412 -0.0420  0.3444 -0.1261
  313loPI   C5A 5003  15.154   7.703   8.171 -0.1594 -0.1847 -0.1493
  313loPI   C6A 5004  15.467   8.090   8.159  0.1453 -0.2035 -0.1143
  313loPI   C1B 5005  14.819   6.650   9.689 -0.2718  0.2198  0.1275
  313loPI   C2B 5006  14.649   6.518   9.266  0.1915 -0.1453  0.1449
  313loPI   C3B 5007  14.538   6.631   8.865  0.2056  0.1106  0.1646
  313loPI   C4B 5008  13.958   6.695   8.773  0.0857 -0.2392 -0.0884
  314loPI    C1 5009  17.460   7.187  10.640  0.0843 -0.0050  0.0958
  314loPI    C2 5010  17.682   7.307  10.951 -0.0608  0.2100  0.1181
  314loPI    C3 5011  17.413   7.014  10.998  0.2168 -0.0533  0.0904
  314loPI   PO4 5012  17.641   7.318  10.421  0.1953 -0.0180  0.0976
  314loPI   GL1 5013  17.733   7.214   9.964 -0.1088  0.3874 -0.3130
  314loPI   GL2 5014  17.925   7.484   9.934  0.3509  0.1452 -0.0480
  314loPI   C1A 5015  17.632   7.111   9.505  0.1454  0.1955  0.2604
  314loPI   C2A 5016  17.354   6.929   9.252  0.2814  0.0486  0.1530
  314loPI   C3A 5017  17.332   6.974   8.829 -0.2998  0.1908  0.0863
  314loPI   C4A 5018  17.120   7.072   8.465  0.0994  0.2755 -0.1677
  314loPI   C5A 5019  17.261   6.927   8.123  0.1399 -0.0575  0.2374
  314loPI   C6A 5020  17.511   6.586   7.998  0.1460  0.0839  0.2891
  314loPI   C1B 5021  17.626   7.670   9.646 -0.3039 -0.0589 -0.2333
  314loPI   C2B 5022  17.591   7.766   9.276  0.1132  0.1705  0.0783
  314loPI   C3B 5023  17.665   7.739   8.756  0.5063  0.0630 -0.1441
  314loPI   C4B 5024  17.644   7.860   8.291  0.0355  0.0051 -0.2091
  315loPI    C1 5025  12.476  13.198  10.045  0.1283  0.1889  0.0868
  315loPI    C2 5026  12.101  13.312  10.126  0.0305 -0.1501  0.1257
  315loPI    C3 5027  12.392  13.585  10.101 -0.1698  0.0897  0.3549
  315loPI   PO4 5028  12.358  12.984   9.767  0.1144  0.0425 -0.2640
  315loPI   GL1 5029  12.531  12.742   9.423 -0.3782 -0.0581  0.1831
  315loPI   GL2 5030  12.337  12.458   9.581  0.3954 -0.1048  0.0732
  315loPI   C1A 5031  12.434  12.855   9.026  0.1835  0.2682  0.3588
  315loPI   C2A 5032  12.294  12.967   8.657 -0.0129  0.0477  0.0639
  315loPI   C3A 5033  12.284  13.069   8.287 -0.0210  0.3888 -0.0026
  315loPI   C4A 5034  11.999  13.240   7.909  0.1445 -0.1137  0.1043
  315loPI   C5A 5035  11.906  13.411   7.485  0.1390  0.2126  0.2641
  315loPI   C6A 5036  11.843  13.215   7.070 -0.3370 -0.3897  0.0937
  315loPI   C1B 5037  12.133  12.475   9.217 -0.2070  0.0981 -0.1732
  315loPI   C2B 5038  12.323  12.419   8.813  0.0682  0.1010 -0.0562
  315loPI   C3B 5039  12.325  12.546   8.392  0.3423 -0.2418 -0.0300
  315loPI   C4B 5040  12.614  12.490   8.111 -0.2143  0.0599  0.2570
  316loPI    C1 5041   8.084  16.065   9.907  0.0036 -0.0352  0.0228
  316loPI    C2 5042   8.408  15.856  10.014 -0.0685 -0.0745  0.1658
  316loPI    C3 5043   8.055  15.672   9.973 -0.0962 -0.0117  0.1215
  316loPI   PO4 5044   8.160  16.129   9.642  0.2136  0.0461  0.0591
  316loPI   GL1 5045   7.862  15.739   9.504 -0.2000  0.0180  0.1005
  316loPI   GL2 5046   7.639  15.492   9.474  0.3858  0.0666 -0.1737
  316loPI   C1A 5047   7.913  15.751   9.042  0.3434 -0.0959 -0.1188
  316loPI   C2A 5048   7.979  15.658   8.631  0.0756  0.2833  0.1481
  316loPI   C3A 5049   7.895  15.733   8.174  0.2006 -0.0411  0.2262
  316loPI   C4A 5050   7.666  15.643   7.765 -0.3561 -0.1650  0.0814
  316loPI   C5A 5051   7.275  15.728   7.531  0.0817 -0.2828  0.0434
  316loPI   C6A 5052   6.799  15.684   7.660  0.3204 -0.3589  0.1040
  316loPI   C1B 5053   7.523  15.351   9.087  0.1038 -0.1268  0.0354
  316loPI   C2B 5054   7.129  15.198   8.860  0.3116  0.2844 -0.0970
  316loPI   C3B 5055   7.147  15.265   8.406  0.2543 -0.0297 -0.2413
  316loPI   C4B 5056   7.459  15.236   8.091  0.1601  0.0603 -0.0024
  317loPI    C1 5057  14.327   2.901  10.278 -0.2945 -0.2266  0.1101
  317loPI    C2 5058  14.526   3.111  10.554 -0.1323  0.0819 -0.2335
  317loPI    C3 5059  14.459   2.721  10.611  0.3265  0.0315  0.0184
  317loPI   PO4 5060  14.511   2.932  10.045 -0.4615 -0.0258  0.2008
  317loPI   GL1 5061  14.494   3.143   9.603 -0.0353  0.1360  0.1827
  317loPI   GL2 5062  14.161   3.085   9.729 -0.4347 -0.1531 -0.2349
  317loPI   C1A 5063  14.503   3.352   9.123  0.0153 -0.0199  0.2118
  317loPI   C2A 5064  14.420   3.255   8.646 -0.1347  0.0929 -0.1224
  317loPI   C3A 5065  14.227   3.248   8.172  0.2512  0.1085 -0.2633
  317loPI   C4A 5066  14.148   3.318   7.789  0.2168 -0.2490 -0.1090
  317loPI   C5A 5067  13.933   3.313   7.311 -0.1206 -0.1349  0.0935
  317loPI   C6A 5068  13.784   3.316   6.920  0.0784  0.1847  0.0007
  317loPI   C1B 5069  14.034   3.117   9.328  0.3215  0.0139 -0.0689
  317loPI   C2B 5070  13.916   3.227   8.772 -0.0877  0.2724 -0.0113
  317loPI   C3B 5071  13.741   2.985   8.438  0.0161 -0.0213 -0.2246
  317loPI   C4B 5072  13.607   2.797   8.125 -0.2500  0.1893 -0.2796
  318loPI    C1 5073   3.587  13.373  10.548 -0.0426  0.1175 -0.0055
  318loPI    C2 5074   3.524  13.112  10.844  0.0104  0.1010 -0.0088
  318loPI    C3 5075   3.878  13.296  10.811 -0.0525  0.2325  0.0399
  318loPI   PO4 5076   3.337  13.224  10.371 -0.2715  0.3279  0.2208
  318loPI   GL1 5077   3.172  13.259   9.990  0.2198 -0.1038  0.0318
  318loPI   GL2 5078   3.497  13.327   9.836  0.2364 -0.0383  0.1686
  318loPI   C1A 5079   2.993  12.884   9.689 -0.0064 -0.0655  0.0035
  318loPI   C2A 5080   2.976  12.479   9.530 -0.0007 -0.2312  0.1572
  318loPI   C3A 5081   2.702  12.440   9.210  0.1571  0.0854  0.2732
  318loPI   C4A 5082   2.730  12.630   8.889  0.0096 -0.0274 -0.0879
  318loPI   C5A 5083   2.661  12.454   8.435  0.0283  0.2089  0.1082
  318loPI   C6A 5084   2.789  12.591   8.059  0.1802 -0.0500  0.0820
  318loPI   C1B 5085   3.332  13.222   9.403 -0.1161  0.2167 -0.0499
  318loPI   C2B 5086   2.962  13.085   9.155  0.2704 -0.0881  0.0667
  318loPI   C3B 5087   2.838  13.177   8.736 -0.2631 -0.1023 -0.1808
  318loPI   C4B 5088   2.934  13.294   8.369  0.1202 -0.2238  0.0370
  319loPI    C1 5089  12.311  11.163   9.962  0.0195 -0.0950  0.0047
  319loPI    C2 5090  12.579  11.163  10.259  0.0938  0.0371 -0.0613
  319loPI    C3 5091  12.190  11.123  10.341  0.0911  0.3230  0.0771
  319loPI   PO4 5092  12.329  11.029   9.787  0.2139  0.2302 -0.0236
  319loPI   GL1 5093  12.442  11.029   9.368  0.0706  0.1298  0.1171
  319loPI   GL2 5094  12.799  11.048   9.297  0.0627  0.0867  0.1184
  319loPI   C1A 5095  12.354  10.869   9.025 -0.1207 -0.0948  0.2372
  319loPI   C2A 5096  12.352  10.850   8.675 -0.1610 -0.1353 -0.1851
  319loPI   C3A 5097  12.508  10.659   8.328  0.0211 -0.0059 -0.2316
  319loPI   C4A 5098  12.452  10.544   7.914  0.1148  0.0619 -0.1029
  319loPI   C5A 5099  12.308  10.163   7.740 -0.2672 -0.0812 -0.0538
  319loPI   C6A 5100  12.050   9.913   7.451  0.0049 -0.0482 -0.0032
  319loPI   C1B 5101  12.816  11.029   8.842 -0.0039  0.1468  0.1633
  319loPI   C2B 5102  13.043  11.112   8.508 -0.0321 -0.0626 -0.1290
  319loPI   C3B 5103  13.201  11.212   8.099  0.2904 -0.1449  0.1197
  319loPI   C4B 5104  13.649  11.190   7.915  0.1246 -0.3088  0.1690
  320loPI    C1 5105   0.874   8.878  10.808 -0.0819 -0.0156 -0.1395
  320loPI    C2 5106   0.493   8.850  10.925 -0.0740  0.1587 -0.0682
  320loPI    C3 5107   0.749   8.553  11.005 -0.1269  0.1672  0.1399
  320loPI   PO4 5108   0.860   8.980  10.402 -0.2172  0.0091  0.2234
  320loPI   GL1 5109   0.656   9.059  10.076  0.1811  0.1180  0.1123
  320loPI   GL2 5110   0.625   9.374  10.137 -0.3079  0.0677  0.0368
  320loPI   C1A 5111   0.397   8.978   9.806 -0.1683  0.0678  0.0886
  320loPI   C2A 5112   0.460   8.925   9.380  0.2343  0.0077  0.0100
  320loPI   C3A 5113   0.487   8.894   8.982 -0.0893  0.0064 -0.1997
  320loPI   C4A 5114   0.556   8.898   8.460  0.3053  0.0170 -0.0050
  320loPI   C5A 5115   0.661   9.243   8.139  0.2260 -0.3051 -0.2249
  320loPI   C6A 5116   1.057   9.360   8.148 -0.2123 -0.3561  0.2595
  320loPI   C1B 5117   0.462   9.488   9.746  0.2351 -0.1017 -0.0924
  320loPI   C2B 5118   0.382   9.467   9.373 -0.3532 -0.0662 -0.2133
  320loPI   C3B 5119   0.319   9.385   9.013  0.1362 -0.3280 -0.3886
  320loPI   C4B 5120   0.261   9.256   8.554 -0.1349  0.0571 -0.1424
  321loPI    C1 5121  15.838  10.404  10.007  0.0561  0.2803 -0.1219
  321loPI    C2 5122  15.661  10.299  10.350 -0.1049 -0.0915 -0.3127
  321loPI    C3 5123  16.035  10.180  10.273 -0.0448  0.0476 -0.2401
  321loPI   PO4 5124  15.748  10.315   9.828 -0.1709 -0.1521  0.0979
  321loPI   GL1 5125  15.434  10.426   9.531  0.0323 -0.2595 -0.0232
  321loPI   GL2 5126  15.443  10.761   9.444 -0.2038  0.0161 -0.1740
  321loPI   C1A 5127  15.037  10.374   9.427  0.1945  0.2597  0.0578
  321loPI   C2A 5128  14.770  10.240   9.097  0.1586  0.2780 -0.1831
  321loPI   C3A 5129  14.678  10.057   8.729 -0.0264  0.1627  0.1065
  321loPI   C4A 5130  14.867   9.780   8.414  0.1734 -0.1127  0.0342
  321loPI   C5A 5131  15.167   9.659   8.122 -0.2004  0.0212  0.2723
  321loPI   C6A 5132  15.411   9.739   7.794 -0.1973 -0.0824  0.1569
  321loPI   C1B 5133  15.334  10.569   9.086  0.2039 -0.1371  0.3017
  321loPI   C2B 5134  15.511  10.598   8.634  0.1794 -0.1933  0.2319
  321loPI   C3B 5135  15.689  10.395   8.351 -0.1484 -0.3013 -0.1887
  321loPI   C4B 5136  15.735  10.048   8.108 -0.0801 -0.1900 -0.0823
  322loPI    C1 5137   1.798  11.898  10.958  0.0295  0.4832 -0.1197
  322loPI    C2 5138   1.473  11.835  11.183 -0.0136  0.2767 -0.2371
  322loPI    C3 5139   1.628  12.202  11.154 -0.0694  0.3244  0.0443
  322loPI   PO4 5140   1.753  11.772  10.712 -0.1097  0.2302 -0.0644
  322loPI   GL1 5141   1.420  11.640  10.403  0.0628  0.0856 -0.0063
  322loPI   GL2 5142   1.430  11.961  10.275  0.1766  0.2765  0.1724
  322loPI   C1A 5143   1.479  11.471  10.016  0.1058 -0.1746 -0.0147
  322loPI   C2A 5144   1.468  11.277   9.652 -0.1301 -0.0959  0.0085
  322loPI   C3A 5145   1.668  11.479   9.278 -0.0045  0.1673 -0.0961
  322loPI   C4A 5146   1.598  11.485   8.882  0.0373 -0.0439 -0.0540
  322loPI   C5A 5147   1.892  11.567   8.559  0.1140  0.4362 -0.0114
  322loPI   C6A 5148   2.085  11.763   8.322 -0.1022  0.1584  0.0987
  322loPI   C1B 5149   1.042  11.913  10.178  0.1715  0.1510 -0.1244
  322loPI   C2B 5150   0.916  12.009   9.695  0.2008  0.1932  0.1112
  322loPI   C3B 5151   0.816  11.916   9.289 -0.1047 -0.0471 -0.0081
  322loPI   C4B 5152   0.696  12.150   8.860  0.1376  0.2803  0.0423
  323loPI    C1 5153  17.930   1.245  10.741 -0.1171 -0.0828 -0.1335
  323loPI    C2 5154  18.014   0.910  10.539 -0.2175 -0.0861 -0.1708
  323loPI    C3 5155  18.158   0.963  10.909 -0.0757 -0.1028 -0.2230
  323loPI   PO4 5156  17.826   1.369  10.490 -0.0187  0.2405  0.3032
  323loPI   GL1 5157  17.709   1.238  10.111 -0.1262 -0.1305  0.0962
  323loPI   GL2 5158  17.517   1.031  10.039  0.0931 -0.3779  0.0656
  323loPI   C1A 5159  17.995   1.375   9.802 -0.0927  0.1787  0.2031
  323loPI   C2A 5160  17.961   1.445   9.346  0.0500  0.1415  0.4421
  323loPI   C3A 5161  17.845   1.607   8.884  0.0492  0.1186  0.1075
  323loPI   C4A 5162  17.562   1.663   8.556 -0.1786  0.2774 -0.1303
  323loPI   C5A 5163  17.119   1.632   8.471 -0.1499  0.0947  0.0024
  323loPI   C6A 5164  16.700   1.607   8.436  0.0499 -0.1014 -0.1783
  323loPI   C1B 5165  17.521   1.143   9.575  0.2681 -0.0416 -0.0584
  323loPI   C2B 5166  17.445   1.355   9.238  0.1343  0.0944 -0.1997
  323loPI   C3B 5167  17.426   1.116   8.780 -0.0407  0.0136 -0.0882
  323loPI   C4B 5168  17.359   0.828   8.518  0.1113  0.0490 -0.1841
  324loPI    C1 5169  16.001   6.362  10.635  0.0956  0.0376 -0.1893
  324loPI    C2 5170  16.293   6.288  10.898 -0.2823 -0.1216  0.1982
  324loPI    C3 5171  16.128   6.652  10.878 -0.1101 -0.0510  0.0281
  324loPI   PO4 5172  16.019   6.327  10.278  0.2523  0.2046 -0.2409
  324loPI   GL1 5173  15.730   6.215   9.883 -0.1272  0.2575  0.1256
  324loPI   GL2 5174  16.041   6.158   9.847  0.2238 -0.2659  0.1507
  324loPI   C1A 5175  15.715   6.225   9.368  0.1620 -0.2027 -0.0087
  324loPI   C2A 5176  15.752   6.029   8.880 -0.0809  0.3795  0.2669
  324loPI   C3A 5177  15.767   6.038   8.456 -0.0343  0.1033  0.1551
  324loPI   C4A 5178  15.594   6.066   8.050  0.1087  0.0115  0.1049
  324loPI   C5A 5179  15.409   6.088   7.599  0.2957  0.3140  0.0006
  324loPI   C6A 5180  15.159   6.317   7.323  0.0360 -0.0324  0.3487
  324loPI   C1B 5181  16.205   6.171   9.364 -0.0051  0.0581 -0.1122
  324loPI   C2B 5182  16.140   6.299   8.892 -0.0490 -0.0046  0.1670
  324loPI   C3B 5183  16.263   6.409   8.516 -0.0578  0.0893  0.1279
  324loPI   C4B 5184  16.136   6.206   8.132 -0.1691  0.1181  0.2335
  325loPI    C1 5185  16.236   2.994  10.177  0.1416  0.0505  0.0066
  325loPI    C2 5186  16.301   2.917  10.565  0.0147  0.1114  0.0405
  325loPI    C3 5187  16.090   2.660  10.342 -0.0781  0.1708  0.0593
  325loPI   PO4 5188  16.183   3.243  10.148  0.1278  0.2055  0.1396
  325loPI   GL1 5189  15.896   3.374   9.832  0.2849 -0.3800 -0.1121
  325loPI   GL2 5190  16.214   3.589   9.778 -0.1044  0.1298  0.1487
  325loPI   C1A 5191  15.624   3.219   9.409 -0.1056 -0.2942  0.2665
  325loPI   C2A 5192  15.374   3.137   9.046 -0.1453 -0.2720 -0.1386
  325loPI   C3A 5193  15.338   3.331   8.636  0.2067 -0.2414  0.1033
  325loPI   C4A 5194  15.440   3.228   8.283  0.2086 -0.0220 -0.0236
  325loPI   C5A 5195  15.658   2.937   8.051 -0.2779 -0.0290  0.3281
  325loPI   C6A 5196  16.044   2.661   8.087 -0.0610  0.2359 -0.0679
  325loPI   C1B 5197  16.143   3.265   9.477  0.0641  0.1808  0.2465
  325loPI   C2B 5198  15.971   3.166   9.046 -0.3764  0.2207 -0.3137
  325loPI   C3B 5199  15.866   3.296   8.639  0.4207  0.2140  0.0049
  325loPI   C4B 5200  15.934   3.471   8.330 -0.1093 -0.0089 -0.3156
  326loPI    C1 5201  15.195   6.817  10.630  0.0359 -0.1094 -0.2264
  326loPI    C2 5202  15.515   6.648  10.801 -0.1230 -0.0459  0.1451
  326loPI    C3 5203  15.171   6.445  10.776 -0.0667 -0.1024 -0.2246
  326loPI   PO4 5204  15.325   6.942  10.362 -0.1151 -0.1274 -0.0404
  326loPI   GL1 5205  15.482   6.934  10.072  0.0155  0.2579  0.0941
  326loPI   GL2 5206  15.263   6.666   9.888 -0.1717  0.1016 -0.4640
  326loPI   C1A 5207  15.594   7.066   9.636  0.0689 -0.1118 -0.0114
  326loPI   C2A 5208  15.613   7.097   9.209  0.1573 -0.0755  0.1020
  326loPI   C3A 5209  15.668   7.001   8.848 -0.0734  0.1955 -0.1700
  326loPI   C4A 5210  15.379   7.074   8.622  0.2472  0.3174 -0.2868
  326loPI   C5A 5211  15.094   7.199   8.343 -0.1692  0.1146  0.1614
  326loPI   C6A 5212  14.730   7.206   8.018 -0.4614 -0.0719 -0.3457
  326loPI   C1B 5213  15.165   6.961   9.574  0.2484 -0.3155  0.2693
  326loPI   C2B 5214  14.978   6.950   9.286  0.1228 -0.1133  0.0290
  326loPI   C3B 5215  14.901   7.032   8.834 -0.2010 -0.0795 -0.3228
  326loPI   C4B 5216  14.624   6.975   8.511  0.0914  0.1050  0.0364
  327loPI    C1 5217  11.959   5.542   9.987 -0.0080 -0.0723 -0.2041
  327loPI    C2 5218  12.080   5.621  10.360 -0.0036 -0.0118 -0.2182
  327loPI    C3 5219  11.865   5.292  10.284  0.0324 -0.0466 -0.1696
  327loPI   PO4 5220  11.924   5.707   9.901 -0.0753  0.1415  0.5551
  327loPI   GL1 5221  11.888   5.468   9.505  0.0594  0.0930 -0.0412
  327loPI   GL2 5222  11.777   5.785   9.416 -0.2217 -0.3976 -0.1831
  327loPI   C1A 5223  11.990   5.157   9.136 -0.1323 -0.2553  0.1635
  327loPI   C2A 5224  11.936   5.126   8.777  0.3870  0.2521 -0.2239
  327loPI   C3A 5225  12.186   5.057   8.563  0.3516 -0.2248 -0.0505
  327loPI   C4A 5226  12.409   5.023   8.146  0.2945  0.0602 -0.0965
  327loPI   C5A 5227  12.629   5.096   7.802 -0.0726 -0.1978  0.2506
  327loPI   C6A 5228  12.691   5.077   7.367 -0.0537 -0.1203  0.0608
  327loPI   C1B 5229  11.571   5.613   9.000 -0.1741  0.3060  0.0130
  327loPI   C2B 5230  11.614   5.543   8.564  0.1505 -0.0309  0.2868
  327loPI   C3B 5231  11.505   5.562   8.222 -0.0360  0.0708  0.1182
  327loPI   C4B 5232  11.627   5.377   7.797 -0.0064  0.1631  0.0219
  328loPI    C1 5233   3.212   1.285  10.398  0.0317 -0.1552 -0.1002
  328loPI    C2 5234   3.580   1.129  10.419  0.0330 -0.1404 -0.0087
  328loPI    C3 5235   3.372   1.195  10.754 -0.0277 -0.0884 -0.0566
  328loPI   PO4 5236   3.261   1.561  10.261 -0.5846  0.1290  0.1464
  328loPI   GL1 5237   3.285   1.740   9.936  0.0367 -0.0412  0.0752
  328loPI   GL2 5238   3.197   1.607   9.677  0.0513 -0.1073 -0.1312
  328loPI   C1A 5239   3.523   2.185   9.664  0.4297  0.1532 -0.1856
  328loPI   C2A 5240   3.726   2.273   9.329  0.0206  0.0706 -0.1122
  328loPI   C3A 5241   3.610   2.381   8.861 -0.0381 -0.3015  0.0251
  328loPI   C4A 5242   3.207   2.297   8.619 -0.1821 -0.0547  0.0683
  328loPI   C5A 5243   2.907   2.274   8.335  0.0686  0.0470 -0.3621
  328loPI   C6A 5244   2.940   2.284   7.894 -0.0474  0.0332  0.2515
  328loPI   C1B 5245   3.078   1.627   9.350 -0.0314  0.1363 -0.1027
  328loPI   C2B 5246   2.941   1.475   8.987  0.1170 -0.0244 -0.0883
  328loPI   C3B 5247   2.957   1.328   8.642  0.2141 -0.2956  0.0383
  328loPI   C4B 5248   2.940   1.369   8.230 -0.0362 -0.0995 -0.3269
  329loPI    C1 5249  16.762  11.165  10.635 -0.0419  0.1319 -0.2541
  329loPI    C2 5250  17.056  11.370  10.811 -0.0786 -0.1313  0.1257
  329loPI    C3 5251  16.674  11.458  10.893 -0.0987 -0.1498  0.0521
  329loPI   PO4 5252  16.897  11.193  10.323  0.2138 -0.0774 -0.0511
  329loPI   GL1 5253  17.114  11.443  10.153 -0.2610 -0.1689 -0.1084
  329loPI   GL2 5254  17.035  11.700  10.064 -0.2302 -0.1790  0.0931
  329loPI   C1A 5255  17.467  11.501   9.808  0.0626 -0.2651  0.0369
  329loPI   C2A 5256  17.623  11.627   9.488 -0.2864 -0.0992 -0.2842
  329loPI   C3A 5257  17.804  11.869   9.259 -0.2642  0.0214 -0.0554
  329loPI   C4A 5258  17.699  12.341   9.031 -0.4158  0.2518 -0.2136
  329loPI   C5A 5259  17.306  12.384   8.785  0.1011 -0.2246  0.1433
  329loPI   C6A 5260  17.151  12.603   8.476  0.0051 -0.0297 -0.3096
  329loPI   C1B 5261  17.163  11.917   9.716  0.1953  0.3270 -0.1710
  329loPI   C2B 5262  17.526  12.123   9.534  0.3665  0.0978  0.0862
  329loPI   C3B 5263  17.583  12.558   9.506 -0.3024 -0.0484 -0.1203
  329loPI   C4B 5264  17.864  12.793   9.588  0.3833 -0.4324  0.0059
  330loPI    C1 5265  12.569  14.740   9.912  0.2030  0.0943  0.0339
  330loPI    C2 5266  12.361  14.734  10.254 -0.0659 -0.1055 -0.1291
  330loPI    C3 5267  12.666  14.480  10.200  0.0421 -0.0045  0.0002
  330loPI   PO4 5268  12.332  14.848   9.789  0.0625 -0.1315  0.3353
  330loPI   GL1 5269  12.416  15.037   9.455  0.0751  0.0319 -0.3599
  330loPI   GL2 5270  12.421  15.364   9.399  0.0481  0.0167  0.0140
  330loPI   C1A 5271  12.484  14.830   9.030  0.0768  0.0518  0.0706
  330loPI   C2A 5272  12.780  14.793   8.757  0.1569 -0.0715 -0.1631
  330loPI   C3A 5273  12.780  14.771   8.330 -0.2377  0.3436 -0.3920
  330loPI   C4A 5274  12.483  14.898   8.084 -0.4230 -0.0974  0.0072
  330loPI   C5A 5275  12.187  14.936   7.837  0.2996  0.0099  0.1199
  330loPI   C6A 5276  12.210  15.039   7.383 -0.0656 -0.2305 -0.1180
  330loPI   C1B 5277  12.717  15.257   9.147 -0.2750  0.0075 -0.0583
  330loPI   C2B 5278  13.067  14.964   9.106 -0.0688 -0.0459  0.1138
  330loPI   C3B 5279  13.291  14.679   8.885 -0.3237  0.0440 -0.0774
  330loPI   C4B 5280  13.019  14.340   8.595 -0.2730  0.0485  0.0352
  331loPI    C1 5281   7.647   5.857  10.437 -0.0981  0.0689 -0.2921
  331loPI    C2 5282   7.981   5.663  10.541 -0.1070  0.1074 -0.1908
  331loPI    C3 5283   7.936   6.049  10.634 -0.3096  0.0239  0.0722
  331loPI   PO4 5284   7.569   5.740  10.252 -0.1122 -0.2757  0.0483
  331loPI   GL1 5285   7.263   5.804   9.846  0.1187  0.0386  0.0475
  331loPI   GL2 5286   7.001   5.995   9.833  0.1032 -0.1885  0.2051
  331loPI   C1A 5287   7.093   5.599   9.449  0.0289  0.0852  0.0103
  331loPI   C2A 5288   7.152   5.693   9.071  0.0648  0.4062  0.0247
  331loPI   C3A 5289   7.414   5.697   8.770  0.0022 -0.3878  0.0404
  331loPI   C4A 5290   7.555   5.877   8.344  0.1392 -0.0116  0.0329
  331loPI   C5A 5291   7.673   5.925   7.941  0.1651 -0.0832 -0.0314
  331loPI   C6A 5292   8.007   6.056   7.639 -0.1506 -0.1908  0.1073
  331loPI   C1B 5293   7.375   6.006   9.431 -0.2429 -0.0130 -0.0809
  331loPI   C2B 5294   7.651   5.954   9.151 -0.1017 -0.2490 -0.1063
  331loPI   C3B 5295   7.886   5.820   8.909 -0.0186 -0.3013 -0.2553
  331loPI   C4B 5296   7.896   5.491   8.605  0.0863 -0.0531  0.4987
  332loPI    C1 5297   6.286   8.508  10.389  0.2765  0.3560  0.0007
  332loPI    C2 5298   6.200   8.677  10.741 -0.1461 -0.0948  0.1261
  332loPI    C3 5299   6.333   8.300  10.728 -0.3162 -0.1471 -0.2065
  332loPI   PO4 5300   6.541   8.670  10.209 -0.2252 -0.3190  0.1082
  332loPI   GL1 5301   6.383   9.021   9.992  0.5784  0.0333  0.1190
  332loPI   GL2 5302   6.266   8.670   9.807  0.1775  0.3176 -0.0673
  332loPI   C1A 5303   6.565   9.099   9.548 -0.1100  0.4168 -0.0245
  332loPI   C2A 5304   6.530   9.333   9.113 -0.2907 -0.0634 -0.0430
  332loPI   C3A 5305   6.618   9.266   8.669 -0.1346  0.0754 -0.0718
  332loPI   C4A 5306   6.561   9.002   8.349  0.2779 -0.2719 -0.2004
  332loPI   C5A 5307   6.579   8.623   8.184  0.0625  0.1267 -0.2749
  332loPI   C6A 5308   6.532   8.230   8.058  0.0950 -0.0066 -0.2025
  332loPI   C1B 5309   5.994   8.519   9.449 -0.2561 -0.2136 -0.0337
  332loPI   C2B 5310   6.201   8.435   9.076 -0.2102  0.0332  0.3789
  332loPI   C3B 5311   6.281   8.092   8.849 -0.0790  0.0371  0.0836
  332loPI   C4B 5312   6.503   8.046   8.549  0.1996  0.4025  0.2017
  333loPI    C1 5313   7.640  14.837  10.217 -0.2833  0.0055  0.0651
  333loPI    C2 5314   7.604  14.445  10.288 -0.1950 -0.0842 -0.3580
  333loPI    C3 5315   7.331  14.700  10.430 -0.1921 -0.2831  0.0167
  333loPI   PO4 5316   7.629  14.772   9.902  0.1563  0.2128  0.1478
  333loPI   GL1 5317   7.318  14.526   9.569  0.0521  0.0986 -0.1261
  333loPI   GL2 5318   7.264  14.153   9.535 -0.3151  0.1580  0.0239
  333loPI   C1A 5319   7.270  14.819   9.199 -0.0954 -0.0043  0.3908
  333loPI   C2A 5320   7.537  14.869   8.912  0.4259  0.3700 -0.1330
  333loPI   C3A 5321   7.679  15.191   8.629  0.1324 -0.1272 -0.1418
  333loPI   C4A 5322   8.014  15.146   8.387  0.2401  0.0368  0.0947
  333loPI   C5A 5323   7.972  15.137   7.970  0.1058  0.1676  0.2479
  333loPI   C6A 5324   8.168  14.917   7.610 -0.0348  0.2576  0.1934
  333loPI   C1B 5325   7.120  13.971   9.119 -0.0766 -0.4838  0.0307
  333loPI   C2B 5326   7.259  14.244   8.867  0.1255  0.2045  0.2812
  333loPI   C3B 5327   7.452  14.488   8.578 -0.1087  0.1694  0.1552
  333loPI   C4B 5328   7.676  14.771   8.387  0.4495  0.0125 -0.0962
  334loPI    C1 5329   1.829  13.681  10.855  0.1410 -0.3837  0.0683
  334loPI    C2 5330   2.226  13.635  10.861  0.1593 -0.2111  0.3617
  334loPI    C3 5331   2.034  13.763  11.188 -0.1151 -0.1002  0.1614
  334loPI   PO4 5332   1.691  13.519  10.736 -0.5921 -0.0595  0.0553
  334loPI   GL1 5333   1.543  13.385  10.379  0.2559  0.0940 -0.0790
  334loPI   GL2 5334   1.767  13.204  10.226  0.0840 -0.0012 -0.2149
  334loPI   C1A 5335   1.113  13.216  10.427 -0.0511 -0.1175  0.0840
  334loPI   C2A 5336   0.730  13.122  10.058  0.1776 -0.1194 -0.0633
  334loPI   C3A 5337   0.633  13.380   9.614  0.0496  0.0048 -0.0672
  334loPI   C4A 5338   0.612  13.698   9.283  0.2130 -0.2317 -0.1391
  334loPI   C5A 5339   0.650  13.868   8.908 -0.0132  0.0816  0.0379
  334loPI   C6A 5340   0.670  13.993   8.527  0.1173  0.3532 -0.2426
  334loPI   C1B 5341   1.797  12.864   9.994 -0.2988  0.2029 -0.4542
  334loPI   C2B 5342   1.868  12.828   9.601  0.0591  0.0304 -0.0798
  334loPI   C3B 5343   1.704  12.700   9.287  0.2597 -0.2489 -0.1824
  334loPI   C4B 5344   1.664  12.487   8.894  0.3487 -0.0748 -0.0052
  335loPI    C1 5345  16.473   8.620  10.383  0.1102 -0.2386  0.1512
  335loPI    C2 5346  16.853   8.591  10.504  0.0322  0.0852  0.4922
  335loPI    C3 5347  16.651   8.931  10.560 -0.1769  0.0663 -0.0834
  335loPI   PO4 5348  16.351   8.318  10.487 -0.0505  0.0146  0.0718
  335loPI   GL1 5349  16.329   8.050  10.189  0.0662  0.4419 -0.1609
  335loPI   GL2 5350  16.291   7.767  10.167  0.5129 -0.2755  0.2507
  335loPI   C1A 5351  16.601   7.990   9.773 -0.1667 -0.1767 -0.1251
  335loPI   C2A 5352  16.722   7.747   9.550 -0.0400 -0.1041 -0.1972
  335loPI   C3A 5353  16.752   7.829   9.133 -0.0171 -0.1732 -0.3004
  335loPI   C4A 5354  16.673   8.005   8.791 -0.2690  0.1048 -0.0462
  335loPI   C5A 5355  16.711   8.445   8.676  0.0411 -0.4222 -0.3198
  335loPI   C6A 5356  16.821   8.651   8.329  0.2876 -0.2945  0.1088
  335loPI   C1B 5357  16.234   7.632   9.759  0.0521  0.0501  0.0175
  335loPI   C2B 5358  16.284   7.741   9.311  0.1132  0.0324  0.1141
  335loPI   C3B 5359  16.285   7.757   8.808  0.2132 -0.0843  0.0358
  335loPI   C4B 5360  16.219   7.459   8.444 -0.0868 -0.0837  0.1102
  336loPI    C1 5361   7.279  13.775   9.930  0.0065  0.0093  0.0166
  336loPI    C2 5362   7.148  13.631  10.279  0.1178  0.2066  0.1424
  336loPI    C3 5363   7.340  13.981  10.268 -0.0452  0.2903 -0.1421
  336loPI   PO4 5364   7.170  13.717   9.716  0.0408  0.1389  0.0121
  336loPI   GL1 5365   7.352  13.468   9.470 -0.0019  0.0887  0.3054
  336loPI   GL2 5366   7.434  13.153   9.323  0.1276  0.0408 -0.1475
  336loPI   C1A 5367   7.201  13.455   9.008  0.1034 -0.1338  0.0537
  336loPI   C2A 5368   7.015  13.644   8.623 -0.0629 -0.0399 -0.0150
  336loPI   C3A 5369   7.008  13.660   8.234 -0.2131  0.2282  0.3069
  336loPI   C4A 5370   7.215  13.942   7.886 -0.0002 -0.2731  0.1461
  336loPI   C5A 5371   7.249  14.457   7.864  0.0683  0.1935  0.1056
  336loPI   C6A 5372   7.031  14.791   7.559  0.2810  0.0166  0.2108
  336loPI   C1B 5373   7.653  13.186   9.027 -0.0239  0.0304  0.1023
  336loPI   C2B 5374   7.465  13.234   8.576  0.1714  0.0555  0.0148
  336loPI   C3B 5375   7.293  12.935   8.283 -0.1368 -0.2000 -0.0690
  336loPI   C4B 5376   7.251  12.547   8.417  0.0029  0.0742  0.1058
  337loPI    C1 5377  17.007  17.899  10.226 -0.0912 -0.1570 -0.1058
  337loPI    C2 5378  16.766  18.131  10.445  0.0252 -0.0064 -0.1351
  337loPI    C3 5379  17.131  18.040  10.579 -0.1172 -0.3969  0.0007
  337loPI   PO4 5380  17.029  18.037   9.984  0.2437  0.0175  0.3354
  337loPI   GL1 5381  17.082  18.332   9.672 -0.2654  0.0953  0.0072
  337loPI   GL2 5382  16.841  18.497   9.809 -0.0808  0.1458 -0.0167
  337loPI   C1A 5383  17.361  18.118   9.392  0.0627  0.0245  0.0493
  337loPI   C2A 5384  17.714  17.956   9.225 -0.1670 -0.0640  0.0283
  337loPI   C3A 5385  17.854  17.632   8.855  0.5444 -0.1855 -0.3848
  337loPI   C4A 5386  17.584  17.499   8.650 -0.1476  0.1029  0.1174
  337loPI   C5A 5387  17.315  17.305   8.479  0.2173 -0.1079  0.0853
  337loPI   C6A 5388  17.212  17.317   8.025  0.1103  0.0574  0.0454
  337loPI   C1B 5389  16.642  18.629   9.341  0.3546 -0.0108 -0.3158
  337loPI   C2B 5390  16.637  18.880   9.034 -0.0247 -0.1024 -0.2897
  337loPI   C3B 5391  16.345  18.992   8.613  0.1391 -0.1456  0.1679
  337loPI   C4B 5392  15.908  18.802   8.382  0.3199  0.2000 -0.0898
  338loPI    C1 5393  15.312  16.521  10.306 -0.0930 -0.0120 -0.0993
  338loPI    C2 5394  15.086  16.850  10.314  0.1780  0.1727  0.2517
  338loPI    C3 5395  15.245  16.709  10.653  0.0638 -0.3256  0.1057
  338loPI   PO4 5396  15.192  16.351  10.125 -0.2859  0.1693  0.1053
  338loPI   GL1 5397  15.139  16.182   9.673 -0.2877  0.2614  0.1595
  338loPI   GL2 5398  14.959  16.027   9.920  0.3492 -0.2649 -0.1120
  338loPI   C1A 5399  15.091  16.227   9.216  0.0429 -0.1242 -0.2050
  338loPI   C2A 5400  15.062  16.318   8.661 -0.0674  0.1205  0.1601
  338loPI   C3A 5401  15.088  16.400   8.188 -0.1838 -0.4013 -0.1583
  338loPI   C4A 5402  15.264  16.573   7.828  0.2165 -0.1185 -0.1095
  338loPI   C5A 5403  15.281  16.552   7.467 -0.1625  0.0293 -0.2958
  338loPI   C6A 5404  15.339  16.523   7.121  0.0702  0.0218 -0.1818
  338loPI   C1B 5405  14.909  15.785   9.499  0.2271  0.3005 -0.0052
  338loPI   C2B 5406  14.942  15.528   9.090 -0.1418 -0.0573 -0.0118
  338loPI   C3B 5407  14.876  15.380   8.662 -0.0944 -0.0550  0.1208
  338loPI   C4B 5408  14.957  15.431   8.159  0.2206  0.0741 -0.0799
  339POPI    C1 5409   2.790   0.111  10.177  0.1082 -0.0585  0.1506
  339POPI    C2 5410   3.095   0.371  10.185  0.0555  0.0074  0.0461
  339POPI    C3 5411   2.839   0.351  10.493 -0.0356  0.1949 -0.0164
  339POPI   PO4 5412   2.567   0.229   9.992  0.3137  0.2180 -0.1675
  339POPI   GL1 5413   2.490   0.264   9.464 -0.2455 -0.0207  0.1386
  339POPI   GL2 5414   2.259  -0.013   9.553 -0.2301 -0.2011  0.1176
  339POPI   C1A 5415   2.752  -0.203   9.280  0.1166 -0.5328  0.2337
  339POPI   D2A 5416   2.929  -0.339   8.887  0.0444  0.0835  0.2228
  339POPI   C3A 5417   3.098  -0.626   8.621 -0.1362  0.1624 -0.4469
  339POPI   C4A 5418   3.285  -0.952   8.370 -0.0284 -0.1612 -0.3559
  339POPI   C1B 5419   2.259  -0.025   9.180  0.1339  0.0522 -0.2047
  339POPI   C2B 5420   2.034  -0.125   8.780 -0.0816  0.1981 -0.4376
  339POPI   C3B 5421   2.065  -0.344   8.374  0.5074  0.2178  0.2465
  339POPI   C4B 5422   2.028  -0.331   7.868  0.7115  0.2560 -0.0370
  340POPI    C1 5423  10.559  12.284  10.248  0.2183  0.3003  0.1266
  340POPI    C2 5424  10.853  12.043  10.373  0.0123 -0.1837 -0.2850
  340POPI    C3 5425  10.475  11.968  10.479 -0.0291  0.1066 -0.2191
  340POPI   PO4 5426  10.527  12.221   9.971 -0.0765 -0.1386 -0.2429
  340POPI   GL1 5427  10.503  12.327   9.541 -0.0889 -0.2791 -0.2117
  340POPI   GL2 5428  10.319  12.034   9.558  0.1048  0.1642 -0.0144
  340POPI   C1A 5429  10.588  12.468   9.121 -0.0670  0.1283  0.0729
  340POPI   D2A 5430  10.945  12.493   8.678 -0.1951  0.3052 -0.1707
  340POPI   C3A 5431  11.029  12.244   8.344  0.1745 -0.1797 -0.1548
  340POPI   C4A 5432  11.242  11.917   8.006  0.1285  0.0078  0.2316
  340POPI   C1B 5433  10.037  11.969   9.190 -0.0517 -0.3908 -0.1532
  340POPI   C2B 5434   9.966  11.791   8.758 -0.0815 -0.0193 -0.0817
  340POPI   C3B 5435   9.832  11.715   8.343  0.1575  0.2697 -0.1093
  340POPI   C4B 5436   9.672  11.517   8.022  0.0644  0.2067 -0.1998
  341POPI    C1 5437   6.336  14.683  10.309  0.0976 -0.0036  0.0568
  341POPI    C2 5438   6.030  14.810  10.533 -0.0027  0.2308 -0.2073
  341POPI    C3 5439   6.403  14.926  10.620  0.0066  0.0013  0.0730
  341POPI   PO4 5440   6.107  14.534  10.057  0.0642  0.2485  0.0958
  341POPI   GL1 5441   6.321  14.482   9.622 -0.1296 -0.0172 -0.2546
  341POPI   GL2 5442   6.611  14.166   9.575  0.3793  0.1245  0.1799
  341POPI   C1A 5443   6.441  14.597   9.327 -0.0312  0.2372 -0.0397
  341POPI   D2A 5444   6.319  14.930   8.983  0.1479 -0.1929 -0.0262
  341POPI   C3A 5445   6.215  14.867   8.508 -0.0587 -0.3209  0.0519
  341POPI   C4A 5446   5.986  14.906   8.163 -0.1383 -0.2462 -0.2641
  341POPI   C1B 5447   6.578  14.082   9.164  0.1103 -0.0078 -0.1753
  341POPI   C2B 5448   6.734  14.095   8.814 -0.1717  0.1977 -0.0195
  341POPI   C3B 5449   6.679  13.961   8.488 -0.0626 -0.2250 -0.1265
  341POPI   C4B 5450   6.708  14.027   8.094  0.4177  0.0002 -0.0159
  342POPI    C1 5451   5.684   5.122  10.090 -0.1962  0.0784  0.1608
  342POPI    C2 5452   5.432   4.941  10.341  0.1027 -0.3848  0.1397
  342POPI    C3 5453   5.788   5.067  10.472 -0.0446  0.0730  0.1195
  342POPI   PO4 5454   5.592   5.350  10.041  0.0270 -0.1065 -0.0116
  342POPI   GL1 5455   5.333   5.503   9.751  0.2815 -0.0604 -0.1009
  342POPI   GL2 5456   5.070   5.538   9.795 -0.1947  0.0232  0.2445
  342POPI   C1A 5457   5.567   5.345   9.429  0.0528  0.1774  0.0970
  342POPI   D2A 5458   5.776   5.047   9.040 -0.1437  0.0835 -0.1400
  342POPI   C3A 5459   5.881   5.161   8.687  0.2119 -0.1415  0.1013
  342POPI   C4A 5460   5.792   5.333   8.289 -0.3424  0.2043 -0.0313
  342POPI   C1B 5461   5.097   5.642   9.366  0.3930  0.0804  0.2644
  342POPI   C2B 5462   5.243   5.537   8.915 -0.2673 -0.1270 -0.2428
  342POPI   C3B 5463   5.253   5.399   8.496  0.2681  0.0988  0.4674
  342POPI   C4B 5464   5.305   5.287   8.086 -0.0058  0.0498  0.1531
  343POPI    C1 5465  18.290  16.334   9.924 -0.0489 -0.0391 -0.1141
  343POPI    C2 5466  18.147  16.030  10.141  0.0880  0.0791  0.1465
  343POPI    C3 5467  17.966  16.387  10.153 -0.0733  0.0106 -0.1599
  343POPI   PO4 5468  18.535  16.351   9.969 -0.1038  0.0207  0.1984
  343POPI   GL1 5469  18.792  16.370   9.602  0.1522 -0.0711 -0.2495
  343POPI   GL2 5470  18.581  16.630   9.535 -0.0108 -0.1005 -0.0766
  343POPI   C1A 5471  18.578  16.113   9.321  0.0176 -0.1489 -0.1854
  343POPI   D2A 5472  18.442  15.999   8.944  0.1575 -0.0637  0.2460
  343POPI   C3A 5473  18.097  15.941   8.626 -0.0133 -0.1459  0.0071
  343POPI   C4A 5474  17.991  15.879   8.173  0.0554  0.0946 -0.0468
  343POPI   C1B 5475  18.793  16.520   9.142  0.2093  0.1302  0.2892
  343POPI   C2B 5476  19.018  16.398   8.773 -0.3629 -0.0185  0.2617
  343POPI   C3B 5477  19.277  16.442   8.400  0.2983  0.0899 -0.1211
  343POPI   C4B 5478  19.547  16.405   8.067  0.0668 -0.2961 -0.2451
  344POPI    C1 5479  14.440   3.635  10.438  0.0712 -0.2495 -0.0739
  344POPI    C2 5480  14.180   3.357  10.317 -0.4062  0.1014  0.1147
  344POPI    C3 5481  14.187   3.470  10.700  0.0550  0.0740  0.1194
  344POPI   PO4 5482  14.694   3.579  10.348 -0.0324  0.0808 -0.1856
  344POPI   GL1 5483  15.026   3.377  10.216  0.0593 -0.2305  0.0070
  344POPI   GL2 5484  14.929   3.141   9.893  0.0207  0.4320  0.3236
  344POPI   C1A 5485  15.303   3.418   9.760 -0.0103 -0.0150  0.1939
  344POPI   D2A 5486  15.171   3.831   9.448  0.2820  0.2004 -0.0343
  344POPI   C3A 5487  14.800   3.847   9.195 -0.1103 -0.2458  0.1549
  344POPI   C4A 5488  14.560   3.742   8.851  0.0168  0.3573  0.0686
  344POPI   C1B 5489  14.918   3.347   9.380 -0.0876  0.2016  0.2181
  344POPI   C2B 5490  14.999   3.471   8.955  0.2326 -0.0731 -0.2241
  344POPI   C3B 5491  14.898   3.550   8.510 -0.2282  0.0070 -0.1373
  344POPI   C4B 5492  15.118   3.623   8.205 -0.0537 -0.1644  0.0488
  345POPI    C1 5493   2.806   4.734  10.015  0.0629 -0.1863  0.1657
  345POPI    C2 5494   2.911   4.602   9.653  0.0254 -0.1260  0.1326
  345POPI    C3 5495   3.190   4.742   9.903  0.0450 -0.1213  0.1083
  345POPI   PO4 5496   2.600   4.987  10.006 -0.2221 -0.2931  0.1690
  345POPI   GL1 5497   2.569   5.075   9.562 -0.2317 -0.0854 -0.1702
  345POPI   GL2 5498   2.366   5.292   9.601 -0.2340 -0.1370  0.2600
  345POPI   C1A 5499   2.790   4.894   9.244 -0.3437  0.1679 -0.2940
  345POPI   D2A 5500   2.966   5.213   8.939 -0.0808  0.2173 -0.0274
  345POPI   C3A 5501   3.313   5.050   8.722  0.2002  0.1683 -0.0231
  345POPI   C4A 5502   3.533   4.983   8.358 -0.1245  0.0840  0.0617
  345POPI   C1B 5503   2.184   4.913   9.366  0.1481  0.1954 -0.0974
  345POPI   C2B 5504   2.158   4.646   9.062 -0.2981 -0.0231  0.1489
  345POPI   C3B 5505   2.151   4.540   8.631  0.1733  0.0283 -0.0875
  345POPI   C4B 5506   2.223   4.582   8.172  0.3883  0.2297  0.2056
  346POPI    C1 5507   6.632   7.725  10.312  0.1434 -0.1030 -0.0371
  346POPI    C2 5508   6.373   7.668  10.611 -0.0451 -0.1008 -0.1976
  346POPI    C3 5509   6.750   7.775  10.691 -0.0697 -0.1859  0.0416
  346POPI   PO4 5510   6.503   7.677  10.078 -0.0818  0.2867 -0.0843
  346POPI   GL1 5511   6.470   7.504   9.710 -0.0691 -0.0864  0.2967
  346POPI   GL2 5512   6.289   7.192   9.719 -0.1484 -0.0177  0.1833
  346POPI   C1A 5513   6.696   7.623   9.459  0.0283  0.1086  0.2847
  346POPI   D2A 5514   6.961   7.925   9.194 -0.0334 -0.1345  0.2216
  346POPI   C3A 5515   6.728   8.300   8.941  0.0284 -0.4520  0.3478
  346POPI   C4A 5516   6.492   8.579   8.654 -0.0545 -0.1122  0.1300
  346POPI   C1B 5517   6.415   7.122   9.316  0.1327  0.2373  0.1740
  346POPI   C2B 5518   6.586   7.136   8.955 -0.1628 -0.0797 -0.1757
  346POPI   C3B 5519   6.518   6.999   8.552 -0.2208  0.0023 -0.1099
  346POPI   C4B 5520   6.141   7.175   8.244 -0.1088  0.1820  0.0981
  347POPI    C1 5521  14.150   1.466  10.437 -0.0700 -0.0358  0.0394
  347POPI    C2 5522  13.779   1.420  10.577 -0.1678  0.0874 -0.1738
  347POPI    C3 5523  13.995   1.100  10.473 -0.1975  0.0129 -0.0099
  347POPI   PO4 5524  14.135   1.611  10.100 -0.0694 -0.2080  0.0323
  347POPI   GL1 5525  14.382   1.907   9.821  0.0449 -0.1261 -0.1616
  347POPI   GL2 5526  14.349   1.499   9.663  0.1503 -0.2123  0.0712
  347POPI   C1A 5527  14.206   2.165   9.543  0.2549 -0.1247 -0.1987
  347POPI   D2A 5528  14.110   2.372   9.131  0.1371 -0.1984  0.3580
  347POPI   C3A 5529  14.310   2.354   8.667 -0.4201 -0.0787  0.1951
  347POPI   C4A 5530  14.455   2.346   8.281  0.0674  0.1104 -0.2468
  347POPI   C1B 5531  14.363   1.371   9.203 -0.4758 -0.0262 -0.2895
  347POPI   C2B 5532  14.512   1.291   8.879 -0.0202 -0.1464  0.0655
  347POPI   C3B 5533  14.348   1.363   8.403  0.2038 -0.0365  0.0129
  347POPI   C4B 5534  14.413   1.433   7.971  0.1859 -0.2604 -0.0482
  348POPI    C1 5535   8.638  15.214   9.602  0.1093 -0.2059  0.1495
  348POPI    C2 5536   8.768  15.094   9.961 -0.1565 -0.1651  0.2612
  348POPI    C3 5537   8.538  15.419   9.930  0.1106  0.0056  0.0193
  348POPI   PO4 5538   8.667  15.047   9.468  0.1386 -0.2120 -0.0409
  348POPI   GL1 5539   8.520  15.016   9.065 -0.2621  0.0501 -0.2113
  348POPI   GL2 5540   8.688  14.769   8.971  0.1795 -0.0292  0.2616
  348POPI   C1A 5541   8.423  15.079   8.604 -0.3205  0.0303  0.2385
  348POPI   D2A 5542   8.443  14.929   8.184 -0.2383 -0.1674  0.3259
  348POPI   C3A 5543   8.629  15.018   7.814  0.1462  0.4068  0.0554
  348POPI   C4A 5544   8.878  14.846   7.519 -0.2232 -0.1780 -0.3186
  348POPI   C1B 5545   8.750  14.588   8.532  0.1651 -0.4008  0.0634
  348POPI   C2B 5546   8.960  14.646   8.072  0.0470 -0.0198  0.2662
  348POPI   C3B 5547   9.161  14.505   7.754  0.5919  0.1671 -0.0669
  348POPI   C4B 5548   9.531  14.307   7.416  0.0433 -0.1621 -0.1825
  349POPI    C1 5549   6.699  13.013  10.239  0.2400 -0.4389 -0.0695
  349POPI    C2 5550   7.049  13.151  10.375 -0.0024  0.3038 -0.1550
  349POPI    C3 5551   6.878  12.834  10.549  0.6202  0.0363 -0.0023
  349POPI   PO4 5552   6.747  12.965  10.000  0.1665 -0.0644  0.1467
  349POPI   GL1 5553   6.975  12.889   9.654  0.4120 -0.2401 -0.0114
  349POPI   GL2 5554   6.945  13.201   9.516  0.1208  0.1142 -0.1572
  349POPI   C1A 5555   7.167  12.699   9.285 -0.1017  0.2733  0.2451
  349POPI   D2A 5556   7.297  12.615   8.928  0.1190  0.0317  0.1186
  349POPI   C3A 5557   7.558  12.652   8.871 -0.2024  0.0225  0.1461
  349POPI   C4A 5558   7.704  12.797   8.501 -0.1794  0.1061 -0.0831
  349POPI   C1B 5559   6.794  13.058   9.102  0.1233 -0.0318 -0.0122
  349POPI   C2B 5560   6.953  12.987   8.756 -0.2908  0.0463 -0.4343
  349POPI   C3B 5561   6.871  13.202   8.374  0.1230 -0.2664  0.0470
  349POPI   C4B 5562   7.060  13.351   7.832  0.2140  0.0413  0.0807
  350POPI    C1 5563  15.317  15.491  10.578 -0.0142  0.0737  0.1379
  350POPI    C2 5564  15.507  15.327  10.890  0.1112 -0.1695 -0.0617
  350POPI    C3 5565  15.185  15.147  10.735  0.1673 -0.1544 -0.1966
  350POPI   PO4 5566  15.456  15.414  10.331 -0.2781 -0.0615  0.3085
  350POPI   GL1 5567  15.849  15.518  10.122  0.2736  0.0412 -0.0418
  350POPI   GL2 5568  16.012  15.826  10.203  0.2118  0.2148  0.1290
  350POPI   C1A 5569  15.883  15.530   9.694 -0.1225 -0.0541 -0.0408
  350POPI   D2A 5570  16.149  15.371   9.337  0.1924 -0.1287  0.1569
  350POPI   C3A 5571  15.829  15.213   8.976 -0.0600 -0.1033  0.1582
  350POPI   C4A 5572  15.829  15.048   8.570  0.0746  0.1714 -0.0643
  350POPI   C1B 5573  16.251  15.891   9.751  0.1047  0.0739 -0.0030
  350POPI   C2B 5574  15.979  15.858   9.334 -0.1189 -0.1163 -0.2152
  350POPI   C3B 5575  15.780  15.698   8.977 -0.0827  0.1109  0.0771
  350POPI   C4B 5576  15.829  15.641   8.512  0.6536  0.0046  0.0152
  351POPI    C1 5577  10.059   5.869  10.427 -0.0482  0.1183  0.1850
  351POPI    C2 5578   9.998   6.177  10.179  0.1389 -0.1215 -0.1684
  351POPI    C3 5579  10.370   6.078  10.288  0.0596 -0.0312  0.1992
  351POPI   PO4 5580   9.972   5.664  10.344 -0.2471  0.0751 -0.4528
  351POPI   GL1 5581  10.082   5.326  10.022  0.6839  0.0330 -0.0073
  351POPI   GL2 5582  10.250   5.166   9.908  0.1029 -0.0486 -0.1450
  351POPI   C1A 5583  10.131   5.501   9.570 -0.2584  0.3753  0.0252
  351POPI   D2A 5584  10.168   5.847   9.260  0.2460 -0.1362 -0.0473
  351POPI   C3A 5585  10.500   5.788   8.816 -0.0825 -0.2274 -0.0242
  351POPI   C4A 5586  10.415   5.695   8.416 -0.0491  0.1280  0.0815
  351POPI   C1B 5587  10.164   5.005   9.506 -0.0881  0.4266  0.1063
  351POPI   C2B 5588  10.009   5.138   9.093  0.2637  0.0972  0.2228
  351POPI   C3B 5589   9.973   4.967   8.751  0.3740 -0.0030 -0.1474
  351POPI   C4B 5590   9.732   4.937   8.482  0.0775  0.1385  0.3273
  352POPI    C1 5591  14.114  14.436   9.985  0.1446  0.2093 -0.0462
  352POPI    C2 5592  14.293  14.611   9.673  0.1508 -0.0411 -0.1856
  352POPI    C3 5593  14.500  14.363   9.910  0.0531 -0.1378 -0.2004
  352POPI   PO4 5594  13.912  14.516   9.898  0.1146 -0.0652 -0.3054
  352POPI   GL1 5595  13.687  14.435   9.423 -0.1420  0.1129  0.0732
  352POPI   GL2 5596  13.985  14.195   9.493  0.0872 -0.4723 -0.0986
  352POPI   C1A 5597  13.931  14.468   9.016  0.1116 -0.0512 -0.1041
  352POPI   D2A 5598  14.020  14.780   8.728 -0.1431  0.3521 -0.1760
  352POPI   C3A 5599  13.758  14.682   8.424 -0.0760 -0.2514 -0.4065
  352POPI   C4A 5600  13.427  14.593   8.441 -0.1465 -0.2609  0.0028
  352POPI   C1B 5601  14.309  14.179   9.143  0.0005  0.0576  0.0360
  352POPI   C2B 5602  14.549  14.141   8.848 -0.0691  0.1846 -0.2637
  352POPI   C3B 5603  14.915  13.961   8.603  0.2158  0.1251 -0.1608
  352POPI   C4B 5604  15.091  13.700   8.171  0.3773  0.1109 -0.1266
  353POPI    C1 5605  12.375  15.569  10.005  0.1706  0.1003 -0.0764
  353POPI    C2 5606  12.586  15.248   9.893  0.1189 -0.0227  0.1721
  353POPI    C3 5607  12.313  15.217  10.184 -0.1632  0.1602 -0.0670
  353POPI   PO4 5608  12.242  15.642   9.782 -0.2689 -0.0396  0.2115
  353POPI   GL1 5609  12.276  15.849   9.361 -0.1453  0.1783 -0.0908
  353POPI   GL2 5610  12.261  15.963   9.066 -0.1501  0.0073  0.0792
  353POPI   C1A 5611  12.737  15.764   9.211  0.0078  0.0207 -0.0705
  353POPI   D2A 5612  13.090  15.960   8.882  0.0357  0.1128  0.0595
  353POPI   C3A 5613  13.357  16.043   8.699  0.0603 -0.3707 -0.0860
  353POPI   C4A 5614  13.525  16.141   8.231  0.0858 -0.1869  0.0745
  353POPI   C1B 5615  12.560  15.785   8.754 -0.2344 -0.0458 -0.1431
  353POPI   C2B 5616  12.864  15.821   8.491  0.0866 -0.1926  0.1419
  353POPI   C3B 5617  12.988  16.059   8.118  0.0791  0.3774  0.2425
  353POPI   C4B 5618  13.230  16.184   7.756  0.2172 -0.2252  0.5790
  354POPI    C1 5619  18.052  13.135  10.421 -0.2798 -0.3799 -0.2075
  354POPI    C2 5620  17.994  13.149  10.817  0.0227 -0.0774 -0.1694
  354POPI    C3 5621  17.718  13.299  10.570  0.1139  0.3107 -0.0420
  354POPI   PO4 5622  18.240  13.215  10.369 -0.3472 -0.2075  0.5151
  354POPI   GL1 5623  18.631  13.283  10.188 -0.0856 -0.2608  0.1540
  354POPI   GL2 5624  18.861  13.346  10.214  0.1571  0.3417  0.0475
  354POPI   C1A 5625  18.637  13.326   9.749 -0.2169 -0.1511 -0.1849
  354POPI   D2A 5626  18.671  13.358   9.377 -0.0472 -0.0872 -0.2341
  354POPI   C3A 5627  18.340  13.531   9.105 -0.0072 -0.0757  0.0833
  354POPI   C4A 5628  18.082  13.432   8.760 -0.2385  0.0402 -0.2282
  354POPI   C1B 5629  19.059  13.707   9.974  0.3325  0.0817 -0.4314
  354POPI   C2B 5630  19.321  13.961   9.718  0.0289  0.1344 -0.1562
  354POPI   C3B 5631  19.752  13.866   9.751  0.3324  0.1810 -0.1417
  354POPI   C4B 5632  20.087  13.513   9.873 -0.1150 -0.3175 -0.0794
  355POPI    C1 5633   0.924   3.668  10.294 -0.0959  0.0323  0.2236
  355POPI    C2 5634   0.611   3.485  10.124 -0.2316  0.1605  0.3327
  355POPI    C3 5635   0.857   3.280  10.363 -0.1959  0.0445  0.1977
  355POPI   PO4 5636   1.013   3.767  10.094  0.1587  0.1094 -0.0007
  355POPI   GL1 5637   0.808   3.790   9.729  0.1246  0.0119  0.0339
  355POPI   GL2 5638   0.920   3.489   9.710  0.0232 -0.1012 -0.0530
  355POPI   C1A 5639   0.654   3.688   9.315  0.4061  0.3493  0.1315
  355POPI   D2A 5640   0.656   3.603   8.955 -0.0127 -0.1092  0.1163
  355POPI   C3A 5641   0.480   3.657   8.571 -0.1834 -0.2273 -0.4939
  355POPI   C4A 5642   0.216   3.807   8.206  0.3242  0.4293 -0.2121
  355POPI   C1B 5643   1.115   3.463   9.223 -0.2264 -0.1148  0.2148
  355POPI   C2B 5644   1.133   3.449   8.729  0.0448  0.1618 -0.2446
  355POPI   C3B 5645   0.864   3.415   8.411  0.2222  0.4046 -0.2028
  355POPI   C4B 5646   0.701   3.606   8.118  0.1088  0.1179 -0.0456
  356POPI    C1 5647  15.962   0.826  10.210 -0.2904  0.1418  0.1196
  356POPI    C2 5648  16.332   0.719  10.318 -0.1897  0.1686 -0.1896
  356POPI    C3 5649  16.107   0.937  10.566  0.0117  0.1768 -0.0114
  356POPI   PO4 5650  15.899   0.578  10.098  0.1229 -0.0812  0.0606
  356POPI   GL1 5651  15.794   0.569   9.739  0.0676 -0.3063  0.1960
  356POPI   GL2 5652  15.456   0.457   9.545 -0.2783  0.3807 -0.0025
  356POPI   C1A 5653  15.558   0.972   9.624 -0.4957  0.0367 -0.0944
  356POPI   D2A 5654  15.498   1.215   9.150  0.3072  0.3989  0.0929
  356POPI   C3A 5655  15.187   1.313   9.366 -0.0661  0.0336 -0.3860
  356POPI   C4A 5656  14.809   1.281   9.319 -0.1036  0.0229 -0.0551
  356POPI   C1B 5657  15.540   0.675   9.117  0.2088  0.1715  0.1926
  356POPI   C2B 5658  15.477   0.772   8.778  0.2255  0.0880  0.1587
  356POPI   C3B 5659  15.360   0.896   8.391 -0.1556  0.0108 -0.2457
  356POPI   C4B 5660  15.402   1.190   8.163  0.0827 -0.0284  0.1476
  357POPI    C1 5661  18.251  11.013  10.373  0.0928 -0.0166  0.0058
  357POPI    C2 5662  18.086  11.057  10.735  0.1719 -0.2302  0.0694
  357POPI    C3 5663  17.857  11.072  10.408  0.1146  0.0679  0.1196
  357POPI   PO4 5664  18.480  11.107  10.323 -0.1622 -0.2780 -0.2705
  357POPI   GL1 5665  18.751  11.068  10.001  0.1358  0.0274  0.1543
  357POPI   GL2 5666  18.430  11.155   9.799  0.0227  0.1698  0.1096
  357POPI   C1A 5667  18.873  11.069   9.509 -0.1072  0.3968 -0.1888
  357POPI   D2A 5668  18.813  11.125   9.113 -0.0898 -0.4268  0.0450
  357POPI   C3A 5669  18.590  11.102   8.686  0.1431  0.0022 -0.1448
  357POPI   C4A 5670  18.417  11.176   8.347  0.1103 -0.2237 -0.0381
  357POPI   C1B 5671  18.172  10.978   9.514  0.0283 -0.2595  0.1486
  357POPI   C2B 5672  18.301  11.040   9.053 -0.0482  0.2258 -0.0678
  357POPI   C3B 5673  17.990  11.076   8.594 -0.3225 -0.1543  0.1738
  357POPI   C4B 5674  17.773  11.309   8.173  0.1392 -0.4007 -0.1965
  358POPI    C1 5675  11.508  14.974   9.638  0.0447 -0.0317 -0.3395
  358POPI    C2 5676  11.650  14.604   9.698 -0.1168 -0.0583 -0.1081
  358POPI    C3 5677  11.441  14.788   9.986 -0.1599  0.1586 -0.2748
  358POPI   PO4 5678  11.466  15.010   9.384  0.0834  0.0553 -0.0750
  358POPI   GL1 5679  11.592  14.709   9.041  0.3146 -0.0237  0.1614
  358POPI   GL2 5680  11.759  14.986   8.984 -0.2548 -0.2351  0.2053
  358POPI   C1A 5681  11.706  14.584   8.548 -0.0599 -0.2048  0.1082
  358POPI   D2A 5682  11.982  14.696   8.206  0.1957 -0.1476  0.0624
  358POPI   C3A 5683  11.792  14.538   7.906  0.0302  0.1408 -0.0798
  358POPI   C4A 5684  11.555  14.655   7.637 -0.4407 -0.1723  0.1169
  358POPI   C1B 5685  11.939  15.042   8.650  0.0857 -0.3640  0.0823
  358POPI   C2B 5686  12.130  15.249   8.294 -0.1542  0.0343  0.1017
  358POPI   C3B 5687  12.186  15.486   8.044  0.1571  0.1055  0.1825
  358POPI   C4B 5688  12.074  15.393   7.661 -0.1100  0.1139  0.3297
  359POPI    C1 5689   6.047   0.999  10.067 -0.1873 -0.0646 -0.3534
  359POPI    C2 5690   6.293   1.312  10.032 -0.1237 -0.0650  0.0362
  359POPI    C3 5691   5.907   1.369  10.123 -0.1275 -0.0964  0.0397
  359POPI   PO4 5692   6.200   0.854   9.859  0.3402  0.0664 -0.1727
  359POPI   GL1 5693   6.408   0.917   9.460  0.0020  0.0022 -0.1806
  359POPI   GL2 5694   6.198   1.190   9.490 -0.3319 -0.0323  0.0017
  359POPI   C1A 5695   6.476   0.900   9.003  0.0162  0.1926 -0.0982
  359POPI   D2A 5696   6.537   0.967   8.562 -0.1801  0.1491  0.3846
  359POPI   C3A 5697   6.400   0.682   8.202 -0.0499  0.2544  0.1753
  359POPI   C4A 5698   6.292   0.800   7.858  0.0238 -0.0091  0.0024
  359POPI   C1B 5699   6.062   1.189   9.050  0.1112  0.1818 -0.3007
  359POPI   C2B 5700   6.088   1.263   8.700  0.1216 -0.2594  0.1104
  359POPI   C3B 5701   6.045   1.625   8.484  0.1463  0.1001 -0.0392
  359POPI   C4B 5702   6.210   1.754   8.149  0.0633 -0.2121 -0.0973
  360POPI    C1 5703   3.459  15.002  10.230  0.1533  0.0789  0.1341
  360POPI    C2 5704   3.579  15.340  10.053  0.2695 -0.0516 -0.0390
  360POPI    C3 5705   3.806  15.171  10.336  0.0023  0.2498  0.3651
  360POPI   PO4 5706   3.479  14.823  10.000 -0.3792 -0.0594 -0.1760
  360POPI   GL1 5707   3.625  14.947   9.566 -0.1474 -0.1831  0.0391
  360POPI   GL2 5708   3.332  14.672   9.537  0.6367  0.1606  0.0926
  360POPI   C1A 5709   3.808  15.064   9.225  0.1075 -0.1182 -0.0801
  360POPI   D2A 5710   3.670  15.233   8.830 -0.0838  0.0414  0.0268
  360POPI   C3A 5711   3.754  15.138   8.427  0.0145 -0.0356 -0.1357
  360POPI   C4A 5712   3.585  15.114   8.085 -0.0576 -0.0631  0.0739
  360POPI   C1B 5713   3.090  14.587   9.185 -0.0189 -0.2586 -0.0717
  360POPI   C2B 5714   3.078  14.231   8.894 -0.2179 -0.1005 -0.0187
  360POPI   C3B 5715   3.207  14.258   8.495 -0.3845 -0.2295 -0.1759
  360POPI   C4B 5716   3.619  14.258   8.354 -0.1682 -0.0503 -0.0458
  361POPI    C1 5717   0.979   6.176  10.117  0.1446 -0.2715 -0.1278
  361POPI    C2 5718   1.112   6.323  10.465 -0.1730  0.0368 -0.1316
  361POPI    C3 5719   0.936   5.964  10.454 -0.1018 -0.0032  0.0147
  361POPI   PO4 5720   1.154   6.122   9.960  0.1262  0.1472  0.1879
  361POPI   GL1 5721   1.113   5.858   9.494  0.1719  0.1294  0.2848
  361POPI   GL2 5722   0.884   6.056   9.379 -0.0590 -0.1102 -0.0997
  361POPI   C1A 5723   1.196   5.757   9.123 -0.3240  0.2289  0.1375
  361POPI   D2A 5724   1.130   5.758   8.631  0.0126  0.1659 -0.0772
  361POPI   C3A 5725   1.110   5.634   8.194 -0.0666 -0.0257 -0.1584
  361POPI   C4A 5726   1.058   5.645   7.720 -0.0027 -0.1598 -0.2719
  361POPI   C1B 5727   0.797   6.234   8.933 -0.3445 -0.0551 -0.1792
  361POPI   C2B 5728   0.854   6.177   8.558  0.3322  0.1096  0.1793
  361POPI   C3B 5729   0.834   6.306   8.085 -0.0423  0.0046 -0.0653
  361POPI   C4B 5730   0.736   6.514   7.689 -0.3272  0.3076  0.1763
  362POPI    C1 5731   7.732   3.873  10.352 -0.0097  0.1328 -0.4746
  362POPI    C2 5732   8.045   3.663  10.487 -0.1005  0.2160 -0.1237
  362POPI    C3 5733   7.675   3.512  10.514 -0.1207  0.2348 -0.2821
  362POPI   PO4 5734   7.700   3.861  10.074  0.0466  0.0240 -0.0557
  362POPI   GL1 5735   7.474   3.839   9.698  0.1154  0.3420  0.2387
  362POPI   GL2 5736   7.274   3.528   9.606  0.5500  0.1710  0.4100
  362POPI   C1A 5737   7.551   3.840   9.308  0.0827  0.0493  0.0394
  362POPI   D2A 5738   7.790   3.611   8.979 -0.2052  0.0265  0.3473
  362POPI   C3A 5739   8.158   3.524   8.594 -0.1867  0.1312 -0.0243
  362POPI   C4A 5740   8.278   3.658   8.285 -0.2035 -0.0709 -0.1869
  362POPI   C1B 5741   7.515   3.349   9.322 -0.2221  0.1792  0.0335
  362POPI   C2B 5742   7.876   3.132   9.293  0.2120  0.1548  0.1865
  362POPI   C3B 5743   8.362   3.121   9.165 -0.0043 -0.0926  0.0014
  362POPI   C4B 5744   8.541   2.744   8.942  0.1583 -0.1228  0.0877
  363POPI    C1 5745   4.898  11.229  10.193  0.0981  0.0441  0.0690
  363POPI    C2 5746   4.503  11.286  10.212  0.0855 -0.0887  0.2249
  363POPI    C3 5747   4.733  11.545  10.012 -0.0788 -0.0059  0.1413
  363POPI   PO4 5748   4.850  10.894  10.214  0.2592  0.0131 -0.0883
  363POPI   GL1 5749   4.660  10.726   9.786 -0.5561  0.2367 -0.1193
  363POPI   GL2 5750   4.687  10.983   9.781  0.2296 -0.1524  0.2215
  363POPI   C1A 5751   4.609  10.604   9.307 -0.0142  0.0732 -0.1088
  363POPI   D2A 5752   4.319  10.717   9.042 -0.1859 -0.2646 -0.0599
  363POPI   C3A 5753   3.896  10.915   9.186 -0.1151  0.2533 -0.0118
  363POPI   C4A 5754   3.603  11.058   8.894 -0.1065  0.1624  0.3564
  363POPI   C1B 5755   4.361  11.064   9.429 -0.1799  0.0555 -0.0520
  363POPI   C2B 5756   4.255  11.232   9.053 -0.2836  0.1326  0.0803
  363POPI   C3B 5757   3.943  11.357   8.623  0.1608  0.3923 -0.0156
  363POPI   C4B 5758   3.914  11.593   8.265  0.3171  0.0252  0.4495
  364POPI    C1 5759  13.427  11.920  10.009  0.1225  0.1053 -0.1492
  364POPI    C2 5760  13.308  12.292  10.095  0.0658  0.0864 -0.1455
  364POPI    C3 5761  13.326  12.016  10.384 -0.0693  0.0382 -0.1825
  364POPI   PO4 5762  13.700  11.989   9.914  0.1341 -0.3424 -0.1222
  364POPI   GL1 5763  13.868  11.810   9.514 -0.2740 -0.2393 -0.1238
  364POPI   GL2 5764  14.114  11.738   9.446  0.3130  0.2300 -0.1331
  364POPI   C1A 5765  13.850  12.120   9.163  0.0708  0.0213 -0.0832
  364POPI   D2A 5766  13.833  12.388   8.820  0.2445 -0.1616 -0.0114
  364POPI   C3A 5767  13.483  12.656   8.676 -0.4217  0.0601 -0.0346
  364POPI   C4A 5768  13.610  13.083   8.482  0.2176 -0.0389  0.0177
  364POPI   C1B 5769  14.220  11.717   9.041 -0.0873  0.3806 -0.0495
  364POPI   C2B 5770  14.366  11.410   8.785 -0.2092 -0.0941 -0.3271
  364POPI   C3B 5771  14.403  11.331   8.351 -0.1871  0.0931  0.1499
  364POPI   C4B 5772  14.459  11.512   7.961 -0.0368  0.1959 -0.3096
  365POPI    C1 5773   3.584   6.305  10.502 -0.1344 -0.2303 -0.0711
  365POPI    C2 5774   3.920   6.225  10.704 -0.0367  0.0984 -0.0974
  365POPI    C3 5775   3.620   5.961  10.702  0.0515 -0.0113  0.2839
  365POPI   PO4 5776   3.699   6.353  10.152  0.0720 -0.1307 -0.0113
  365POPI   GL1 5777   3.665   6.061   9.798 -0.0127 -0.1089 -0.1100
  365POPI   GL2 5778   3.687   6.445   9.643  0.3179 -0.1012  0.1236
  365POPI   C1A 5779   3.772   5.986   9.354  0.0327  0.2004  0.0943
  365POPI   D2A 5780   3.604   6.011   8.990 -0.0040 -0.1221  0.1427
  365POPI   C3A 5781   3.893   5.817   8.759 -0.0869  0.3088 -0.3351
  365POPI   C4A 5782   3.949   5.762   8.342  0.0035 -0.1525 -0.0270
  365POPI   C1B 5783   3.932   6.422   9.205  0.0858  0.5098 -0.2099
  365POPI   C2B 5784   3.796   6.423   8.839  0.2212 -0.1352  0.0315
  365POPI   C3B 5785   3.954   6.243   8.521 -0.0054  0.0487  0.1958
  365POPI   C4B 5786   3.831   6.176   8.085  0.3626 -0.0363  0.0384
  366POPI    C1 5787   0.887  11.211  11.010  0.0168 -0.0531  0.0490
  366POPI    C2 5788   1.132  11.144  11.318 -0.0050 -0.1011  0.0560
  366POPI    C3 5789   0.757  11.267  11.384 -0.0361 -0.1930  0.0524
  366POPI   PO4 5790   1.094  11.083  10.831  0.2144  0.1269  0.0620
  366POPI   GL1 5791   0.994  10.935  10.354  0.0412  0.0767 -0.0849
  366POPI   GL2 5792   0.718  10.928  10.175  0.0294 -0.2730  0.1537
  366POPI   C1A 5793   1.239  10.866  10.051 -0.1337 -0.0833  0.0856
  366POPI   D2A 5794   1.425  10.690   9.686 -0.0169  0.1975 -0.0895
  366POPI   C3A 5795   1.169  10.579   9.341  0.1057 -0.1906 -0.1731
  366POPI   C4A 5796   1.266  10.618   9.057  0.0502  0.1243 -0.0337
  366POPI   C1B 5797   0.726  11.079   9.806 -0.1856  0.1288  0.0222
  366POPI   C2B 5798   1.060  11.053   9.537  0.2477  0.1013  0.3070
  366POPI   C3B 5799   1.533  10.915   9.285 -0.2084  0.0289 -0.1001
  366POPI   C4B 5800   1.908  11.047   9.347 -0.4044 -0.2405 -0.1275
  367POPI    C1 5801  11.303  10.565   9.696 -0.0404  0.0296 -0.1487
  367POPI    C2 5802  11.146  10.361  10.003  0.1449 -0.1336 -0.1606
  367POPI    C3 5803  10.942  10.396   9.661 -0.1036  0.1292  0.0106
  367POPI   PO4 5804  11.646  10.617   9.723  0.0198 -0.1169 -0.0902
  367POPI   GL1 5805  11.992  10.813   9.405  0.1097 -0.0437  0.0079
  367POPI   GL2 5806  12.172  10.517   9.573 -0.0068  0.0997  0.0508
  367POPI   C1A 5807  11.802  11.069   9.324  0.5989 -0.0021  0.1249
  367POPI   D2A 5808  11.574  11.168   9.011 -0.0616  0.0827 -0.0362
  367POPI   C3A 5809  11.486  11.206   8.641  0.1237 -0.0264  0.0428
  367POPI   C4A 5810  11.753  11.291   8.227 -0.0046  0.1328 -0.0068
  367POPI   C1B 5811  12.193  10.442   9.107 -0.2629 -0.1230 -0.2266
  367POPI   C2B 5812  12.200  10.394   8.684  0.1269 -0.1237 -0.2350
  367POPI   C3B 5813  12.088  10.350   8.265 -0.1782 -0.1225 -0.0502
  367POPI   C4B 5814  11.702  10.256   8.065 -0.0516 -0.0031 -0.0798
  368POPI    C1 5815  11.001   9.131  10.161  0.1247  0.1853 -0.0428
  368POPI    C2 5816  11.204   8.846   9.967  0.0377  0.0480  0.0653
  368POPI    C3 5817  11.248   8.889  10.362 -0.2169 -0.0481  0.1057
  368POPI   PO4 5818  10.864   9.242   9.914  0.2273 -0.2543 -0.2378
  368POPI   GL1 5819  10.773   9.387   9.582 -0.1760  0.0966 -0.0225
  368POPI   GL2 5820  10.539   9.328   9.436  0.3993  0.1491 -0.0402
  368POPI   C1A 5821  10.904   9.502   9.079 -0.2744  0.1927  0.1017
  368POPI   D2A 5822  11.117   9.485   8.699 -0.1147 -0.3361  0.0146
  368POPI   C3A 5823  11.317   9.654   8.402  0.0931  0.0784 -0.3338
  368POPI   C4A 5824  11.316  10.021   8.176  0.0348 -0.1952  0.3681
  368POPI   C1B 5825  10.687   9.045   9.138  0.1426 -0.2283  0.1370
  368POPI   C2B 5826  10.599   8.867   8.787  0.1062  0.0850 -0.3431
  368POPI   C3B 5827  10.253   8.797   8.553  0.1855 -0.0412 -0.0422
  368POPI   C4B 5828   9.869   8.788   8.339 -0.0676  0.0595 -0.2730
  369POPI    C1 5829  12.536   0.861  10.607 -0.3732  0.0838  0.1119
  369POPI    C2 5830  12.346   0.581  10.820  0.1533 -0.1355  0.3116
  369POPI    C3 5831  12.634   0.799  10.990  0.1632  0.1120 -0.0129
  369POPI   PO4 5832  12.478   0.815  10.290 -0.1046 -0.0776 -0.3763
  369POPI   GL1 5833  12.543   0.478   9.952  0.0535  0.1003 -0.0886
  369POPI   GL2 5834  12.286   0.439   9.822 -0.0088  0.0286  0.2294
  369POPI   C1A 5835  12.785   0.601   9.625  0.1791 -0.0020  0.0753
  369POPI   D2A 5836  12.868   0.837   9.287 -0.0970  0.0300  0.2098
  369POPI   C3A 5837  12.714   0.908   8.852  0.2713  0.0606  0.1016
  369POPI   C4A 5838  12.593   0.731   8.426 -0.0148  0.1099  0.0299
  369POPI   C1B 5839  12.247   0.614   9.336 -0.0454  0.1779  0.1883
  369POPI   C2B 5840  12.250   0.631   8.808  0.1448  0.1798 -0.0144
  369POPI   C3B 5841  12.184   0.406   8.373  0.0044 -0.0360 -0.2634
  369POPI   C4B 5842  12.087   0.017   8.156 -0.1460  0.3352 -0.1381
  370POPI    C1 5843  15.216  12.814   9.981  0.1276  0.0846 -0.0333
  370POPI    C2 5844  15.615  12.783   9.996  0.1205  0.0822  0.1935
  370POPI    C3 5845  15.437  13.130  10.084  0.0554 -0.0113  0.4383
  370POPI   PO4 5846  15.159  12.686   9.710 -0.2909  0.0361 -0.1404
  370POPI   GL1 5847  15.082  12.690   9.167 -0.1837  0.0447 -0.1377
  370POPI   GL2 5848  15.273  12.445   9.296  0.1147 -0.0759 -0.0069
  370POPI   C1A 5849  15.475  12.708   8.932 -0.0787  0.1975  0.0527
  370POPI   D2A 5850  15.822  12.734   8.987 -0.2277 -0.1341 -0.2581
  370POPI   C3A 5851  16.063  12.836   8.672 -0.0027 -0.1568 -0.0965
  370POPI   C4A 5852  16.183  13.089   8.331  0.2653  0.3573 -0.1572
  370POPI   C1B 5853  15.518  12.172   8.925 -0.2782 -0.1555  0.0932
  370POPI   C2B 5854  15.879  12.331   8.697 -0.0022  0.1611  0.1619
  370POPI   C3B 5855  16.012  12.462   8.322 -0.0225  0.1882  0.0585
  370POPI   C4B 5856  16.078  12.485   7.827  0.0624  0.0532  0.0734
  371POPI    C1 5857  10.958  11.398   9.942 -0.1074 -0.2838  0.3137
  371POPI    C2 5858  11.072  11.725  10.141  0.2282 -0.3095  0.1702
  371POPI    C3 5859  11.145  11.363  10.293  0.1482 -0.3236  0.1756
  371POPI   PO4 5860  11.060  11.490   9.681  0.0081  0.1544 -0.2441
  371POPI   GL1 5861  11.158  11.469   9.298  0.1552  0.3106  0.0173
  371POPI   GL2 5862  11.221  11.837   9.339  0.1801  0.0536  0.0446
  371POPI   C1A 5863  11.164  11.484   8.927  0.1862 -0.0149 -0.0409
  371POPI   D2A 5864  10.883  11.577   8.715  0.1616 -0.2414 -0.1237
  371POPI   C3A 5865  10.803  11.747   8.268  0.0068  0.0612 -0.2213
  371POPI   C4A 5866  10.792  11.793   7.843  0.1236 -0.2428  0.1814
  371POPI   C1B 5867  11.575  11.711   9.041 -0.0939  0.0621  0.1355
  371POPI   C2B 5868  11.766  11.656   8.614  0.2968  0.0292 -0.1055
  371POPI   C3B 5869  11.704  11.802   8.216 -0.3037 -0.0650  0.2076
  371POPI   C4B 5870  11.801  11.913   7.830  0.4011  0.3732 -0.1934
  372POPI    C1 5871   4.468  18.045  10.254  0.0879 -0.1735 -0.2118
  372POPI    C2 5872   4.816  17.964  10.434  0.0981 -0.0572 -0.1788
  372POPI    C3 5873   4.475  17.809  10.576  0.0803  0.1986  0.0671
  372POPI   PO4 5874   4.511  18.130   9.958 -0.2046 -0.1492 -0.1470
  372POPI   GL1 5875   4.461  18.258   9.594 -0.1054 -0.0912 -0.3972
  372POPI   GL2 5876   4.612  18.425   9.278 -0.1937  0.1408 -0.1498
  372POPI   C1A 5877   4.357  17.942   9.293 -0.1759  0.1040 -0.2758
  372POPI   D2A 5878   4.338  17.619   9.318 -0.0548 -0.0394  0.0767
  372POPI   C3A 5879   4.176  17.485   8.927  0.0489 -0.0356 -0.1147
  372POPI   C4A 5880   3.992  17.171   8.875 -0.0658 -0.1894 -0.2264
  372POPI   C1B 5881   4.451  18.405   8.974  0.0824  0.0572  0.2253
  372POPI   C2B 5882   4.447  17.954   8.786 -0.1521 -0.2885  0.0039
  372POPI   C3B 5883   4.322  17.700   8.449 -0.1808 -0.0515 -0.0195
  372POPI   C4B 5884   4.149  17.375   8.383 -0.0497 -0.1972  0.0336
  373POPI    C1 5885  16.953   1.038  10.391  0.0246  0.1645 -0.0513
  373POPI    C2 5886  16.640   1.031  10.640 -0.0215  0.0616 -0.1120
  373POPI    C3 5887  17.011   1.052  10.787 -0.0533  0.1004 -0.0373
  373POPI   PO4 5888  16.913   0.793  10.242  0.3645  0.2998 -0.1421
  373POPI   GL1 5889  16.594   0.810   9.912  0.2264 -0.2083 -0.1567
  373POPI   GL2 5890  16.342   0.843   9.794 -0.2436  0.3600  0.2341
  373POPI   C1A 5891  16.756   0.520   9.634 -0.0231  0.0403  0.1809
  373POPI   D2A 5892  17.139   0.273   9.505 -0.0777  0.1912  0.1953
  373POPI   C3A 5893  17.129   0.270   9.111  0.0279 -0.2764 -0.2015
  373POPI   C4A 5894  17.228   0.289   8.665 -0.1502  0.0543 -0.1891
  373POPI   C1B 5895  16.460   0.805   9.353 -0.1893  0.0705  0.0099
  373POPI   C2B 5896  16.395   0.892   8.968 -0.1768  0.1148 -0.0380
  373POPI   C3B 5897  16.399   0.954   8.577 -0.0640 -0.0407  0.2443
  373POPI   C4B 5898  16.464   1.233   8.140 -0.0365 -0.1800  0.3528
  374POPI    C1 5899  18.157   7.251  10.341  0.0815 -0.1417 -0.0518
  374POPI    C2 5900  18.164   7.314  10.736 -0.0440 -0.2549 -0.0310
  374POPI    C3 5901  18.038   7.603  10.489  0.2474 -0.1037 -0.0067
  374POPI   PO4 5902  18.495   7.227  10.234 -0.6075  0.0266  0.3215
  374POPI   GL1 5903  18.705   7.308   9.838  0.0182 -0.1174  0.1289
  374POPI   GL2 5904  18.412   7.599   9.966  0.2050 -0.0286  0.1462
  374POPI   C1A 5905  18.520   7.046   9.522 -0.3407  0.1737 -0.2206
  374POPI   D2A 5906  18.631   6.852   9.128  0.1590 -0.0351  0.1630
  374POPI   C3A 5907  18.563   6.589   8.720  0.0320  0.1115  0.0196
  374POPI   C4A 5908  18.636   6.649   8.364  0.0821  0.0047  0.1489
  374POPI   C1B 5909  18.160   7.924   9.635 -0.1325  0.0317 -0.1377
  374POPI   C2B 5910  18.038   7.943   9.165 -0.0548 -0.3231  0.0116
  374POPI   C3B 5911  18.187   7.672   8.797 -0.2095 -0.0243 -0.0175
  374POPI   C4B 5912  18.029   7.529   8.437  0.0339 -0.0132  0.2565
  375POPI    C1 5913  17.969   2.217  10.464 -0.1762 -0.1092 -0.2385
  375POPI    C2 5914  18.213   2.498  10.317  0.0558 -0.0773  0.1905
  375POPI    C3 5915  17.911   2.602  10.557 -0.0722 -0.1639  0.0680
  375POPI   PO4 5916  17.959   2.094  10.222 -0.0640 -0.0961  0.0694
  375POPI   GL1 5917  18.053   2.296   9.900  0.0015 -0.0778  0.0064
  375POPI   GL2 5918  18.434   2.364   9.867  0.3412  0.1812 -0.0138
  375POPI   C1A 5919  17.859   2.263   9.484 -0.0046  0.1677 -0.2987
  375POPI   D2A 5920  17.848   2.497   9.120 -0.3483 -0.0209 -0.2124
  375POPI   C3A 5921  17.863   2.461   8.641 -0.0837  0.4138 -0.1899
  375POPI   C4A 5922  17.861   2.733   8.315 -0.3482 -0.0312  0.3128
  375POPI   C1B 5923  18.316   2.448   9.462 -0.1945  0.1555 -0.0501
  375POPI   C2B 5924  18.304   2.548   8.958 -0.1647 -0.1582 -0.1337
  375POPI   C3B 5925  18.357   2.456   8.547 -0.0255  0.1284  0.1600
  375POPI   C4B 5926  18.484   2.228   8.286  0.0880  0.2241 -0.0379
  376POPI    C1 5927  13.069   4.395   9.872  0.1824  0.0643 -0.1111
  376POPI    C2 5928  13.173   4.570  10.217 -0.0085  0.1594 -0.1006
  376POPI    C3 5929  13.226   4.177  10.168  0.1108  0.1625  0.0003
  376POPI   PO4 5930  13.084   4.618   9.655 -0.0653  0.0026 -0.0315
  376POPI   GL1 5931  13.402   4.779   9.395  0.3478  0.1971 -0.1971
  376POPI   GL2 5932  13.607   4.660   9.193  0.1461 -0.0875 -0.3435
  376POPI   C1A 5933  13.199   4.965   8.945  0.1175  0.1956 -0.2784
  376POPI   D2A 5934  13.202   4.944   8.428  0.2849  0.0171  0.1815
  376POPI   C3A 5935  13.486   4.957   8.167 -0.0937 -0.1404  0.2548
  376POPI   C4A 5936  13.660   5.019   7.684  0.1270  0.0000  0.0563
  376POPI   C1B 5937  13.641   4.760   8.693 -0.0396  0.1881 -0.0025
  376POPI   C2B 5938  13.716   4.503   8.361  0.4851  0.0112 -0.0646
  376POPI   C3B 5939  13.820   4.571   7.928 -0.0726 -0.0212 -0.1245
  376POPI   C4B 5940  13.576   4.572   7.476 -0.0132  0.1968  0.1725
  377POPI    C1 5941   7.058   2.786  10.769 -0.1500 -0.0980 -0.0526
  377POPI    C2 5942   6.677   2.892  10.709 -0.0773  0.0521 -0.2596
  377POPI    C3 5943   6.911   3.113  10.946 -0.2015 -0.2136  0.1217
  377POPI   PO4 5944   7.229   2.662  10.472 -0.1246  0.0399 -0.3002
  377POPI   GL1 5945   7.018   2.584  10.110 -0.2598 -0.2178  0.2580
  377POPI   GL2 5946   7.189   2.837   9.973 -0.1413 -0.0977 -0.0952
  377POPI   C1A 5947   6.907   2.495   9.690 -0.2607  0.1737 -0.2007
  377POPI   D2A 5948   7.278   2.596   9.356 -0.1462  0.2864 -0.0468
  377POPI   C3A 5949   7.431   2.850   9.015 -0.3557  0.1267 -0.1880
  377POPI   C4A 5950   7.747   3.165   8.740 -0.2927  0.1410 -0.4361
  377POPI   C1B 5951   7.081   3.022   9.524  0.0120  0.0108  0.1072
  377POPI   C2B 5952   7.008   3.356   9.205  0.1098 -0.0525  0.0239
  377POPI   C3B 5953   7.147   3.639   8.889 -0.0266  0.1120  0.1220
  377POPI   C4B 5954   7.547   3.590   8.527  0.2071 -0.0491  0.0543
  378POPI    C1 5955   4.389  10.744  10.395 -0.0542 -0.1280 -0.1196
  378POPI    C2 5956   4.154  11.038  10.533  0.1261 -0.0121 -0.0552
  378POPI    C3 5957   4.099  10.662  10.658 -0.0010  0.0201 -0.0130
  378POPI   PO4 5958   4.354  10.796  10.156 -0.1205  0.1062  0.0380
  378POPI   GL1 5959   4.265  10.466   9.749 -0.0922  0.1531 -0.1768
  378POPI   GL2 5960   4.091  10.716   9.781 -0.2680 -0.2769  0.1635
  378POPI   C1A 5961   4.048  10.250   9.345 -0.0452  0.3077 -0.2705
  378POPI   D2A 5962   3.683  10.313   9.106  0.4329  0.0607 -0.2222
  378POPI   C3A 5963   3.780  10.648   8.771  0.3227 -0.2254 -0.1080
  378POPI   C4A 5964   3.781  10.908   8.406  0.1395  0.1466 -0.1835
  378POPI   C1B 5965   3.726  10.560   9.540 -0.1997 -0.2352  0.0441
  378POPI   C2B 5966   3.403  10.738   9.252 -0.2948  0.1212 -0.0509
  378POPI   C3B 5967   3.281  10.746   8.869  0.2889 -0.1209  0.2293
  378POPI   C4B 5968   3.233  10.876   8.526  0.1447 -0.3895 -0.2984
  379POPI    C1 5969  13.659   6.289  10.495 -0.3520  0.2535 -0.0084
  379POPI    C2 5970  13.268   6.212  10.529 -0.3061 -0.0888 -0.1999
  379POPI    C3 5971  13.536   5.954  10.676 -0.1490  0.1371 -0.0819
  379POPI   PO4 5972  13.755   6.305  10.189 -0.0287 -0.0931  0.1898
  379POPI   GL1 5973  13.724   6.266   9.780 -0.2623 -0.1994 -0.2519
  379POPI   GL2 5974  14.059   6.057   9.712 -0.2264 -0.2610 -0.0750
  379POPI   C1A 5975  13.486   6.512   9.534  0.4214 -0.1885 -0.0647
  379POPI   D2A 5976  13.549   6.904   9.280  0.0754  0.1243 -0.2575
  379POPI   C3A 5977  13.710   7.246   9.371  0.0670  0.1797  0.2872
  379POPI   C4A 5978  14.161   7.313   9.510  0.1454 -0.2294  0.0050
  379POPI   C1B 5979  14.149   6.363   9.374 -0.4329 -0.2921  0.2262
  379POPI   C2B 5980  13.805   6.448   9.161  0.0994 -0.0435 -0.0205
  379POPI   C3B 5981  13.498   6.796   8.812 -0.0237 -0.2361 -0.0171
  379POPI   C4B 5982  13.283   7.121   8.809  0.3507 -0.0368 -0.1006
  380POPI    C1 5983  14.523  11.975   9.745  0.2441  0.1746  0.1651
  380POPI    C2 5984  14.523  12.044  10.139 -0.1341  0.0500  0.1913
  380POPI    C3 5985  14.202  12.138   9.920 -0.0199 -0.1066 -0.0474
  380POPI   PO4 5986  14.649  11.769   9.609 -0.3189 -0.1090 -0.1808
  380POPI   GL1 5987  14.606  11.458   9.321  0.0667  0.1670  0.0812
  380POPI   GL2 5988  14.438  11.109   9.181  0.2083 -0.1727  0.0311
  380POPI   C1A 5989  14.728  11.736   8.957 -0.2193 -0.0552  0.0897
  380POPI   D2A 5990  14.744  11.640   8.531 -0.0057 -0.0743  0.0392
  380POPI   C3A 5991  14.675  11.924   8.129  0.4588  0.0150  0.2015
  380POPI   C4A 5992  14.481  12.293   8.024  0.0199  0.1438  0.0634
  380POPI   C1B 5993  14.786  11.199   8.848 -0.1301 -0.0808  0.2487
  380POPI   C2B 5994  15.045  11.022   8.386  0.0763 -0.1895  0.3391
  380POPI   C3B 5995  15.051  11.374   8.085  0.2587 -0.2368 -0.2336
  380POPI   C4B 5996  15.287  11.132   7.770  0.0970  0.1039 -0.1533
  381POPI    C1 5997  13.706   8.999  10.209 -0.1210 -0.2530  0.1211
  381POPI    C2 5998  13.497   9.290  10.032 -0.0778 -0.0943  0.3273
  381POPI    C3 5999  13.510   9.268  10.431  0.2003 -0.1746  0.3161
  381POPI   PO4 6000  13.898   9.012  10.117 -0.0953 -0.0587  0.0316
  381POPI   GL1 6001  14.106   9.062   9.718  0.2290  0.3760 -0.2018
  381POPI   GL2 6002  13.784   9.074   9.566 -0.1281  0.2420  0.0191
  381POPI   C1A 6003  14.426   8.957   9.375  0.1471 -0.1997  0.0494
  381POPI   D2A 6004  14.812   8.968   9.238 -0.0433  0.1660 -0.0183
  381POPI   C3A 6005  14.769   8.943   8.823 -0.0398  0.1087 -0.1634
  381POPI   C4A 6006  14.915   8.828   8.372 -0.0893  0.1691  0.1058
  381POPI   C1B 6007  14.037   8.869   9.128  0.1417 -0.1215 -0.1788
  381POPI   C2B 6008  13.932   8.661   8.741  0.3242  0.0999  0.2133
  381POPI   C3B 6009  13.730   8.323   8.319 -0.0561 -0.0303  0.2281
  381POPI   C4B 6010  13.629   8.103   7.995  0.1852 -0.0499  0.0057
  382POPI    C1 6011   0.576  16.762  10.398  0.1309 -0.2491 -0.1408
  382POPI    C2 6012   0.332  16.469  10.517 -0.0392  0.0019  0.1432
  382POPI    C3 6013   0.182  16.826  10.418  0.1692  0.0078 -0.1647
  382POPI   PO4 6014   0.793  16.629  10.210 -0.0285 -0.1733  0.1604
  382POPI   GL1 6015   0.751  16.318   9.783 -0.0803 -0.0292  0.0735
  382POPI   GL2 6016   0.685  16.548   9.599  0.2706  0.0950  0.4096
  382POPI   C1A 6017   1.028  15.983   9.529  0.0226 -0.1949  0.0365
  382POPI   D2A 6018   0.939  15.751   9.170  0.1899 -0.0252 -0.4103
  382POPI   C3A 6019   1.088  15.662   8.734 -0.3033 -0.0340 -0.0690
  382POPI   C4A 6020   1.305  15.468   8.408  0.0322  0.1297  0.2330
  382POPI   C1B 6021   0.590  16.183   9.271 -0.0766 -0.1780  0.3053
  382POPI   C2B 6022   0.430  15.954   8.979 -0.0348 -0.0448  0.0715
  382POPI   C3B 6023   0.722  15.954   8.622  0.4665 -0.1379  0.0707
  382POPI   C4B 6024   0.996  15.987   8.335 -0.0389  0.1395 -0.1964
  383POPI    C1 6025   4.493  12.902  10.539 -0.1070  0.0928  0.1126
  383POPI    C2 6026   4.252  12.909  10.859  0.1166  0.1390  0.2825
  383POPI    C3 6027   4.624  13.055  10.885  0.0918  0.2679 -0.0374
  383POPI   PO4 6028   4.347  12.979  10.208 -0.2894 -0.1515  0.1432
  383POPI   GL1 6029   4.302  13.209   9.808 -0.2243  0.0790 -0.0968
  383POPI   GL2 6030   4.404  12.863   9.713 -0.0466 -0.0098  0.0117
  383POPI   C1A 6031   4.638  13.377   9.515  0.2153 -0.0207 -0.0402
  383POPI   D2A 6032   4.843  13.540   9.215 -0.0097  0.0402  0.2796
  383POPI   C3A 6033   4.883  13.830   8.937  0.2993  0.0048 -0.0425
  383POPI   C4A 6034   4.998  14.170   8.836  0.0924  0.1379 -0.0517
  383POPI   C1B 6035   4.385  12.968   9.342 -0.1084 -0.1980 -0.0006
  383POPI   C2B 6036   4.370  12.899   8.940 -0.1061 -0.0757  0.0244
  383POPI   C3B 6037   4.367  12.848   8.604 -0.0091  0.2399 -0.0111
  383POPI   C4B 6038   4.029  12.694   8.307 -0.2400 -0.0621 -0.0495
  384POPI    C1 6039  15.225  13.614   9.801  0.1102  0.0855 -0.0783
  384POPI    C2 6040  15.087  13.525  10.166  0.0017 -0.2296 -0.1922
  384POPI    C3 6041  15.469  13.633  10.117 -0.0189 -0.0487  0.0311
  384POPI   PO4 6042  15.000  13.616   9.690 -0.0059 -0.0195  0.1498
  384POPI   GL1 6043  14.734  13.494   9.267  0.0109 -0.1906 -0.2716
  384POPI   GL2 6044  14.830  13.650   8.952  0.0615  0.2141 -0.0631
  384POPI   C1A 6045  15.039  13.165   9.072  0.2315 -0.0582  0.1039
  384POPI   D2A 6046  15.358  13.162   8.758  0.2262 -0.0621  0.0660
  384POPI   C3A 6047  15.604  12.891   8.482  0.1227  0.1869  0.2507
  384POPI   C4A 6048  15.477  12.451   8.493  0.1841  0.2225  0.0946
  384POPI   C1B 6049  14.923  13.412   8.581  0.1888 -0.1813 -0.1065
  384POPI   C2B 6050  14.819  13.180   8.294  0.1912  0.0202 -0.2387
  384POPI   C3B 6051  14.583  12.718   8.302 -0.3690 -0.0269  0.0468
  384POPI   C4B 6052  14.288  12.478   8.492 -0.2298  0.2130  0.2470
  385POPI    C1 6053  14.186   8.291  10.378  0.2333  0.2025 -0.0416
  385POPI    C2 6054  13.837   8.486  10.402 -0.0864 -0.3375 -0.1209
  385POPI    C3 6055  14.144   8.594  10.636 -0.3529  0.0441  0.0631
  385POPI   PO4 6056  14.085   8.230  10.072 -0.1575  0.1506  0.1411
  385POPI   GL1 6057  13.800   8.105   9.715 -0.0579 -0.2891 -0.3139
  385POPI   GL2 6058  13.509   8.187   9.719 -0.2864 -0.0391  0.5773
  385POPI   C1A 6059  14.178   8.164   9.397 -0.1225  0.2093 -0.0532
  385POPI   D2A 6060  14.046   8.353   9.112 -0.0108  0.0572 -0.0037
  385POPI   C3A 6061  14.197   8.193   8.716 -0.0348 -0.2422 -0.4835
  385POPI   C4A 6062  14.215   8.242   8.307 -0.1310 -0.1882  0.0932
  385POPI   C1B 6063  13.545   8.479   9.345  0.1337  0.2612 -0.2832
  385POPI   C2B 6064  13.523   8.812   9.042 -0.3946  0.2682 -0.0901
  385POPI   C3B 6065  13.470   8.776   8.628 -0.1791  0.2653  0.2444
  385POPI   C4B 6066  13.243   8.841   8.209  0.1796  0.3520  0.1636
  386POPI    C1 6067   2.393  17.218  10.150 -0.2613  0.1290 -0.0651
  386POPI    C2 6068   2.508  16.930  10.403 -0.2063 -0.0387 -0.2778
  386POPI    C3 6069   2.455  17.304  10.535  0.0149 -0.0823 -0.0594
  386POPI   PO4 6070   2.424  17.138  10.014  0.0094  0.2546  0.3533
  386POPI   GL1 6071   2.394  16.980   9.607  0.1890  0.2653 -0.2964
  386POPI   GL2 6072   2.529  17.007   9.479  0.3285 -0.2194  0.2049
  386POPI   C1A 6073   1.955  16.869   9.410  0.1656 -0.1311  0.1688
  386POPI   D2A 6074   1.453  16.860   9.271  0.3817  0.4809 -0.2318
  386POPI   C3A 6075   1.285  16.654   8.928 -0.1610 -0.0740 -0.1375
  386POPI   C4A 6076   1.033  16.182   8.933 -0.0677 -0.1413 -0.1626
  386POPI   C1B 6077   2.379  16.804   9.102  0.1840  0.2863  0.2645
  386POPI   C2B 6078   2.266  16.900   8.620  0.0179 -0.0354  0.1017
  386POPI   C3B 6079   1.928  17.048   8.460  0.0166 -0.1572 -0.0111
  386POPI   C4B 6080   1.625  17.182   8.222  0.2332  0.0776  0.3388
  387POPI    C1 6081  15.961  13.869  10.040  0.0457 -0.0778 -0.0520
  387POPI    C2 6082  15.984  14.047   9.682  0.0993 -0.0977 -0.0587
  387POPI    C3 6083  15.644  14.064   9.893  0.0996  0.0000 -0.0656
  387POPI   PO4 6084  15.992  13.661  10.023  0.1552  0.0225  0.1216
  387POPI   GL1 6085  16.147  13.532   9.478 -0.0379  0.2659 -0.2301
  387POPI   GL2 6086  16.366  13.590   9.756 -0.1310 -0.1243  0.0330
  387POPI   C1A 6087  15.973  13.831   9.267 -0.3269  0.2566  0.0554
  387POPI   D2A 6088  15.771  13.899   8.865 -0.3508 -0.1595 -0.1576
  387POPI   C3A 6089  15.951  14.019   8.461  0.0158  0.3557 -0.3443
  387POPI   C4A 6090  16.074  13.809   8.175  0.3042 -0.2891  0.1377
  387POPI   C1B 6091  16.736  13.269   9.621 -0.2166 -0.0839 -0.3867
  387POPI   C2B 6092  16.787  12.957   9.278 -0.0206  0.1176 -0.2163
  387POPI   C3B 6093  17.006  12.990   8.954  0.0196 -0.1543  0.0035
  387POPI   C4B 6094  17.181  13.070   8.710  0.1977  0.0668 -0.1330
  388POPI    C1 6095  14.658  16.501  10.237 -0.1348 -0.0966  0.0124
  388POPI    C2 6096  14.746  16.130  10.359  0.1107  0.0035  0.1472
  388POPI    C3 6097  14.838  16.443  10.590 -0.4296  0.1293  0.2043
  388POPI   PO4 6098  14.699  16.496   9.989  0.1232  0.2511 -0.0986
  388POPI   GL1 6099  14.582  16.543   9.624 -0.2050 -0.0638  0.0267
  388POPI   GL2 6100  14.688  16.262   9.516 -0.3246  0.2421  0.0894
  388POPI   C1A 6101  14.796  16.718   9.318 -0.1024 -0.0329  0.2974
  388POPI   D2A 6102  14.997  16.812   8.996 -0.0538 -0.0905 -0.0514
  388POPI   C3A 6103  14.917  16.903   8.520  0.1594 -0.1293  0.3305
  388POPI   C4A 6104  14.902  16.808   8.089  0.0330  0.1442  0.0067
  388POPI   C1B 6105  14.638  16.374   8.957 -0.0376 -0.0780 -0.2780
  388POPI   C2B 6106  14.645  16.379   8.490  0.0604 -0.0571 -0.1497
  388POPI   C3B 6107  14.507  16.143   8.077 -0.1231  0.0539  0.3341
  388POPI   C4B 6108  14.412  16.074   7.661  0.0151  0.0090  0.0922
  389POPI    C1 6109   1.958   0.892  10.407 -0.2582 -0.1104 -0.0484
  389POPI    C2 6110   1.648   0.788  10.638  0.0458  0.0196  0.4319
  389POPI    C3 6111   1.835   1.136  10.699  0.2060  0.0038  0.0588
  389POPI   PO4 6112   1.863   0.848  10.178 -0.0644  0.2304 -0.2589
  389POPI   GL1 6113   1.613   0.963   9.793 -0.0896  0.1064  0.2143
  389POPI   GL2 6114   1.846   0.824   9.631  0.1880 -0.2056 -0.0816
  389POPI   C1A 6115   1.591   1.250   9.514 -0.1574 -0.0795  0.0608
  389POPI   D2A 6116   1.551   1.414   9.127 -0.1038 -0.0460  0.2502
  389POPI   C3A 6117   1.642   1.661   8.805  0.3190  0.1189  0.0438
  389POPI   C4A 6118   1.822   1.521   8.362  0.2108  0.2588  0.0293
  389POPI   C1B 6119   1.699   0.893   9.198 -0.0765  0.1253  0.0034
  389POPI   C2B 6120   1.549   0.966   8.802 -0.0729 -0.2136  0.2293
  389POPI   C3B 6121   1.495   1.070   8.492  0.0295  0.1894  0.3499
  389POPI   C4B 6122   1.256   1.205   8.131 -0.0233 -0.2689  0.3072
  390POPI    C1 6123  16.299  11.991  10.021 -0.0027 -0.0098 -0.0089
  390POPI    C2 6124  16.429  12.047  10.395  0.0190 -0.0710 -0.0071
  390POPI    C3 6125  16.061  11.906  10.330 -0.1133  0.2691 -0.0143
  390POPI   PO4 6126  16.542  11.857   9.927 -0.1168  0.1142  0.3295
  390POPI   GL1 6127  16.598  11.745   9.613 -0.0266 -0.2073 -0.5398
  390POPI   GL2 6128  16.776  11.972   9.367 -0.3992  0.1717 -0.2585
  390POPI   C1A 6129  16.559  11.427   9.360 -0.0725 -0.2177  0.1178
  390POPI   D2A 6130  16.598  11.474   8.928  0.0656  0.0980  0.0520
  390POPI   C3A 6131  16.308  11.501   8.565  0.0040  0.0236 -0.1662
  390POPI   C4A 6132  16.039  11.404   8.266  0.5197  0.0333  0.5903
  390POPI   C1B 6133  16.825  12.005   9.016 -0.3837 -0.3251  0.3374
  390POPI   C2B 6134  16.778  12.082   8.595  0.2011 -0.1755  0.2078
  390POPI   C3B 6135  16.910  11.928   8.127 -0.1964 -0.2315  0.0372
  390POPI   C4B 6136  16.915  11.816   7.639  0.0883  0.0296 -0.3774
  391POPI    C1 6137  16.622  12.593  10.225 -0.2111  0.0589  0.2169
  391POPI    C2 6138  16.483  12.915  10.417 -0.0784  0.3048 -0.0900
  391POPI    C3 6139  16.820  12.739  10.540 -0.0821  0.3604  0.0001
  391POPI   PO4 6140  16.564  12.632   9.962 -0.0518  0.0636 -0.1502
  391POPI   GL1 6141  16.840  12.620   9.626  0.0700  0.1270 -0.1461
  391POPI   GL2 6142  16.699  12.482   9.385  0.0123 -0.0034  0.0138
  391POPI   C1A 6143  17.220  12.906   9.568  0.0965  0.1762  0.0749
  391POPI   D2A 6144  17.452  13.251   9.514  0.1078  0.3662 -0.3242
  391POPI   C3A 6145  17.198  13.681   9.590  0.1488  0.2569 -0.0617
  391POPI   C4A 6146  16.863  13.976   9.708 -0.0624  0.0284  0.0422
  391POPI   C1B 6147  17.125  12.425   9.274  0.0944  0.0068 -0.2021
  391POPI   C2B 6148  17.325  12.014   9.063 -0.0753 -0.0357 -0.0604
  391POPI   C3B 6149  17.571  11.756   8.838 -0.0680 -0.4312 -0.1896
  391POPI   C4B 6150  17.764  11.675   8.512 -0.1656 -0.2090 -0.0246
  392POPI    C1 6151  17.435  12.218  10.588 -0.1127 -0.0750  0.0563
  392POPI    C2 6152  17.398  12.529  10.837  0.0104  0.0031 -0.0219
  392POPI    C3 6153  17.409  12.156  10.982 -0.2110  0.0297  0.0666
  392POPI   PO4 6154  17.647  12.361  10.426 -0.0188 -0.0974 -0.2313
  392POPI   GL1 6155  17.841  12.421  10.003 -0.1461  0.2155  0.1165
  392POPI   GL2 6156  18.075  12.478   9.875 -0.1190  0.2723 -0.1758
  392POPI   C1A 6157  17.860  11.934   9.866 -0.2174 -0.1394  0.0842
  392POPI   D2A 6158  18.065  11.464   9.754 -0.0404 -0.2206  0.0633
  392POPI   C3A 6159  18.074  11.406   9.341 -0.0633 -0.1415  0.4117
  392POPI   C4A 6160  17.996  11.463   8.975 -0.1462 -0.3130 -0.0530
  392POPI   C1B 6161  17.997  12.264   9.567 -0.1167  0.1821  0.0131
  392POPI   C2B 6162  18.105  12.511   9.248 -0.0659  0.1896  0.0661
  392POPI   C3B 6163  18.092  12.460   8.785 -0.0464 -0.2460 -0.1905
  392POPI   C4B 6164  18.085  12.592   8.295  0.0385  0.0168 -0.0724
  393POPI    C1 6165   6.243   0.329   9.925 -0.1384  0.1480  0.0503
  393POPI    C2 6166   6.476   0.318  10.250  0.0797  0.2235 -0.1012
  393POPI    C3 6167   6.141   0.099  10.237  0.2807 -0.0978  0.0129
  393POPI   PO4 6168   6.300   0.283   9.692  0.1831 -0.0551  0.2583
  393POPI   GL1 6169   6.149   0.145   9.324  0.2444  0.3709 -0.2672
  393POPI   GL2 6170   6.224   0.068   9.016 -0.0181  0.3572 -0.0333
  393POPI   C1A 6171   5.714   0.163   9.188 -0.1707  0.0478 -0.1989
  393POPI   D2A 6172   5.425   0.269   8.863 -0.2862  0.3332  0.0329
  393POPI   C3A 6173   5.396   0.289   8.481 -0.0532  0.3585 -0.0071
  393POPI   C4A 6174   5.543   0.373   8.075  0.0631  0.2762 -0.2297
  393POPI   C1B 6175   5.954   0.100   8.730 -0.2479  0.0566  0.4739
  393POPI   C2B 6176   5.805   0.068   8.367  0.1152 -0.1246  0.2025
  393POPI   C3B 6177   5.665  -0.077   7.982 -0.0618  0.2445  0.1589
  393POPI   C4B 6178   5.330  -0.080   7.646  0.1096  0.2033 -0.2542
  394POPI    C1 6179  17.482   3.697  10.360 -0.3136  0.0301 -0.0759
  394POPI    C2 6180  17.594   3.383  10.581 -0.1711  0.1394  0.0092
  394POPI    C3 6181  17.283   3.352  10.331 -0.2113 -0.0431  0.0806
  394POPI   PO4 6182  17.705   3.825  10.284 -0.0467  0.1330  0.3018
  394POPI   GL1 6183  17.851   3.924   9.928  0.0481 -0.0290  0.1621
  394POPI   GL2 6184  18.207   3.980   9.799 -0.1270  0.0202  0.2187
  394POPI   C1A 6185  17.703   3.939   9.581  0.1378 -0.2877  0.0524
  394POPI   D2A 6186  17.573   4.049   9.184  0.2778  0.0994  0.2417
  394POPI   C3A 6187  17.501   3.829   8.922  0.0333 -0.2698  0.2286
  394POPI   C4A 6188  17.456   3.683   8.536  0.2017 -0.1139  0.1806
  394POPI   C1B 6189  18.192   3.785   9.507  0.2566 -0.0003  0.1335
  394POPI   C2B 6190  18.118   3.508   9.217  0.1262  0.0548 -0.0339
  394POPI   C3B 6191  18.005   3.372   8.875  0.1448 -0.0978 -0.0762
  394POPI   C4B 6192  17.798   3.325   8.448  0.1265  0.0648  0.2406
  395POPI    C1 6193   9.856   4.562  10.232 -0.2191 -0.2618  0.1357
  395POPI    C2 6194   9.821   4.697  10.607  0.1181 -0.0040  0.0797
  395POPI    C3 6195   9.798   4.305  10.533  0.1760 -0.0681  0.3861
  395POPI   PO4 6196   9.905   4.866  10.141  0.0426 -0.2522 -0.0320
  395POPI   GL1 6197   9.744   5.107   9.750  0.1895 -0.0680 -0.3922
  395POPI   GL2 6198   9.486   4.942   9.903 -0.1240  0.1030  0.3855
  395POPI   C1A 6199   9.628   4.976   9.343 -0.1348  0.0394 -0.1916
  395POPI   D2A 6200   9.559   4.839   8.905  0.0336  0.1623 -0.1033
  395POPI   C3A 6201   9.243   5.012   8.552 -0.2191  0.5003 -0.1478
  395POPI   C4A 6202   8.834   5.091   8.487  0.0803  0.1138 -0.0631
  395POPI   C1B 6203   9.309   4.546   9.602 -0.0983 -0.5161 -0.1811
  395POPI   C2B 6204   9.274   4.448   9.126 -0.3209  0.1126  0.1784
  395POPI   C3B 6205   9.350   4.417   8.696  0.4493 -0.2428  0.0152
  395POPI   C4B 6206   9.405   4.288   8.380  0.1635 -0.0994 -0.1340
  396POPI    C1 6207  14.924  17.394  10.283  0.0004  0.2463 -0.1975
  396POPI    C2 6208  15.055  17.287  10.645 -0.0292  0.0803 -0.2349
  396POPI    C3 6209  14.851  17.628  10.599 -0.1054  0.0565 -0.0796
  396POPI   PO4 6210  15.187  17.291  10.097  0.0125  0.1737  0.0515
  396POPI   GL1 6211  15.267  17.003   9.853  0.1821  0.1539  0.2344
  396POPI   GL2 6212  15.017  16.752   9.775  0.1868  0.2143 -0.1038
  396POPI   C1A 6213  15.302  17.018   9.324  0.0930  0.1316 -0.3173
  396POPI   D2A 6214  15.554  17.074   8.975  0.0892 -0.0003  0.0624
  396POPI   C3A 6215  15.369  17.103   8.613  0.1388 -0.1118 -0.0526
  396POPI   C4A 6216  15.185  17.197   8.180 -0.0415 -0.0903 -0.2514
  396POPI   C1B 6217  15.315  16.583   9.505  0.2549  0.1334 -0.0239
  396POPI   C2B 6218  15.465  16.589   9.072 -0.2398 -0.2630 -0.1993
  396POPI   C3B 6219  15.575  16.619   8.710  0.3868  0.0508  0.0128
  396POPI   C4B 6220  15.578  16.492   8.243  0.0151  0.0624  0.0031
  397POPI    C1 6221   2.032   5.470  10.001 -0.0597  0.0136 -0.1425
  397POPI    C2 6222   2.260   5.309  10.287  0.0685  0.1530 -0.1646
  397POPI    C3 6223   2.124   5.081   9.988  0.0298  0.0313 -0.0552
  397POPI   PO4 6224   2.131   5.643   9.866  0.1247  0.1905  0.0448
  397POPI   GL1 6225   2.031   5.633   9.422 -0.1521  0.1904 -0.2769
  397POPI   GL2 6226   2.143   6.030   9.473  0.2198 -0.0846 -0.2513
  397POPI   C1A 6227   2.021   5.324   9.115  0.1680 -0.2006 -0.2679
  397POPI   D2A 6228   1.913   5.182   8.803  0.2063 -0.0127  0.0948
  397POPI   C3A 6229   2.048   5.270   8.472  0.0248 -0.1343  0.0258
  397POPI   C4A 6230   2.008   5.455   8.146 -0.0907  0.0003 -0.0064
  397POPI   C1B 6231   2.183   5.831   8.970 -0.2564  0.1379  0.0930
  397POPI   C2B 6232   2.262   5.637   8.697  0.0835  0.2146  0.1421
  397POPI   C3B 6233   2.486   5.666   8.286 -0.0942 -0.0707  0.0573
  397POPI   C4B 6234   2.899   5.705   8.109 -0.0314 -0.1432 -0.1038
  398POPI    C1 6235   2.244   6.457  10.137  0.1260 -0.0684 -0.1638
  398POPI    C2 6236   2.044   6.138  10.270  0.1467 -0.1400 -0.3034
  398POPI    C3 6237   2.343   6.291  10.487 -0.0546 -0.0347 -0.0956
  398POPI   PO4 6238   1.995   6.651  10.074  0.0865 -0.0010  0.1381
  398POPI   GL1 6239   2.086   6.836   9.729  0.2668 -0.3937 -0.2255
  398POPI   GL2 6240   2.216   6.549   9.596 -0.0958  0.0180  0.2115
  398POPI   C1A 6241   1.801   6.961   9.482  0.3269  0.0944 -0.2507
  398POPI   D2A 6242   1.729   7.178   9.153 -0.1731  0.0958 -0.2297
  398POPI   C3A 6243   1.371   7.258   8.891 -0.0787 -0.0562  0.1136
  398POPI   C4A 6244   1.047   7.147   8.678  0.0754 -0.0462  0.1809
  398POPI   C1B 6245   2.283   6.355   9.122  0.0417  0.0600  0.2112
  398POPI   C2B 6246   2.268   6.219   8.638  0.0617 -0.0385  0.0462
  398POPI   C3B 6247   2.074   5.945   8.266  0.2105  0.0608 -0.0580
  398POPI   C4B 6248   2.106   5.930   7.934 -0.1324  0.2587 -0.1859
  399POPI    C1 6249  11.813  15.399   9.761  0.2791  0.1637  0.3809
  399POPI    C2 6250  11.873  15.078   9.993  0.2442 -0.0232  0.1360
  399POPI    C3 6251  11.529  15.281  10.017  0.1745 -0.1399  0.1316
  399POPI   PO4 6252  11.856  15.326   9.526 -0.3185 -0.4091  0.0480
  399POPI   GL1 6253  11.991  15.430   9.172 -0.1126 -0.1030  0.3012
  399POPI   GL2 6254  11.826  15.705   9.172 -0.0638 -0.0335 -0.0829
  399POPI   C1A 6255  12.283  15.276   8.909 -0.3546  0.0684  0.4281
  399POPI   D2A 6256  12.484  15.173   8.637 -0.0094  0.1567  0.1108
  399POPI   C3A 6257  12.581  15.458   8.306 -0.0001 -0.0776  0.4787
  399POPI   C4A 6258  12.671  15.546   7.899  0.0452  0.0632  0.0850
  399POPI   C1B 6259  11.721  16.029   8.909  0.1990 -0.0020  0.0391
  399POPI   C2B 6260  11.697  16.061   8.531 -0.3822 -0.3699 -0.0711
  399POPI   C3B 6261  11.503  16.389   8.461  0.0717 -0.1203 -0.1444
  399POPI   C4B 6262  11.408  16.574   8.159 -0.2825  0.1691 -0.2833
  400POPI    C1 6263   8.598   4.629  10.330  0.3291  0.1816 -0.1854
  400POPI    C2 6264   8.768   4.268  10.308  0.0281  0.0012  0.2898
  400POPI    C3 6265   8.538   4.361  10.622 -0.2986  0.4348 -0.0662
  400POPI   PO4 6266   8.838   4.732  10.250 -0.1613 -0.0984 -0.3387
  400POPI   GL1 6267   8.883   4.717   9.845  0.4437  0.0075 -0.2485
  400POPI   GL2 6268   8.829   5.088   9.736  0.1181 -0.1013 -0.0839
  400POPI   C1A 6269   8.821   4.488   9.415 -0.3111  0.0478  0.0847
  400POPI   D2A 6270   8.484   4.201   9.305  0.0731  0.1882 -0.1324
  400POPI   C3A 6271   8.356   4.263   8.888  0.1502  0.2940  0.0521
  400POPI   C4A 6272   8.517   4.122   8.521  0.3151  0.0458  0.0986
  400POPI   C1B 6273   9.057   4.936   9.424 -0.2210 -0.2458 -0.1614
  400POPI   C2B 6274   9.011   4.849   8.977 -0.0246 -0.2739 -0.1417
  400POPI   C3B 6275   8.879   4.426   8.845  0.0057 -0.2411 -0.0904
  400POPI   C4B 6276   9.046   4.037   8.556  0.2393 -0.0584  0.2654
  401POPI    C1 6277  15.899   9.710  10.409  0.3299 -0.3521 -0.2654
  401POPI    C2 6278  16.047   9.501  10.717 -0.0408  0.1736  0.2947
  401POPI    C3 6279  15.657   9.480  10.630  0.0213  0.2045 -0.0017
  401POPI   PO4 6280  15.987   9.631  10.211 -0.1191  0.2077 -0.2643
  401POPI   GL1 6281  15.986   9.419   9.902 -0.0974  0.0920  0.1036
  401POPI   GL2 6282  15.991   9.161   9.925 -0.2653  0.1004  0.0592
  401POPI   C1A 6283  16.179   9.590   9.561 -0.1346 -0.1710  0.1451
  401POPI   D2A 6284  16.533   9.728   9.308  0.1674 -0.0775 -0.0036
  401POPI   C3A 6285  16.748   9.739   8.945 -0.2149  0.0985 -0.2369
  401POPI   C4A 6286  16.982   9.507   8.674  0.1005  0.0060  0.0696
  401POPI   C1B 6287  15.885   9.130   9.482  0.1616 -0.2238  0.0658
  401POPI   C2B 6288  16.069   8.771   9.185 -0.2376 -0.1165 -0.2393
  401POPI   C3B 6289  16.250   8.441   8.830  0.2741  0.1848  0.0408
  401POPI   C4B 6290  16.317   8.296   8.399  0.3365  0.1383 -0.0369
  402POPI    C1 6291   5.730   3.439  10.377 -0.0755  0.0451  0.3031
  402POPI    C2 6292   5.661   3.053  10.299  0.3636  0.0262 -0.0288
  402POPI    C3 6293   5.807   3.162  10.655 -0.1308 -0.0631  0.2109
  402POPI   PO4 6294   5.521   3.507  10.082 -0.0412  0.0050 -0.0538
  402POPI   GL1 6295   5.123   3.391   9.923  0.0674  0.1953  0.1919
  402POPI   GL2 6296   5.162   2.992   9.930  0.0940  0.1016 -0.1618
  402POPI   C1A 6297   5.171   3.355   9.455  0.1089 -0.3667 -0.4145
  402POPI   D2A 6298   5.349   3.356   9.013 -0.5980 -0.1316 -0.1270
  402POPI   C3A 6299   5.119   3.438   8.623  0.2798 -0.1375 -0.0421
  402POPI   C4A 6300   4.925   3.253   8.276 -0.4518 -0.1609  0.1329
  402POPI   C1B 6301   5.153   2.661   9.631 -0.0910 -0.0975  0.2876
  402POPI   C2B 6302   5.208   2.814   9.239 -0.1227 -0.0258  0.0832
  402POPI   C3B 6303   5.113   2.949   8.863 -0.3104 -0.0737  0.0921
  402POPI   C4B 6304   5.156   2.790   8.490  0.3141 -0.0316  0.1406
  403POPI    C1 6305   4.059  13.849   9.612 -0.0223  0.0694 -0.0967
  403POPI    C2 6306   3.914  14.083   9.902  0.1430 -0.0064  0.0493
  403POPI    C3 6307   4.183  14.228   9.644  0.1554 -0.0004  0.0657
  403POPI   PO4 6308   4.058  13.596   9.806  0.2220 -0.3303  0.0613
  403POPI   GL1 6309   3.885  13.094   9.593 -0.0857  0.1424  0.3876
  403POPI   GL2 6310   3.840  13.357   9.443 -0.1434  0.4845  0.0993
  403POPI   C1A 6311   3.760  12.936   9.180 -0.2432 -0.1888 -0.2282
  403POPI   D2A 6312   3.922  13.105   8.708  0.0754  0.1441 -0.1425
  403POPI   C3A 6313   4.087  13.568   8.615 -0.3394  0.1029  0.1982
  403POPI   C4A 6314   3.947  13.903   8.403  0.0730  0.0125  0.0488
  403POPI   C1B 6315   4.122  13.292   9.130 -0.3758 -0.0680  0.0729
  403POPI   C2B 6316   4.501  13.335   8.817 -0.2146 -0.1548  0.1836
  403POPI   C3B 6317   4.747  13.464   8.450  0.2333 -0.2536  0.1109
  403POPI   C4B 6318   4.771  13.430   7.989 -0.3260 -0.2376  0.0301
  404POPI    C1 6319  12.531  17.884  10.359 -0.1024 -0.0879 -0.1139
  404POPI    C2 6320  12.140  17.856  10.439 -0.0872 -0.0868 -0.0389
  404POPI    C3 6321  12.305  18.214  10.372 -0.0718 -0.0728  0.0713
  404POPI   PO4 6322  12.520  17.740  10.198 -0.1788  0.0902 -0.2596
  404POPI   GL1 6323  12.752  17.844   9.832  0.1287  0.3736 -0.0879
  404POPI   GL2 6324  13.028  17.789   9.664 -0.0435 -0.1286  0.1666
  404POPI   C1A 6325  12.535  18.157   9.530 -0.1622 -0.0605  0.0500
  404POPI   D2A 6326  12.264  17.984   9.264 -0.0460  0.2056  0.0499
  404POPI   C3A 6327  12.406  17.868   8.904  0.2371  0.1571 -0.1834
  404POPI   C4A 6328  12.252  17.914   8.362 -0.1275 -0.0348  0.1834
  404POPI   C1B 6329  13.133  17.434   9.426  0.2683  0.1308 -0.0797
  404POPI   C2B 6330  13.354  17.207   9.179 -0.1258 -0.0485 -0.2301
  404POPI   C3B 6331  13.644  16.941   9.265 -0.1622 -0.1284  0.2087
  404POPI   C4B 6332  13.675  16.566   9.354 -0.0937  0.0759  0.2437
  405POPI    C1 6333   3.094  11.005   9.969  0.1022 -0.1804 -0.0697
  405POPI    C2 6334   3.370  10.859  10.219  0.0854  0.1343  0.1371
  405POPI    C3 6335   3.414  10.813   9.825  0.0742 -0.4319  0.1947
  405POPI   PO4 6336   2.823  10.987  10.104 -0.0864  0.1140  0.2755
  405POPI   GL1 6337   2.498  10.798   9.835  0.1170  0.1255  0.0366
  405POPI   GL2 6338   2.839  10.751   9.690 -0.1610  0.0301 -0.1856
  405POPI   C1A 6339   2.464  11.102   9.500 -0.0700 -0.2213  0.0121
  405POPI   D2A 6340   2.317  11.332   9.234  0.1927 -0.0163  0.0097
  405POPI   C3A 6341   2.061  11.240   8.904 -0.1470 -0.0442 -0.1309
  405POPI   C4A 6342   1.762  11.063   8.747 -0.1069  0.0520  0.0094
  405POPI   C1B 6343   2.760  10.851   9.243 -0.0860 -0.1197 -0.1334
  405POPI   C2B 6344   2.712  10.654   8.808 -0.2485  0.0915  0.0623
  405POPI   C3B 6345   2.874  10.510   8.412  0.0800  0.0488  0.0032
  405POPI   C4B 6346   3.128  10.648   8.024  0.2422  0.1964  0.0342
  406POPI    C1 6347   4.717  12.446  10.233 -0.0190 -0.1044  0.0064
  406POPI    C2 6348   4.812  12.088  10.081 -0.2809 -0.1677 -0.0129
  406POPI    C3 6349   4.909  12.177  10.459 -0.0940 -0.2068 -0.0509
  406POPI   PO4 6350   4.507  12.539  10.074  0.2189 -0.0334  0.0099
  406POPI   GL1 6351   4.507  12.384   9.622 -0.0660  0.3394 -0.0960
  406POPI   GL2 6352   4.830  12.569   9.660  0.0868  0.2610 -0.0088
  406POPI   C1A 6353   4.668  12.120   9.408 -0.1032  0.0391  0.0310
  406POPI   D2A 6354   5.082  12.195   9.119  0.0406  0.3105 -0.1200
  406POPI   C3A 6355   5.154  12.220   8.704  0.1252  0.1535 -0.0076
  406POPI   C4A 6356   5.132  12.346   8.254 -0.4684 -0.2989 -0.1089
  406POPI   C1B 6357   4.755  12.556   9.201 -0.0667 -0.1475 -0.1435
  406POPI   C2B 6358   4.766  12.529   8.710 -0.0982 -0.2385 -0.1152
  406POPI   C3B 6359   4.561  12.508   8.266  0.2218  0.3082 -0.2621
  406POPI   C4B 6360   4.344  12.849   7.921  0.0735 -0.1519  0.0571
  407POPI    C1 6361  16.929   6.446  10.546 -0.0695  0.0594 -0.0616
  407POPI    C2 6362  16.800   6.543  10.912 -0.0410 -0.3174  0.0530
  407POPI    C3 6363  17.170   6.643  10.798 -0.0453 -0.2098  0.1305
  407POPI   PO4 6364  16.835   6.212  10.472 -0.1613  0.4659  0.1965
  407POPI   GL1 6365  16.777   6.328  10.037  0.0960  0.1770  0.1719
  407POPI   GL2 6366  16.469   6.318  10.021  0.1976  0.1378 -0.1945
  407POPI   C1A 6367  16.753   6.242   9.583 -0.1470  0.2931 -0.0504
  407POPI   D2A 6368  16.680   6.228   9.171  0.0904  0.0630  0.1666
  407POPI   C3A 6369  16.602   6.526   8.843  0.0370 -0.0619  0.1443
  407POPI   C4A 6370  16.718   6.645   8.396  0.1756 -0.0806  0.3599
  407POPI   C1B 6371  16.332   6.561   9.647  0.2694  0.1326 -0.0853
  407POPI   C2B 6372  16.344   6.656   9.228 -0.0472 -0.1936 -0.1605
  407POPI   C3B 6373  16.145   6.847   8.823 -0.2242  0.3038  0.1027
  407POPI   C4B 6374  16.065   6.864   8.485 -0.2649 -0.1402 -0.2382
  408POPI    C1 6375   5.722  10.572  10.364  0.0555  0.0063 -0.0843
  408POPI    C2 6376   6.019  10.361  10.528  0.1445  0.1497 -0.0593
  408POPI    C3 6377   5.640  10.296  10.641  0.1601 -0.0700 -0.1292
  408POPI   PO4 6378   5.877  10.646  10.099 -0.0204  0.0609 -0.3490
  408POPI   GL1 6379   5.955  10.696   9.701 -0.3648 -0.2215 -0.1442
  408POPI   GL2 6380   5.895  10.357   9.693  0.0730 -0.0906 -0.1497
  408POPI   C1A 6381   5.633  10.766   9.458  0.2267  0.0088 -0.1105
  408POPI   D2A 6382   5.358  11.158   9.326  0.0839  0.0051 -0.3810
  408POPI   C3A 6383   5.393  11.193   8.890 -0.0429  0.1829 -0.0583
  408POPI   C4A 6384   5.464  11.396   8.503  0.0866 -0.0593 -0.0187
  408POPI   C1B 6385   5.987  10.482   9.184 -0.1322  0.1230 -0.1174
  408POPI   C2B 6386   6.082  10.533   8.844 -0.1695 -0.2387 -0.1149
  408POPI   C3B 6387   6.244  10.785   8.487  0.1947  0.0695 -0.1914
  408POPI   C4B 6388   6.129  10.792   8.107 -0.0284  0.2931  0.0285
  409POPI    C1 6389  15.999   8.110  11.360  0.0859 -0.1822  0.1705
  409POPI    C2 6390  16.370   8.131  11.212  0.0474 -0.2047  0.0706
  409POPI    C3 6391  16.268   8.352  11.529  0.0580  0.0361 -0.0911
  409POPI   PO4 6392  15.853   7.987  11.028  0.0073 -0.2222 -0.0677
  409POPI   GL1 6393  15.945   8.024  10.554  0.0642 -0.3195 -0.0707
  409POPI   GL2 6394  15.852   8.287  10.302  0.1209 -0.0393 -0.3549
  409POPI   C1A 6395  15.783   7.723  10.215  0.1255  0.2411  0.1949
  409POPI   D2A 6396  15.766   7.512   9.802 -0.2200  0.1012  0.0857
  409POPI   C3A 6397  15.817   7.548   9.378  0.2806  0.1283  0.0317
  409POPI   C4A 6398  15.815   7.886   9.027 -0.2679 -0.0954  0.0320
  409POPI   C1B 6399  15.870   8.131   9.875 -0.1652  0.0380 -0.0295
  409POPI   C2B 6400  16.005   8.276   9.448  0.1102  0.3812  0.0678
  409POPI   C3B 6401  16.321   8.295   9.280  0.1052  0.1176 -0.2612
  409POPI   C4B 6402  16.749   8.290   9.394  0.1913  0.0663 -0.2688
  410POPI    C1 6403  11.181   3.244  10.418 -0.1791 -0.0409 -0.0568
  410POPI    C2 6404  11.451   3.484  10.590 -0.2429  0.0950 -0.1439
  410POPI    C3 6405  11.116   3.387  10.785 -0.1342 -0.0712 -0.0370
  410POPI   PO4 6406  11.129   3.374  10.137  0.1139  0.0140  0.2021
  410POPI   GL1 6407  11.288   3.604   9.806 -0.0785  0.0655 -0.0140
  410POPI   GL2 6408  11.150   3.845   9.886 -0.0848  0.2688 -0.0685
  410POPI   C1A 6409  10.928   3.433   9.542  0.1341  0.1995  0.0717
  410POPI   D2A 6410  10.695   3.252   9.300  0.0070  0.0611 -0.1691
  410POPI   C3A 6411  10.719   3.149   8.941  0.0757  0.0274 -0.1575
  410POPI   C4A 6412  10.787   2.873   8.594 -0.0183  0.0004  0.2016
  410POPI   C1B 6413  10.871   3.948   9.558 -0.0905  0.1946  0.0669
  410POPI   C2B 6414  10.575   3.766   9.355  0.1226 -0.0732 -0.1389
  410POPI   C3B 6415  10.606   3.705   8.993  0.2177  0.1078  0.2922
  410POPI   C4B 6416  10.517   3.538   8.628  0.0090  0.0009 -0.2047
  411POPI    C1 6417   0.332  10.196  10.597  0.1601 -0.1779  0.0332
  411POPI    C2 6418   0.019  10.352  10.792 -0.0936 -0.3530 -0.2252
  411POPI    C3 6419   0.261  10.093  10.977  0.1454  0.0925  0.1054
  411POPI   PO4 6420   0.235  10.174  10.295 -0.0460  0.1188 -0.0125
  411POPI   GL1 6421   0.414   9.997   9.952 -0.1148  0.2097 -0.0607
  411POPI   GL2 6422   0.273   9.675  10.138  0.3627 -0.1055  0.2421
  411POPI   C1A 6423   0.263  10.080   9.510  0.0611  0.0483  0.0998
  411POPI   D2A 6424   0.283   9.959   9.025 -0.2259 -0.3606 -0.0042
  411POPI   C3A 6425  -0.045  10.131   8.828 -0.0735 -0.4452 -0.1702
  411POPI   C4A 6426  -0.310  10.235   8.881 -0.0440  0.2910  0.0736
  411POPI   C1B 6427   0.002   9.708   9.665  0.4631  0.0765  0.0537
  411POPI   C2B 6428  -0.256   9.596   9.338  0.2508 -0.4675  0.0589
  411POPI   C3B 6429  -0.299   9.705   8.927  0.0610 -0.1313  0.2688
  411POPI   C4B 6430  -0.033   9.707   8.545 -0.2898  0.0444  0.1570
  412POPI    C1 6431   3.744  12.259  10.605  0.1239  0.0794  0.0292
  412POPI    C2 6432   4.035  11.988  10.651 -0.0986 -0.1351  0.2046
  412POPI    C3 6433   3.914  12.207  10.963 -0.3378 -0.2696  0.2090
  412POPI   PO4 6434   3.792  12.409  10.298 -0.0527 -0.1054 -0.0037
  412POPI   GL1 6435   3.643  12.381   9.860  0.0015  0.1904  0.1000
  412POPI   GL2 6436   3.985  12.180   9.871  0.3376  0.0959  0.2823
  412POPI   C1A 6437   3.519  12.657   9.537 -0.0150  0.2433  0.0110
  412POPI   D2A 6438   3.296  12.722   9.223 -0.3990 -0.3949  0.1250
  412POPI   C3A 6439   3.180  12.443   8.943 -0.1540 -0.2071 -0.1310
  412POPI   C4A 6440   2.983  12.116   8.920  0.2137 -0.1918  0.1463
  412POPI   C1B 6441   4.008  12.086   9.457  0.3148 -0.0102 -0.0747
  412POPI   C2B 6442   4.271  11.907   9.115  0.0607 -0.0634 -0.1235
  412POPI   C3B 6443   4.648  12.070   8.872 -0.0790 -0.1675  0.1494
  412POPI   C4B 6444   4.798  12.036   8.447 -0.2122 -0.0686 -0.0167
  413POPI    C1 6445  15.889  10.782  10.319  0.0027 -0.0780  0.1562
  413POPI    C2 6446  15.796  11.077  10.572 -0.0035 -0.0094  0.0742
  413POPI    C3 6447  15.554  10.761  10.537  0.0849 -0.1016  0.2812
  413POPI   PO4 6448  16.081  11.000  10.137 -0.0620  0.0428 -0.3002
  413POPI   GL1 6449  16.314  10.923   9.635  0.0124  0.2072 -0.0197
  413POPI   GL2 6450  16.707  10.876   9.576 -0.1395  0.0645  0.2757
  413POPI   C1A 6451  16.279  10.944   9.193  0.0301  0.0815  0.0387
  413POPI   D2A 6452  16.235  11.087   8.776  0.0024 -0.1865  0.0873
  413POPI   C3A 6453  16.495  11.093   8.358  0.1180 -0.3871  0.1851
  413POPI   C4A 6454  16.692  11.068   7.998  0.1008  0.0516  0.0242
  413POPI   C1B 6455  16.805  10.936   9.129  0.0923  0.0043  0.3327
  413POPI   C2B 6456  16.635  10.735   8.780  0.0348  0.2251  0.1067
  413POPI   C3B 6457  16.771  10.649   8.435  0.2052 -0.3774 -0.2121
  413POPI   C4B 6458  17.001  10.648   8.104  0.1612 -0.4877 -0.0385
  414POPI    C1 6459   3.655  11.199  10.313  0.0270 -0.3505 -0.1449
  414POPI    C2 6460   3.334  11.251  10.545  0.2179  0.0100  0.0473
  414POPI    C3 6461   3.635  11.019  10.669  0.3502  0.2578  0.1966
  414POPI   PO4 6462   3.500  11.336  10.012  0.2107  0.1376 -0.0613
  414POPI   GL1 6463   3.506  11.584   9.548  0.2111 -0.0781 -0.0377
  414POPI   GL2 6464   3.604  11.176   9.545  0.0767  0.2211 -0.0554
  414POPI   C1A 6465   3.745  11.528   9.234 -0.1385  0.0680 -0.2583
  414POPI   D2A 6466   3.829  11.783   8.909  0.1840 -0.2110 -0.0736
  414POPI   C3A 6467   3.712  12.017   8.605 -0.1821 -0.1757  0.2188
  414POPI   C4A 6468   3.646  12.378   8.408  0.0928 -0.2366 -0.1365
  414POPI   C1B 6469   3.291  11.268   9.271 -0.2358 -0.0281  0.0154
  414POPI   C2B 6470   3.090  11.182   8.948 -0.1250  0.0033 -0.3860
  414POPI   C3B 6471   2.599  11.128   8.784  0.0898 -0.1174  0.3199
  414POPI   C4B 6472   2.252  10.855   8.757  0.1358  0.1376  0.2241
  415POPI    C1 6473  11.687   7.980   9.871  0.0181  0.2406  0.3258
  415POPI    C2 6474  11.363   8.135   9.695  0.2515  0.0579 -0.2928
  415POPI    C3 6475  11.322   7.868   9.990 -0.1558  0.1302 -0.2780
  415POPI   PO4 6476  11.835   7.832   9.754 -0.3914  0.1151 -0.1487
  415POPI   GL1 6477  11.791   7.521   9.513 -0.0691 -0.1557 -0.0701
  415POPI   GL2 6478  11.500   7.527   9.573 -0.0227 -0.2133 -0.1470
  415POPI   C1A 6479  11.827   7.454   9.029  0.1132  0.0483 -0.0927
  415POPI   D2A 6480  11.693   7.242   8.700 -0.1333  0.0743  0.0206
  415POPI   C3A 6481  11.384   7.428   8.759  0.0852  0.1703  0.2687
  415POPI   C4A 6482  11.058   7.644   9.063 -0.1829  0.2186 -0.2084
  415POPI   C1B 6483  11.317   7.305   9.273 -0.1439  0.0749  0.2547
  415POPI   C2B 6484  11.272   7.005   8.862 -0.0495  0.3472  0.0973
  415POPI   C3B 6485  11.440   6.835   8.513 -0.2112 -0.0484 -0.0971
  415POPI   C4B 6486  11.719   6.861   8.161  0.0279 -0.0358  0.2249
  416POPI    C1 6487   2.908  12.373  10.460  0.1256  0.0948 -0.0062
  416POPI    C2 6488   3.001  12.173  10.794  0.0671  0.0886  0.0065
  416POPI    C3 6489   2.918  12.564  10.811  0.2064  0.1203 -0.0221
  416POPI   PO4 6490   2.841  12.140  10.298  0.1925  0.0684  0.0235
  416POPI   GL1 6491   2.650  12.063   9.929 -0.0217  0.1676 -0.1902
  416POPI   GL2 6492   3.068  12.076   9.891 -0.2540  0.0871 -0.2680
  416POPI   C1A 6493   2.407  12.189   9.546 -0.0463  0.2899 -0.0414
  416POPI   D2A 6494   2.140  12.436   9.247  0.0501 -0.0095  0.2013
  416POPI   C3A 6495   2.170  12.602   8.813 -0.0458 -0.0479 -0.0381
  416POPI   C4A 6496   2.093  12.767   8.438 -0.1227 -0.1137  0.1088
  416POPI   C1B 6497   2.981  11.898   9.468 -0.3215  0.0482  0.1730
  416POPI   C2B 6498   3.289  11.780   9.059 -0.0149  0.1913 -0.2908
  416POPI   C3B 6499   3.441  11.552   8.778 -0.0568  0.0870 -0.3730
  416POPI   C4B 6500   3.420  11.397   8.330  0.0426 -0.1563  0.2729
  417POPI    C1 6501   0.224   2.378  10.526  0.0696  0.0983  0.1478
  417POPI    C2 6502   0.606   2.298  10.613  0.0868  0.1764  0.1454
  417POPI    C3 6503   0.441   2.642  10.734 -0.0049  0.1097  0.2119
  417POPI   PO4 6504   0.231   2.366  10.223  0.0360 -0.1996 -0.0716
  417POPI   GL1 6505   0.236   1.984   9.927  0.0054 -0.1365  0.0233
  417POPI   GL2 6506   0.280   1.717   9.799 -0.0338 -0.1887 -0.0357
  417POPI   C1A 6507   0.206   2.239   9.540 -0.1890  0.0470 -0.0291
  417POPI   D2A 6508   0.131   2.341   9.171  0.1153 -0.1695  0.2840
  417POPI   C3A 6509   0.208   2.241   8.757 -0.1099  0.0523  0.0938
  417POPI   C4A 6510   0.098   1.855   8.636 -0.1309 -0.1175 -0.1826
  417POPI   C1B 6511   0.645   2.010   9.636  0.0622 -0.0987 -0.3388
  417POPI   C2B 6512   0.892   2.185   9.421  0.1112 -0.3966  0.1280
  417POPI   C3B 6513   1.090   2.425   9.010  0.2589 -0.3112 -0.2287
  417POPI   C4B 6514   1.328   2.361   8.634 -0.1158  0.0352  0.1001
  418POPI    C1 6515   3.829  16.238   9.799  0.1465  0.0135 -0.0392
  418POPI    C2 6516   3.609  16.183  10.129  0.0786 -0.0435 -0.0936
  418POPI    C3 6517   3.696  15.872   9.891 -0.0953  0.0399 -0.2691
  418POPI   PO4 6518   3.636  16.515   9.694  0.2878  0.1758 -0.2650
  418POPI   GL1 6519   3.604  16.674   9.291 -0.4247  0.4423 -0.2160
  418POPI   GL2 6520   3.239  16.588   9.350  0.0850 -0.0127  0.1912
  418POPI   C1A 6521   3.965  16.695   9.028 -0.3651 -0.0511 -0.3117
  418POPI   D2A 6522   4.029  16.548   8.728 -0.1920  0.1946  0.0489
  418POPI   C3A 6523   3.977  16.614   8.243  0.0196  0.2064  0.0882
  418POPI   C4A 6524   3.830  16.735   7.868 -0.1853  0.1945  0.2991
  418POPI   C1B 6525   3.151  16.624   8.916  0.0341  0.0862 -0.2932
  418POPI   C2B 6526   3.216  16.641   8.538  0.0279 -0.0205 -0.1077
  418POPI   C3B 6527   3.428  16.730   8.163  0.0323  0.1153  0.0209
  418POPI   C4B 6528   3.438  16.474   7.684  0.1581 -0.1267  0.1034
  419POPI    C1 6529   9.539   7.194  10.590 -0.0010  0.0785 -0.2907
  419POPI    C2 6530   9.164   7.118  10.708  0.0800  0.3331  0.1505
  419POPI    C3 6531   9.432   6.821  10.690 -0.1321  0.1543 -0.1446
  419POPI   PO4 6532   9.517   7.287  10.309 -0.1920  0.1053 -0.3808
  419POPI   GL1 6533   9.677   7.145   9.881 -0.1662 -0.1650 -0.5129
  419POPI   GL2 6534   9.340   6.997   9.842 -0.1505  0.0926  0.0441
  419POPI   C1A 6535   9.917   7.257   9.566  0.0586  0.0380  0.2087
  419POPI   D2A 6536  10.070   7.485   9.243 -0.0153  0.0764  0.2193
  419POPI   C3A 6537   9.919   7.670   8.950 -0.0053 -0.2392  0.0552
  419POPI   C4A 6538   9.826   7.746   8.544 -0.0442  0.1266  0.1822
  419POPI   C1B 6539   9.474   7.138   9.336  0.4020 -0.1395 -0.1312
  419POPI   C2B 6540   9.604   7.202   8.800 -0.0336 -0.0031 -0.0526
  419POPI   C3B 6541   9.706   7.237   8.413  0.0875  0.1448 -0.1986
  419POPI   C4B 6542   9.563   7.693   8.127 -0.2515 -0.0665  0.5079
  420POPI    C1 6543  10.210   0.835  10.064 -0.1533  0.0979 -0.0435
  420POPI    C2 6544  10.055   0.479  10.159 -0.2144  0.1181 -0.0677
  420POPI    C3 6545  10.151   0.738  10.448 -0.2887  0.1320 -0.0550
  420POPI   PO4 6546  10.110   1.023   9.830  0.1278 -0.1066 -0.2524
  420POPI   GL1 6547   9.914   1.114   9.466 -0.3340 -0.1179 -0.1753
  420POPI   GL2 6548   9.734   1.343   9.506  0.2109 -0.0215 -0.2381
  420POPI   C1A 6549   9.948   0.959   9.117 -0.1364  0.1008  0.1163
  420POPI   D2A 6550  10.063   0.548   8.938 -0.1500 -0.2181 -0.0397
  420POPI   C3A 6551  10.309   0.428   8.577 -0.2290  0.1929 -0.3394
  420POPI   C4A 6552  10.336   0.591   8.180 -0.0696  0.1338  0.4329
  420POPI   C1B 6553   9.582   1.333   9.073 -0.2897  0.1910  0.3318
  420POPI   C2B 6554   9.784   1.189   8.717 -0.0496 -0.2380 -0.0533
  420POPI   C3B 6555   9.862   0.805   8.503  0.1511  0.0003 -0.0078
  420POPI   C4B 6556   9.742   0.644   8.174  0.0902 -0.0340  0.1863
  421POPI    C1 6557   1.066   8.486  10.540 -0.2536  0.0318 -0.1301
  421POPI    C2 6558   1.126   8.107  10.425  0.0224  0.0357 -0.0075
  421POPI    C3 6559   1.424   8.373  10.401 -0.0778  0.1694  0.1998
  421POPI   PO4 6560   0.819   8.494  10.496 -0.2630  0.1184 -0.2066
  421POPI   GL1 6561   0.859   8.381  10.055 -0.2352  0.1073  0.4293
  421POPI   GL2 6562   0.978   8.628  10.033 -0.3532 -0.1018  0.1316
  421POPI   C1A 6563   0.624   8.041   9.815  0.0119  0.2740 -0.0174
  421POPI   D2A 6564   0.466   7.760   9.517 -0.2015  0.0458 -0.0521
  421POPI   C3A 6565   0.022   7.598   9.437  0.1211  0.2307 -0.3401
  421POPI   C4A 6566  -0.453   7.501   9.381  0.2009  0.0128 -0.3078
  421POPI   C1B 6567   0.810   8.728   9.605 -0.0563  0.3504 -0.1256
  421POPI   C2B 6568   0.870   8.674   9.224  0.0888 -0.1294 -0.0652
  421POPI   C3B 6569   0.892   8.743   8.818  0.1016  0.0023  0.1706
  421POPI   C4B 6570   1.204   8.948   8.549  0.2116  0.3705 -0.0637
  422POPI    C1 6571   1.235  14.608  10.393  0.0003 -0.1189 -0.0700
  422POPI    C2 6572   0.880  14.424  10.382 -0.0874  0.0410  0.0372
  422POPI    C3 6573   1.153  14.317  10.654 -0.0579 -0.0727 -0.0364
  422POPI   PO4 6574   1.153  14.834  10.255  0.3222  0.4638  0.3872
  422POPI   GL1 6575   1.052  15.004   9.815 -0.1950 -0.0871  0.2979
  422POPI   GL2 6576   1.345  14.820   9.737  0.2868 -0.1992 -0.1840
  422POPI   C1A 6577   0.984  14.561   9.597 -0.3029 -0.1201 -0.0798
  422POPI   D2A 6578   1.045  14.181   9.329  0.0592 -0.2713  0.1786
  422POPI   C3A 6579   1.035  14.175   8.901 -0.0534 -0.0096 -0.4031
  422POPI   C4A 6580   1.070  14.212   8.430  0.1578 -0.2271 -0.0505
  422POPI   C1B 6581   1.557  14.430   9.478  0.0725  0.0993 -0.1715
  422POPI   C2B 6582   1.732  14.178   9.148 -0.2546  0.0895  0.1875
  422POPI   C3B 6583   1.499  13.913   8.782  0.1934 -0.6071 -0.1476
  422POPI   C4B 6584   1.067  13.654   8.542 -0.0239 -0.1876 -0.3918
  423DPPI    C1 6585  13.052   3.098  10.223  0.2032  0.0869 -0.1585
  423DPPI    C2 6586  13.039   3.429  10.446 -0.0152 -0.2589  0.3618
  423DPPI    C3 6587  13.387   3.241  10.389  0.0865 -0.0204  0.1785
  423DPPI   PO4 6588  12.870   3.254  10.017 -0.1913  0.0337 -0.3488
  423DPPI   GL1 6589  12.772   3.388   9.655 -0.0531 -0.0364 -0.0646
  423DPPI   GL2 6590  12.590   3.583   9.532  0.2940 -0.1188  0.1414
  423DPPI   C1A 6591  13.091   3.575   9.358 -0.0713  0.2509 -0.4158
  423DPPI   C2A 6592  13.259   3.311   9.112  0.0242 -0.0393 -0.2915
  423DPPI   C3A 6593  13.383   3.314   8.737  0.0762 -0.1334 -0.2597
  423DPPI   C4A 6594  13.622   3.562   8.507 -0.2490 -0.2655 -0.1469
  423DPPI   C1B 6595  12.392   3.451   9.129  0.1643 -0.0785 -0.0977
  423DPPI   C2B 6596  12.150   3.490   8.741 -0.3686  0.3309 -0.2402
  423DPPI   C3B 6597  11.852   3.563   8.410 -0.0955  0.1216 -0.1626
  423DPPI   C4B 6598  11.694   3.781   8.117 -0.1958  0.1363 -0.3337
  424DPPI    C1 6599   0.867   4.924  10.237 -0.3501 -0.0182  0.0405
  424DPPI    C2 6600   0.551   4.840  10.467 -0.1613 -0.1188  0.2667
  424DPPI    C3 6601   0.866   4.593  10.462 -0.1249 -0.0700 -0.0317
  424DPPI   PO4 6602   0.962   5.194  10.215 -0.0916  0.1969  0.1447
  424DPPI   GL1 6603   0.987   5.183   9.752  0.3023 -0.1997 -0.0703
  424DPPI   GL2 6604   0.831   5.488   9.706 -0.2142  0.1388  0.0879
  424DPPI   C1A 6605   1.140   4.849   9.460 -0.0585  0.1502  0.0946
  424DPPI   C2A 6606   1.236   4.820   9.043 -0.2687  0.2609 -0.2300
  424DPPI   C3A 6607   1.217   4.838   8.709  0.2111  0.1813 -0.1287
  424DPPI   C4A 6608   1.112   4.957   8.187  0.2035  0.0184 -0.2126
  424DPPI   C1B 6609   0.953   5.305   9.243 -0.3099 -0.0228  0.1387
  424DPPI   C2B 6610   0.933   5.213   8.922 -0.2605 -0.1312 -0.0380
  424DPPI   C3B 6611   0.874   5.295   8.486  0.1251 -0.1926  0.1277
  424DPPI   C4B 6612   0.778   5.244   7.986  0.3566  0.0574 -0.1792
  425DPPI    C1 6613  10.059  13.884   9.795 -0.0351 -0.0537  0.0441
  425DPPI    C2 6614  10.261  13.661  10.059 -0.0383 -0.1028  0.0055
  425DPPI    C3 6615  10.222  14.055  10.118 -0.1249 -0.1294  0.1298
  425DPPI   PO4 6616  10.064  13.711   9.565  0.0046  0.0900 -0.1055
  425DPPI   GL1 6617  10.049  13.621   9.213  0.1422  0.2000  0.3671
  425DPPI   GL2 6618   9.741  13.462   9.163  0.0859 -0.2065 -0.2395
  425DPPI   C1A 6619  10.056  13.628   8.754 -0.2155  0.2741  0.4647
  425DPPI   C2A 6620   9.949  13.517   8.366 -0.0549 -0.2011 -0.1659
  425DPPI   C3A 6621   9.810  13.583   7.996 -0.0345 -0.2277  0.0380
  425DPPI   C4A 6622   9.985  13.647   7.599 -0.1708 -0.0046 -0.2642
  425DPPI   C1B 6623   9.851  13.108   9.003 -0.0188 -0.1237  0.1561
  425DPPI   C2B 6624   9.819  12.679   8.752 -0.0341 -0.1128  0.2711
  425DPPI   C3B 6625   9.559  12.601   8.377 -0.2335 -0.1574  0.0285
  425DPPI   C4B 6626   9.435  12.645   7.981 -0.1230 -0.1580  0.2587
  426DPPI    C1 6627   7.602  17.007   9.810 -0.4126  0.3294  0.0046
  426DPPI    C2 6628   7.601  16.813  10.159 -0.0935 -0.0880 -0.2171
  426DPPI    C3 6629   7.599  17.213  10.153 -0.1049 -0.0745  0.2591
  426DPPI   PO4 6630   7.628  16.761   9.658  0.2349  0.0607 -0.2204
  426DPPI   GL1 6631   7.763  16.537   9.419  0.4915 -0.0742 -0.1357
  426DPPI   GL2 6632   7.896  16.281   9.250  0.0594  0.2402  0.2677
  426DPPI   C1A 6633   7.444  16.411   9.084  0.0672 -0.2017  0.0042
  426DPPI   C2A 6634   7.189  16.325   8.718  0.0203 -0.1153  0.0505
  426DPPI   C3A 6635   7.070  16.135   8.332 -0.0860 -0.2276 -0.1416
  426DPPI   C4A 6636   6.795  16.010   8.059 -0.0073 -0.0622  0.3443
  426DPPI   C1B 6637   7.777  16.204   8.803 -0.0525 -0.0103  0.2709
  426DPPI   C2B 6638   7.639  16.240   8.395 -0.2304  0.0183  0.2749
  426DPPI   C3B 6639   7.647  16.129   7.988  0.3733  0.1188 -0.0814
  426DPPI   C4B 6640   7.757  16.359   7.745  0.3034 -0.1206  0.0756
  427DPPI    C1 6641  12.433  12.154  10.083 -0.0356  0.0905  0.2292
  427DPPI    C2 6642  12.409  12.553  10.067  0.1033  0.0885 -0.1409
  427DPPI    C3 6643  12.254  12.355  10.378 -0.0514  0.4225 -0.0007
  427DPPI   PO4 6644  12.377  12.051   9.832 -0.3142 -0.1310  0.2690
  427DPPI   GL1 6645  12.714  12.073   9.482 -0.0546 -0.1589 -0.1280
  427DPPI   GL2 6646  12.954  11.948   9.358  0.2815  0.1098  0.0120
  427DPPI   C1A 6647  12.459  12.096   9.186 -0.0881 -0.6491 -0.2905
  427DPPI   C2A 6648  12.328  11.864   8.733 -0.2231  0.4352 -0.0761
  427DPPI   C3A 6649  12.187  11.615   8.380 -0.2299 -0.1584 -0.0150
  427DPPI   C4A 6650  12.143  11.538   7.916  0.0803  0.0462 -0.1598
  427DPPI   C1B 6651  12.949  12.283   9.053 -0.0145 -0.4373  0.0362
  427DPPI   C2B 6652  12.729  12.258   8.593  0.0474  0.1466  0.0679
  427DPPI   C3B 6653  12.621  11.944   8.370  0.1416  0.0290  0.2768
  427DPPI   C4B 6654  12.512  11.862   7.959 -0.1985  0.1517  0.2518
  428DPPI    C1 6655   2.658  10.186  10.360  0.0069 -0.0835  0.1600
  428DPPI    C2 6656   2.674  10.571  10.466  0.0339 -0.0229 -0.0606
  428DPPI    C3 6657   2.923  10.307  10.635 -0.0796  0.0301  0.1938
  428DPPI   PO4 6658   2.363  10.134  10.344  0.1625 -0.1986 -0.1379
  428DPPI   GL1 6659   2.159  10.075   9.976  0.0484  0.1616 -0.2235
  428DPPI   GL2 6660   2.095   9.846   9.890  0.3298 -0.2242 -0.1609
  428DPPI   C1A 6661   2.193  10.415   9.761 -0.0202  0.0550  0.5568
  428DPPI   C2A 6662   2.340  10.615   9.445  0.2020  0.1078 -0.2004
  428DPPI   C3A 6663   2.234  10.512   9.071 -0.1047  0.0076 -0.0934
  428DPPI   C4A 6664   2.239  10.387   8.646  0.2853  0.0801 -0.1896
  428DPPI   C1B 6665   1.952  10.008   9.546 -0.1139 -0.0242  0.1976
  428DPPI   C2B 6666   1.996  10.082   9.135 -0.1660 -0.3082 -0.2311
  428DPPI   C3B 6667   1.946   9.993   8.808 -0.1981  0.1152 -0.2464
  428DPPI   C4B 6668   1.774   9.779   8.477  0.1327 -0.0878 -0.1465
  429DPPI    C1 6669   7.112  10.453  10.302 -0.0231 -0.1377  0.0022
  429DPPI    C2 6670   7.495  10.350  10.251  0.0420  0.0952  0.0121
  429DPPI    C3 6671   7.378  10.525  10.591 -0.0992 -0.0900  0.0607
  429DPPI   PO4 6672   6.972  10.305  10.195 -0.0256 -0.1058 -0.3156
  429DPPI   GL1 6673   6.766  10.375   9.867  0.3173 -0.2320 -0.0657
  429DPPI   GL2 6674   6.546  10.098   9.752 -0.2320  0.0057 -0.0103
  429DPPI   C1A 6675   6.861  10.258   9.391  0.1111 -0.0580 -0.0741
  429DPPI   C2A 6676   6.890  10.239   8.999  0.1681  0.3795  0.2285
  429DPPI   C3A 6677   6.946  10.153   8.661 -0.2075 -0.1804  0.1246
  429DPPI   C4A 6678   6.835  10.064   8.255  0.0658 -0.0852  0.1796
  429DPPI   C1B 6679   6.289  10.240   9.490 -0.2214 -0.0112 -0.0559
  429DPPI   C2B 6680   6.376  10.117   9.031  0.1892 -0.3153  0.2786
  429DPPI   C3B 6681   6.366  10.129   8.558 -0.3830  0.1981 -0.1352
  429DPPI   C4B 6682   6.333   9.889   8.166  0.2691  0.0461  0.0369
  430DPPI    C1 6683  15.124  10.259  10.320  0.0163 -0.0364  0.0437
  430DPPI    C2 6684  15.349   9.959  10.459  0.1727  0.0669  0.0159
  430DPPI    C3 6685  15.294  10.287  10.681 -0.3327 -0.1474  0.2207
  430DPPI   PO4 6686  15.263  10.251  10.085  0.1698  0.0802  0.2258
  430DPPI   GL1 6687  15.316  10.009   9.729 -0.2292  0.0867  0.2352
  430DPPI   GL2 6688  15.220   9.737   9.655 -0.0287 -0.1736  0.1390
  430DPPI   C1A 6689  15.441   9.981   9.275  0.0932 -0.2693  0.0071
  430DPPI   C2A 6690  15.211  10.142   8.821 -0.0370 -0.3661  0.2162
  430DPPI   C3A 6691  15.323  10.097   8.429 -0.0980  0.0814 -0.1076
  430DPPI   C4A 6692  15.079  10.117   8.054 -0.2049 -0.1628  0.0076
  430DPPI   C1B 6693  15.242   9.385   9.337  0.1920  0.3974 -0.0162
  430DPPI   C2B 6694  15.137   9.233   8.963  0.1370 -0.1134  0.0122
  430DPPI   C3B 6695  15.073   9.264   8.482  0.0183 -0.1112  0.1169
  430DPPI   C4B 6696  14.983   9.176   8.049 -0.0789  0.0477 -0.1785
  431DPPI    C1 6697   1.589   6.568  10.390 -0.1435  0.2256  0.1251
  431DPPI    C2 6698   1.909   6.470  10.610  0.0026  0.1795 -0.1046
  431DPPI    C3 6699   1.570   6.585  10.789  0.0640 -0.0259  0.1482
  431DPPI   PO4 6700   1.568   6.348  10.169 -0.0699 -0.1296 -0.0854
  431DPPI   GL1 6701   1.636   6.472   9.741 -0.0762  0.0513 -0.1628
  431DPPI   GL2 6702   1.364   6.354   9.560  0.0588  0.0206 -0.0674
  431DPPI   C1A 6703   1.823   6.426   9.339  0.3891  0.0116  0.2792
  431DPPI   C2A 6704   1.799   6.395   8.932 -0.1191 -0.0816 -0.3085
  431DPPI   C3A 6705   1.838   6.424   8.524  0.2210  0.2030 -0.0180
  431DPPI   C4A 6706   1.730   6.281   8.106  0.0903  0.0817  0.4308
  431DPPI   C1B 6707   1.298   6.234   9.067 -0.1383  0.1635 -0.2229
  431DPPI   C2B 6708   1.353   6.283   8.687 -0.3191 -0.1133  0.0660
  431DPPI   C3B 6709   1.282   6.228   8.290 -0.0016 -0.1919  0.0922
  431DPPI   C4B 6710   1.232   6.124   7.823 -0.0833  0.4362  0.0353
  432DPPI    C1 6711   0.475  14.143  10.965  0.0825  0.0279 -0.1405
  432DPPI    C2 6712   0.731  13.836  10.952  0.0343 -0.0246  0.0952
  432DPPI    C3 6713   0.623  13.990  11.304 -0.0115  0.2058 -0.0181
  432DPPI   PO4 6714   0.507  14.218  10.713 -0.0798 -0.0658  0.1211
  432DPPI   GL1 6715   0.712  13.974  10.451  0.1996 -0.0019  0.1168
  432DPPI   GL2 6716   1.051  13.965  10.290  0.0170 -0.0939 -0.0611
  432DPPI   C1A 6717   0.532  14.222  10.108 -0.0188  0.0111 -0.3250
  432DPPI   C2A 6718   0.391  14.249   9.635 -0.1228 -0.0728 -0.0627
  432DPPI   C3A 6719   0.595  14.339   9.266  0.5414 -0.0635 -0.2974
  432DPPI   C4A 6720   0.812  14.621   9.134  0.0603 -0.0961  0.0989
  432DPPI   C1B 6721   1.003  13.596  10.111  0.0446 -0.2124 -0.3872
  432DPPI   C2B 6722   1.115  13.365   9.811  0.1940  0.0642 -0.0342
  432DPPI   C3B 6723   1.136  13.410   9.497 -0.0167  0.2024  0.2219
  432DPPI   C4B 6724   1.130  13.719   9.179 -0.2420  0.0135  0.1122
  433DPPI    C1 6725   6.541   6.558  10.325  0.0964 -0.0236  0.0348
  433DPPI    C2 6726   6.232   6.383  10.140  0.0197  0.1582 -0.0118
  433DPPI    C3 6727   6.171   6.599  10.471  0.1009  0.1730 -0.0062
  433DPPI   PO4 6728   6.828   6.531  10.189  0.2214 -0.0691 -0.1296
  433DPPI   GL1 6729   7.199   6.616   9.993  0.0535  0.4098  0.1442
  433DPPI   GL2 6730   7.234   7.007   9.825  0.8007  0.1512 -0.1777
  433DPPI   C1A 6731   7.297   6.555   9.533 -0.1254  0.2297 -0.2053
  433DPPI   C2A 6732   7.489   6.454   9.219 -0.0225  0.1692  0.1975
  433DPPI   C3A 6733   7.556   6.678   8.967  0.0687 -0.0636 -0.2011
  433DPPI   C4A 6734   7.730   6.731   8.605  0.2109 -0.0399  0.3148
  433DPPI   C1B 6735   7.202   7.378   9.557  0.0217  0.1207  0.0012
  433DPPI   C2B 6736   6.975   7.424   9.069 -0.0015 -0.3895  0.1439
  433DPPI   C3B 6737   6.885   7.373   8.637 -0.3540  0.0974 -0.1120
  433DPPI   C4B 6738   6.886   7.293   8.181  0.1597 -0.0366 -0.0628
  434DPPI    C1 6739  11.790   9.207   9.783  0.1915 -0.0275  0.1740
  434DPPI    C2 6740  11.687   8.981  10.096 -0.0093  0.0374  0.1562
  434DPPI    C3 6741  11.497   9.326  10.027  0.1047  0.0741  0.0219
  434DPPI   PO4 6742  12.087   9.165   9.763 -0.3074 -0.0877  0.1095
  434DPPI   GL1 6743  12.471   9.034   9.572  0.1724  0.1827  0.4635
  434DPPI   GL2 6744  12.386   8.686   9.602  0.3553 -0.0049 -0.2244
  434DPPI   C1A 6745  12.304   9.040   9.103  0.1148 -0.0582 -0.0359
  434DPPI   C2A 6746  12.155   8.997   8.628  0.1050  0.0944  0.0143
  434DPPI   C3A 6747  12.321   8.772   8.283 -0.1029 -0.0279  0.1302
  434DPPI   C4A 6748  12.306   8.537   7.911  0.1447  0.0440 -0.1392
  434DPPI   C1B 6749  12.209   8.545   9.247 -0.0519  0.0947 -0.1577
  434DPPI   C2B 6750  12.187   8.555   8.787  0.1052 -0.1430 -0.0839
  434DPPI   C3B 6751  11.981   8.429   8.418 -0.2412  0.0584 -0.0235
  434DPPI   C4B 6752  12.067   8.154   8.183 -0.0519 -0.0225  0.1678
  435DPPI    C1 6753   0.585  10.948  10.713 -0.3398 -0.0813 -0.0478
  435DPPI    C2 6754   0.450  10.999  11.086  0.0622 -0.1794  0.1168
  435DPPI    C3 6755   0.434  10.637  10.916 -0.3560 -0.0833 -0.0628
  435DPPI   PO4 6756   0.446  11.102  10.559 -0.0853  0.0705  0.1533
  435DPPI   GL1 6757   0.662  11.388  10.293 -0.2595 -0.0388  0.1370
  435DPPI   GL2 6758   1.037  11.388  10.123 -0.2730 -0.1638 -0.1291
  435DPPI   C1A 6759   0.567  11.578   9.835 -0.1438 -0.3312 -0.0946
  435DPPI   C2A 6760   0.604  11.460   9.424 -0.0295 -0.2784  0.1487
  435DPPI   C3A 6761   0.690  11.542   8.917  0.0397 -0.3130  0.4514
  435DPPI   C4A 6762   0.516  11.775   8.617 -0.0607 -0.1366  0.0473
  435DPPI   C1B 6763   1.049  11.494   9.700  0.1704  0.4120  0.1490
  435DPPI   C2B 6764   1.072  11.413   9.191 -0.0995  0.0309 -0.0395
  435DPPI   C3B 6765   1.157  11.077   8.868 -0.2661  0.0132 -0.0814
  435DPPI   C4B 6766   1.361  10.802   8.547  0.0844 -0.0648 -0.0258
  436DPPI    C1 6767  18.491  17.031  10.058  0.0690 -0.1119  0.2976
  436DPPI    C2 6768  18.236  17.269  10.253 -0.1289  0.1448 -0.2539
  436DPPI    C3 6769  18.535  17.428  10.040  0.1482 -0.1340 -0.0819
  436DPPI   PO4 6770  18.379  16.847   9.920  0.2191  0.0988  0.0410
  436DPPI   GL1 6771  18.033  16.763   9.837  0.3178 -0.2737  0.0693
  436DPPI   GL2 6772  17.690  16.786   9.780  0.0006  0.2572  0.0201
  436DPPI   C1A 6773  18.145  16.494   9.493 -0.1871  0.4119 -0.1286
  436DPPI   C2A 6774  18.052  16.100   9.199 -0.1392  0.0187  0.0807
  436DPPI   C3A 6775  18.029  15.655   9.052  0.1163 -0.0526 -0.3415
  436DPPI   C4A 6776  18.101  15.433   8.672  0.1495 -0.1045  0.3774
  436DPPI   C1B 6777  17.648  16.427   9.511 -0.1940  0.0266  0.1230
  436DPPI   C2B 6778  17.548  16.038   9.307  0.2587 -0.0556  0.2907
  436DPPI   C3B 6779  17.621  15.825   8.849  0.3014 -0.1597 -0.0360
  436DPPI   C4B 6780  17.643  15.621   8.607 -0.1083  0.0804  0.1509
  437DPPI    C1 6781   7.967  18.284   9.717 -0.0409 -0.0065  0.1565
  437DPPI    C2 6782   7.795  17.983   9.518 -0.1341  0.1663 -0.0285
  437DPPI    C3 6783   7.686  18.062   9.895  0.0750 -0.1906  0.1126
  437DPPI   PO4 6784   7.931  18.483   9.531  0.0834 -0.1534  0.3617
  437DPPI   GL1 6785   7.932  18.287   9.172  0.1323  0.1971 -0.1383
  437DPPI   GL2 6786   8.148  18.501   9.031  0.4058  0.3221 -0.0920
  437DPPI   C1A 6787   7.837  18.205   8.684  0.2586 -0.4862 -0.3083
  437DPPI   C2A 6788   7.592  18.386   8.337  0.1547 -0.0802  0.2950
  437DPPI   C3A 6789   7.171  18.347   8.098  0.3219  0.2317  0.0143
  437DPPI   C4A 6790   6.953  18.555   7.802 -0.1183 -0.0252  0.0709
  437DPPI   C1B 6791   8.005  18.753   8.762  0.1425  0.0245 -0.0404
  437DPPI   C2B 6792   7.856  18.857   8.378  0.0420 -0.0007  0.1179
  437DPPI   C3B 6793   7.725  18.922   8.130  0.1383  0.0670  0.2139
  437DPPI   C4B 6794   7.535  18.627   7.759 -0.1769  0.3251 -0.1531
  438DPPI    C1 6795   4.769   4.969  10.586 -0.0544 -0.1764  0.0922
  438DPPI    C2 6796   4.422   4.842  10.431 -0.1761  0.0283  0.1936
  438DPPI    C3 6797   4.456   5.217  10.568  0.1025  0.0275  0.1338
  438DPPI   PO4 6798   4.962   4.832  10.353  0.0050 -0.0692  0.0164
  438DPPI   GL1 6799   5.155   4.653  10.002  0.0474 -0.0998  0.1764
  438DPPI   GL2 6800   5.039   5.005   9.881  0.2546  0.0665 -0.2517
  438DPPI   C1A 6801   5.035   4.332   9.753 -0.4455 -0.3073  0.0291
  438DPPI   C2A 6802   4.680   4.231   9.475  0.2848 -0.0293 -0.3024
  438DPPI   C3A 6803   4.356   4.031   9.429  0.0645  0.3499 -0.0432
  438DPPI   C4A 6804   4.028   3.782   9.533  0.0629 -0.1420 -0.0227
  438DPPI   C1B 6805   5.079   5.136   9.494  0.0712  0.1062 -0.0562
  438DPPI   C2B 6806   5.197   5.068   9.077 -0.3433 -0.1999  0.1590
  438DPPI   C3B 6807   5.504   4.700   8.885  0.1694  0.5077  0.0639
  438DPPI   C4B 6808   5.868   4.530   8.755 -0.1719 -0.1849  0.2038
  439DPPI    C1 6809  13.264   8.752  10.090  0.1855 -0.0949  0.0598
  439DPPI    C2 6810  13.368   8.759  10.476  0.0267  0.0575  0.1009
  439DPPI    C3 6811  13.075   8.997  10.343  0.1684  0.1009 -0.1395
  439DPPI   PO4 6812  13.175   8.478  10.037 -0.2794  0.4148  0.1304
  439DPPI   GL1 6813  13.039   8.105  10.038  0.3519 -0.0295 -0.1669
  439DPPI   GL2 6814  12.891   7.756  10.039  0.2619  0.1532  0.1063
  439DPPI   C1A 6815  13.094   7.972   9.583  0.1822 -0.0827  0.0714
  439DPPI   C2A 6816  13.064   7.928   9.098 -0.0077 -0.2216 -0.0902
  439DPPI   C3A 6817  12.914   7.720   8.736 -0.0105 -0.1206  0.1394
  439DPPI   C4A 6818  13.017   7.408   8.473 -0.1417  0.1193  0.4979
  439DPPI   C1B 6819  12.673   7.715   9.668 -0.2133  0.4584  0.0452
  439DPPI   C2B 6820  12.557   7.449   9.402  0.3065  0.0976  0.1829
  439DPPI   C3B 6821  12.772   7.204   9.108  0.2502 -0.0508  0.0749
  439DPPI   C4B 6822  12.839   7.027   8.745 -0.0347  0.2129  0.3313
  440DPPI    C1 6823  10.365   9.539   9.908 -0.1755 -0.1249 -0.2636
  440DPPI    C2 6824  10.135   9.455  10.224 -0.0888 -0.1269 -0.2009
  440DPPI    C3 6825  10.526   9.369  10.232 -0.0023  0.2547 -0.1442
  440DPPI   PO4 6826  10.143   9.504   9.675 -0.2663 -0.1808  0.1575
  440DPPI   GL1 6827  10.038   9.574   9.249  0.0626  0.1322  0.0349
  440DPPI   GL2 6828   9.719   9.466   9.272  0.0414 -0.3804  0.0420
  440DPPI   C1A 6829  10.181   9.795   8.836 -0.2066  0.0897  0.1880
  440DPPI   C2A 6830  10.135   9.664   8.523  0.0604  0.3132 -0.2238
  440DPPI   C3A 6831  10.317   9.435   8.218  0.0470  0.0230 -0.1715
  440DPPI   C4A 6832  10.712   9.122   8.403 -0.2103  0.0698  0.3296
  440DPPI   C1B 6833   9.658   9.669   8.883 -0.0266 -0.4869 -0.0887
  440DPPI   C2B 6834   9.467   9.752   8.495  0.0287 -0.0815 -0.1669
  440DPPI   C3B 6835   9.351   9.897   8.137 -0.2119  0.1301  0.1152
  440DPPI   C4B 6836   9.353  10.086   7.628 -0.3398 -0.0929  0.2711
  441DPPI    C1 6837  16.511   2.497  10.823 -0.0395 -0.0931  0.1643
  441DPPI    C2 6838  16.127   2.388  10.844 -0.0697 -0.0386 -0.0770
  441DPPI    C3 6839  16.263   2.688  11.072 -0.1110 -0.2192  0.1900
  441DPPI   PO4 6840  16.559   2.426  10.500 -0.0730  0.2007 -0.0598
  441DPPI   GL1 6841  16.719   2.646  10.161 -0.5417 -0.0002  0.3065
  441DPPI   GL2 6842  16.488   2.612   9.958 -0.0488  0.0430 -0.0952
  441DPPI   C1A 6843  17.118   2.558  10.046  0.1852  0.3347 -0.6166
  441DPPI   C2A 6844  17.507   2.652   9.938  0.2374  0.0942 -0.0903
  441DPPI   C3A 6845  17.683   2.712   9.588  0.1922  0.0139  0.1102
  441DPPI   C4A 6846  17.667   2.933   9.256  0.3991  0.0473 -0.1447
  441DPPI   C1B 6847  16.361   2.800   9.686  0.0104 -0.2159  0.3167
  441DPPI   C2B 6848  16.235   2.755   9.298  0.1013  0.2291 -0.1168
  441DPPI   C3B 6849  16.027   2.718   8.870 -0.0422 -0.0020  0.0739
  441DPPI   C4B 6850  15.739   2.709   8.602 -0.1082  0.4136 -0.3270
  442DPPI    C1 6851  12.022   1.046   9.907 -0.1975 -0.0032  0.0251
  442DPPI    C2 6852  11.819   0.720   9.798 -0.2229  0.0101  0.0327
  442DPPI    C3 6853  11.977   0.744  10.165 -0.0823 -0.0616 -0.0222
  442DPPI   PO4 6854  11.818   1.311   9.778 -0.2458 -0.3035 -0.2719
  442DPPI   GL1 6855  11.403   1.447   9.568  0.0893  0.1091  0.1479
  442DPPI   GL2 6856  11.701   1.523   9.370  0.4090 -0.0237  0.0837
  442DPPI   C1A 6857  11.307   1.264   9.138  0.0469 -0.0895  0.0341
  442DPPI   C2A 6858  11.418   1.253   8.723  0.0691  0.0777 -0.2633
  442DPPI   C3A 6859  11.525   1.193   8.371 -0.0202 -0.2743 -0.3487
  442DPPI   C4A 6860  11.819   1.157   8.070  0.0370  0.2466  0.4962
  442DPPI   C1B 6861  11.820   1.536   8.963  0.0064  0.0915 -0.1743
  442DPPI   C2B 6862  11.611   1.751   8.654  0.0420  0.3800  0.4499
  442DPPI   C3B 6863  11.667   1.683   8.333  0.0275 -0.0784  0.1673
  442DPPI   C4B 6864  11.505   1.666   7.968  0.0639 -0.0288  0.0721
  443DPPI    C1 6865   1.788  12.277  10.485 -0.1271  0.0669 -0.1548
  443DPPI    C2 6866   2.006  12.508  10.727 -0.0244 -0.0474 -0.1375
  443DPPI    C3 6867   1.784  12.674  10.440  0.0114  0.0757 -0.0946
  443DPPI   PO4 6868   1.922  12.083  10.352 -0.1384 -0.2710  0.2337
  443DPPI   GL1 6869   1.794  11.872   9.950  0.1297  0.0143  0.4189
  443DPPI   GL2 6870   2.178  11.938   9.937  0.2303 -0.1110  0.0390
  443DPPI   C1A 6871   1.501  11.825   9.696 -0.0390  0.0265  0.2575
  443DPPI   C2A 6872   1.320  11.826   9.340  0.0180  0.1722 -0.1984
  443DPPI   C3A 6873   1.184  11.810   8.890 -0.0003  0.0053  0.2289
  443DPPI   C4A 6874   1.241  11.479   8.578  0.4560 -0.0964  0.0907
  443DPPI   C1B 6875   1.869  12.212   9.588 -0.0345  0.1603 -0.1742
  443DPPI   C2B 6876   1.699  12.076   9.199  0.2056  0.1659 -0.0899
  443DPPI   C3B 6877   1.624  11.999   8.743  0.0885 -0.0342  0.0121
  443DPPI   C4B 6878   1.523  12.017   8.405 -0.2128 -0.1358 -0.0869
  444DPPI    C1 6879   8.856  10.300   9.987 -0.0568 -0.0020  0.0343
  444DPPI    C2 6880   8.758  10.649  10.157  0.0953 -0.0117  0.1431
  444DPPI    C3 6881   9.113  10.480  10.236  0.0720 -0.1311 -0.0038
  444DPPI   PO4 6882   8.551  10.123   9.977 -0.4567 -0.0599  0.0175
  444DPPI   GL1 6883   8.500   9.684   9.892  0.0221 -0.0731 -0.0418
  444DPPI   GL2 6884   8.632   9.414   9.731  0.0080 -0.0072  0.1119
  444DPPI   C1A 6885   8.266   9.725   9.474 -0.3201  0.0372  0.0081
  444DPPI   C2A 6886   8.312   9.483   9.003 -0.0691  0.0525  0.3281
  444DPPI   C3A 6887   8.376   9.620   8.606 -0.1606 -0.0525  0.1842
  444DPPI   C4A 6888   8.431   9.714   8.199 -0.1936 -0.1729 -0.0531
  444DPPI   C1B 6889   8.702   9.521   9.341  0.0088  0.0655 -0.1504
  444DPPI   C2B 6890   8.799   9.471   8.908 -0.2280  0.0501  0.2765
  444DPPI   C3B 6891   8.880   9.487   8.394  0.0252  0.5444  0.1529
  444DPPI   C4B 6892   9.228   9.408   8.051  0.3763  0.1686  0.0602
  445DPPI    C1 6893  11.306  15.537   9.637  0.1890  0.1441  0.2235
  445DPPI    C2 6894  10.942  15.494   9.478  0.3393  0.2786 -0.1685
  445DPPI    C3 6895  11.100  15.199   9.696  0.0315  0.1869 -0.0637
  445DPPI   PO4 6896  11.425  15.560   9.452  0.2021  0.0735  0.0015
  445DPPI   GL1 6897  11.436  15.349   9.053 -0.1170  0.0640  0.3850
  445DPPI   GL2 6898  11.140  15.375   8.964 -0.1300 -0.1336  0.0815
  445DPPI   C1A 6899  11.608  15.561   8.668  0.1394 -0.0391 -0.1053
  445DPPI   C2A 6900  11.698  15.639   8.223 -0.0838  0.0891  0.0397
  445DPPI   C3A 6901  11.862  15.925   8.039 -0.0594 -0.0594 -0.1380
  445DPPI   C4A 6902  12.052  16.005   7.583 -0.2663 -0.1944  0.0151
  445DPPI   C1B 6903  11.409  15.103   8.607  0.1318 -0.0485 -0.3625
  445DPPI   C2B 6904  11.592  15.141   8.286 -0.2318  0.1038  0.0860
  445DPPI   C3B 6905  11.705  15.116   7.896  0.0615 -0.0663 -0.0246
  445DPPI   C4B 6906  11.700  15.098   7.452 -0.0239 -0.1268 -0.1915
  446DPPI    C1 6907   0.220   1.637  10.323 -0.2956  0.1540  0.0224
  446DPPI    C2 6908   0.558   1.604  10.535 -0.2628  0.1685 -0.0275
  446DPPI    C3 6909   0.280   1.872  10.641 -0.2312  0.1998 -0.0233
  446DPPI   PO4 6910   0.223   1.398  10.224 -0.0855 -0.1653  0.1240
  446DPPI   GL1 6911   0.019   1.306   9.842 -0.0027  0.1067 -0.1921
  446DPPI   GL2 6912  -0.233   1.143  10.075 -0.2222 -0.1846 -0.1179
  446DPPI   C1A 6913  -0.092   1.363   9.529 -0.1841  0.2375  0.3054
  446DPPI   C2A 6914   0.085   1.510   9.132  0.0158 -0.1653 -0.0236
  446DPPI   C3A 6915   0.348   1.837   9.127 -0.1992  0.1216  0.0006
  446DPPI   C4A 6916   0.694   2.140   8.964  0.2286 -0.0036 -0.0026
  446DPPI   C1B 6917  -0.130   0.857   9.771 -0.1741 -0.0258 -0.0110
  446DPPI   C2B 6918  -0.029   0.782   9.308 -0.1385  0.1992 -0.4644
  446DPPI   C3B 6919  -0.216   1.093   8.996  0.3626 -0.2133 -0.2879
  446DPPI   C4B 6920  -0.258   1.456   8.709 -0.2577  0.2472  0.1277
  447DPPI    C1 6921   2.689   9.682  10.398  0.0382  0.1631 -0.0599
  447DPPI    C2 6922   2.319   9.535  10.432  0.0515  0.1350 -0.0362
  447DPPI    C3 6923   2.492   9.713  10.745  0.3149 -0.4523  0.1658
  447DPPI   PO4 6924   2.831   9.530  10.296  0.1398 -0.1729  0.0628
  447DPPI   GL1 6925   2.547   9.285  10.034  0.0785 -0.2538  0.1045
  447DPPI   GL2 6926   2.781   9.009  10.091  0.1488 -0.1325  0.2214
  447DPPI   C1A 6927   2.362   9.212   9.651  0.0707  0.1083  0.0629
  447DPPI   C2A 6928   2.201   9.189   9.178 -0.2916 -0.1651 -0.2823
  447DPPI   C3A 6929   2.067   9.388   8.835  0.0785  0.0082  0.1892
  447DPPI   C4A 6930   2.085   9.247   8.416 -0.1044 -0.3720  0.1520
  447DPPI   C1B 6931   2.601   8.762   9.688  0.1390 -0.2125 -0.1544
  447DPPI   C2B 6932   2.438   8.753   9.314 -0.2434  0.1179 -0.3312
  447DPPI   C3B 6933   2.440   8.803   8.966 -0.6590 -0.3082 -0.1536
  447DPPI   C4B 6934   2.405   8.828   8.514 -0.0176  0.1055 -0.1561
  448DPPI    C1 6935   7.817   6.410  10.346  0.0980  0.0853 -0.1141
  448DPPI    C2 6936   7.533   6.390  10.628 -0.0129 -0.0446 -0.2334
  448DPPI    C3 6937   7.869   6.596  10.696 -0.0251 -0.1011  0.0051
  448DPPI   PO4 6938   7.647   6.394  10.043 -0.2267  0.1786 -0.2363
  448DPPI   GL1 6939   7.799   6.345   9.650 -0.0418  0.1001  0.0133
  448DPPI   GL2 6940   7.976   6.069   9.601  0.1350  0.0939  0.1131
  448DPPI   C1A 6941   7.956   6.596   9.308  0.1949  0.3336 -0.0845
  448DPPI   C2A 6942   8.099   6.831   8.975  0.2467  0.3156  0.1275
  448DPPI   C3A 6943   8.184   6.805   8.562 -0.0372 -0.1414 -0.1520
  448DPPI   C4A 6944   8.457   6.452   8.380 -0.2935 -0.0242  0.0548
  448DPPI   C1B 6945   8.166   6.147   9.228  0.3197 -0.2476  0.3205
  448DPPI   C2B 6946   8.014   6.300   8.767  0.3823 -0.0286  0.0308
  448DPPI   C3B 6947   7.949   6.286   8.413 -0.0148  0.2303 -0.3556
  448DPPI   C4B 6948   7.996   6.301   8.066 -0.1176 -0.0209 -0.1479
  449DPPI    C1 6949   2.320  16.168  10.383 -0.2430  0.4091  0.2103
  449DPPI    C2 6950   2.651  15.954  10.452 -0.3181  0.1679 -0.1451
  449DPPI    C3 6951   2.401  16.040  10.753 -0.1467 -0.0076  0.0510
  449DPPI   PO4 6952   2.266  16.081  10.116 -0.1428 -0.0975  0.1306
  449DPPI   GL1 6953   2.376  15.738   9.839 -0.0419  0.3690 -0.1336
  449DPPI   GL2 6954   2.301  15.427   9.908 -0.0140 -0.1765  0.2695
  449DPPI   C1A 6955   2.466  15.957   9.428 -0.1721  0.2336 -0.0833
  449DPPI   C2A 6956   2.494  15.944   9.043  0.1532 -0.0922  0.0000
  449DPPI   C3A 6957   2.445  15.969   8.628 -0.1181  0.0762  0.1647
  449DPPI   C4A 6958   2.599  16.104   8.258  0.1430 -0.3424  0.1604
  449DPPI   C1B 6959   2.417  15.452   9.420 -0.0650  0.0464  0.0275
  449DPPI   C2B 6960   2.343  15.392   8.990  0.2066  0.1572 -0.2512
  449DPPI   C3B 6961   2.241  15.510   8.609  0.0991 -0.0683 -0.4132
  449DPPI   C4B 6962   2.322  15.572   8.177 -0.1239 -0.3467  0.2262
  450DPPI    C1 6963   9.266   6.495  10.026 -0.0832 -0.0029 -0.0045
  450DPPI    C2 6964   9.593   6.610  10.225  0.0182 -0.1693 -0.0726
  450DPPI    C3 6965   9.282   6.454  10.423 -0.0240 -0.0034 -0.0069
  450DPPI   PO4 6966   9.284   6.513   9.839  0.3128 -0.1728  0.1995
  450DPPI   GL1 6967   9.348   6.295   9.497  0.2825 -0.2122  0.2043
  450DPPI   GL2 6968   9.600   6.052   9.484 -0.2783  0.2215  0.1185
  450DPPI   C1A 6969   9.298   6.184   9.121  0.2200 -0.2021  0.0290
  450DPPI   C2A 6970   9.279   6.284   8.751  0.2869 -0.0505 -0.3430
  450DPPI   C3A 6971   8.993   6.512   8.437 -0.1198 -0.0736  0.0102
  450DPPI   C4A 6972   8.908   6.720   8.123 -0.0083 -0.0524  0.0364
  450DPPI   C1B 6973   9.751   6.364   9.200  0.1742 -0.0791  0.2009
  450DPPI   C2B 6974   9.775   6.357   8.763  0.0883  0.0525  0.2182
  450DPPI   C3B 6975   9.640   6.360   8.271 -0.0643  0.0441  0.0440
  450DPPI   C4B 6976   9.268   6.409   8.054 -0.2775 -0.0071 -0.0306
  451DPPI    C1 6977   6.279   2.588  10.581 -0.0397 -0.0722  0.2127
  451DPPI    C2 6978   6.274   2.208  10.459 -0.0345 -0.0585  0.1696
  451DPPI    C3 6979   6.186   2.297  10.839  0.0815 -0.1140  0.2097
  451DPPI   PO4 6980   6.088   2.747  10.396  0.0871 -0.0110  0.0165
  451DPPI   GL1 6981   6.081   3.072  10.047  0.0318 -0.3027  0.0533
  451DPPI   GL2 6982   5.978   3.239   9.833  0.3094 -0.2170 -0.0380
  451DPPI   C1A 6983   5.641   2.887   9.819 -0.2602 -0.0967 -0.0876
  451DPPI   C2A 6984   5.592   3.130   9.394 -0.0788 -0.0122 -0.0671
  451DPPI   C3A 6985   5.603   3.579   9.366  0.3068  0.0669 -0.0012
  451DPPI   C4A 6986   5.701   3.736   8.925  0.1848  0.1833 -0.5200
  451DPPI   C1B 6987   6.041   2.890   9.441 -0.0218 -0.1879 -0.1409
  451DPPI   C2B 6988   6.264   2.902   9.023  0.0718  0.3015  0.0962
  451DPPI   C3B 6989   6.340   3.011   8.610 -0.1902  0.0328 -0.1092
  451DPPI   C4B 6990   6.410   3.276   8.286  0.1330  0.0532  0.1483
  452DPPI    C1 6991   4.600   1.794  10.010 -0.1367  0.0782 -0.1640
  452DPPI    C2 6992   4.467   2.142  10.156  0.1005  0.0787  0.0569
  452DPPI    C3 6993   4.309   1.798  10.284 -0.0002  0.0966 -0.0180
  452DPPI   PO4 6994   4.929   1.860  10.047  0.1441  0.1277 -0.1340
  452DPPI   GL1 6995   5.221   2.002   9.619 -0.0132 -0.3318 -0.1562
  452DPPI   GL2 6996   5.173   1.667   9.585  0.0168  0.2335  0.0803
  452DPPI   C1A 6997   5.166   2.342   9.209  0.1572  0.0926 -0.0646
  452DPPI   C2A 6998   5.103   2.417   8.785  0.1825  0.2249  0.0345
  452DPPI   C3A 6999   4.876   2.396   8.380  0.0728  0.1086  0.0799
  452DPPI   C4A 7000   4.787   2.456   7.988 -0.2558  0.0231 -0.0969
  452DPPI   C1B 7001   5.192   1.797   9.119  0.1415 -0.0185 -0.0974
  452DPPI   C2B 7002   5.128   1.957   8.681  0.0919 -0.1373  0.0315
  452DPPI   C3B 7003   5.136   1.993   8.194 -0.0302  0.1654 -0.1459
  452DPPI   C4B 7004   5.202   2.195   7.743  0.0927 -0.0300 -0.1594
  453DPPI    C1 7005  14.356  18.321  10.238 -0.0442 -0.1813  0.1205
  453DPPI    C2 7006  14.107  18.466  10.515 -0.0750 -0.0222  0.0108
  453DPPI    C3 7007  14.482  18.370  10.614 -0.1049 -0.0261  0.1214
  453DPPI   PO4 7008  14.387  18.398  10.035 -0.0282  0.2100 -0.1151
  453DPPI   GL1 7009  14.521  18.192   9.635 -0.2566 -0.0697  0.1344
  453DPPI   GL2 7010  14.308  18.106   9.610  0.1770 -0.2248  0.1389
  453DPPI   C1A 7011  14.721  18.194   9.246 -0.1152 -0.1384  0.3238
  453DPPI   C2A 7012  14.911  18.454   8.890  0.4268  0.0740  0.1374
  453DPPI   C3A 7013  15.042  18.645   8.515 -0.0553  0.1066  0.2428
  453DPPI   C4A 7014  15.020  19.047   8.402  0.1642 -0.0695  0.2290
  453DPPI   C1B 7015  14.303  18.393   9.251  0.0151  0.1690 -0.1006
  453DPPI   C2B 7016  14.214  18.688   8.991  0.2348 -0.2386  0.0632
  453DPPI   C3B 7017  14.056  19.016   8.719  0.0323  0.1959 -0.2212
  453DPPI   C4B 7018  13.847  18.979   8.379 -0.3871  0.0650  0.0665
  454DPPI    C1 7019   7.219   0.720   9.890 -0.4337 -0.3124 -0.1028
  454DPPI    C2 7020   7.371   0.665  10.256  0.1087 -0.1933 -0.3007
  454DPPI    C3 7021   6.994   0.792  10.212  0.0537 -0.1605  0.2136
  454DPPI   PO4 7022   7.389   0.818   9.787 -0.0470  0.0518 -0.0868
  454DPPI   GL1 7023   7.495   1.133   9.380 -0.4713  0.1770  0.2266
  454DPPI   GL2 7024   7.695   0.873   9.407 -0.2198 -0.1439  0.1859
  454DPPI   C1A 7025   7.616   1.372   9.098 -0.0747  0.0643  0.0049
  454DPPI   C2A 7026   7.585   1.654   8.760  0.0459 -0.0228 -0.1385
  454DPPI   C3A 7027   7.774   1.698   8.332 -0.0121  0.0934  0.0043
  454DPPI   C4A 7028   7.854   1.361   8.099 -0.2374  0.2301 -0.2024
  454DPPI   C1B 7029   8.071   0.928   9.145  0.0109 -0.0743  0.1459
  454DPPI   C2B 7030   8.150   0.959   8.737  0.0290 -0.0774  0.1972
  454DPPI   C3B 7031   8.004   0.797   8.364  0.1178  0.0178 -0.1858
  454DPPI   C4B 7032   7.826   0.822   7.871 -0.3077  0.2306 -0.1999
  455DPPI    C1 7033  11.867  16.261  10.067 -0.0091 -0.2349 -0.0549
  455DPPI    C2 7034  12.227  16.144   9.936  0.0911 -0.0896  0.0860
  455DPPI    C3 7035  12.158  16.176  10.328 -0.0036  0.1055  0.0548
  455DPPI   PO4 7036  11.796  16.344   9.811  0.3645 -0.1947 -0.0598
  455DPPI   GL1 7037  11.747  16.722   9.644  0.1202 -0.1008 -0.1887
  455DPPI   GL2 7038  11.532  16.546   9.428  0.3352  0.1778  0.3964
  455DPPI   C1A 7039  11.909  16.944   9.179  0.1987  0.0043  0.0868
  455DPPI   C2A 7040  12.119  17.010   8.878 -0.2662  0.0384  0.0916
  455DPPI   C3A 7041  12.263  17.000   8.476  0.0553 -0.0838 -0.1380
  455DPPI   C4A 7042  12.421  16.621   8.171  0.2594 -0.0045  0.0542
  455DPPI   C1B 7043  11.507  16.496   8.978  0.1415  0.1767  0.0385
  455DPPI   C2B 7044  11.565  16.860   8.744 -0.1195 -0.0535 -0.0619
  455DPPI   C3B 7045  11.752  16.985   8.409  0.0898 -0.0984  0.0935
  455DPPI   C4B 7046  11.621  17.001   7.979 -0.0870  0.1030 -0.1936
  456DPPI    C1 7047   5.108   0.397  10.023  0.0095  0.2442 -0.1481
  456DPPI    C2 7048   4.714   0.333  10.044  0.0590 -0.0395 -0.0432
  456DPPI    C3 7049   4.928   0.372  10.379  0.1214  0.1152 -0.1000
  456DPPI   PO4 7050   5.113   0.577   9.820 -0.0279 -0.0279 -0.1389
  456DPPI   GL1 7051   5.016   0.993   9.794  0.1946 -0.1680 -0.2735
  456DPPI   GL2 7052   4.772   0.870   9.584  0.3531 -0.2419  0.0060
  456DPPI   C1A 7053   5.119   1.142   9.352 -0.1803  0.2137 -0.0693
  456DPPI   C2A 7054   5.095   1.359   9.031 -0.0691 -0.1554 -0.0064
  456DPPI   C3A 7055   5.013   1.472   8.606  0.2073  0.1379 -0.0175
  456DPPI   C4A 7056   5.035   1.551   8.203  0.2690 -0.4239  0.2626
  456DPPI   C1B 7057   4.797   0.815   9.183 -0.3211  0.0463  0.2870
  456DPPI   C2B 7058   4.835   1.007   8.771  0.0911 -0.1565  0.2874
  456DPPI   C3B 7059   4.845   1.069   8.347 -0.1492  0.0224  0.1214
  456DPPI   C4B 7060   4.942   1.151   7.906 -0.1803  0.0934  0.1652
  457DPPI    C1 7061   3.295  18.438  10.125  0.2855 -0.0423 -0.0613
  457DPPI    C2 7062   3.585  18.376  10.394  0.2308  0.1200  0.0368
  457DPPI    C3 7063   3.222  18.494  10.514  0.1775  0.0993 -0.1010
  457DPPI   PO4 7064   3.440  18.480   9.915 -0.2317 -0.4729  0.2857
  457DPPI   GL1 7065   3.488  18.745   9.476 -0.1672 -0.3090  0.1257
  457DPPI   GL2 7066   3.745  18.793   9.733  0.2392 -0.2150 -0.1006
  457DPPI   C1A 7067   3.415  19.144   9.239  0.1544  0.1437 -0.1873
  457DPPI   C2A 7068   3.510  19.441   8.953 -0.2812  0.0303 -0.0185
  457DPPI   C3A 7069   3.781  19.628   8.534 -0.1186  0.0278 -0.2825
  457DPPI   C4A 7070   3.968  19.898   8.395  0.0222  0.0651 -0.2330
  457DPPI   C1B 7071   3.953  18.924   9.385 -0.0467 -0.0482  0.1229
  457DPPI   C2B 7072   3.938  19.191   8.941 -0.1595 -0.0655  0.3692
  457DPPI   C3B 7073   3.594  19.171   8.587 -0.4015 -0.0792 -0.0865
  457DPPI   C4B 7074   3.287  19.542   8.489  0.0596  0.3313 -0.2898
  458DPPI    C1 7075  11.936  18.396   9.990  0.2419 -0.0148  0.1862
  458DPPI    C2 7076  11.623  18.183   9.863  0.3569 -0.0810  0.0098
  458DPPI    C3 7077  11.824  18.067  10.188  0.0964  0.0570  0.2241
  458DPPI   PO4 7078  11.861  18.641   9.978  0.2016  0.0552 -0.0996
  458DPPI   GL1 7079  11.784  18.777   9.577  0.0479  0.4204  0.0820
  458DPPI   GL2 7080  11.563  18.482   9.476  0.2164 -0.4645 -0.0263
  458DPPI   C1A 7081  11.796  18.982   9.159 -0.2227  0.2260 -0.1046
  458DPPI   C2A 7082  11.796  18.899   8.713  0.2078  0.0790 -0.0291
  458DPPI   C3A 7083  11.690  18.812   8.310  0.0151 -0.0008 -0.2705
  458DPPI   C4A 7084  11.903  19.019   7.922  0.1130 -0.3346 -0.1700
  458DPPI   C1B 7085  11.524  18.580   9.069 -0.1390 -0.1205  0.2600
  458DPPI   C2B 7086  11.682  18.444   8.627  0.1851  0.2054 -0.3483
  458DPPI   C3B 7087  11.567  18.401   8.121 -0.2375 -0.2398 -0.1167
  458DPPI   C4B 7088  11.436  18.547   7.704 -0.0994  0.2469  0.0007
  459DPPI    C1 7089   5.865  13.542  10.222  0.0180  0.2113  0.1653
  459DPPI    C2 7090   6.081  13.348  10.496 -0.0146  0.0818  0.0996
  459DPPI    C3 7091   5.688  13.281  10.467 -0.0436  0.2313  0.1424
  459DPPI   PO4 7092   5.993  13.563   9.943 -0.2280 -0.1694  0.1266
  459DPPI   GL1 7093   6.431  13.330   9.626  0.1630  0.1923 -0.0061
  459DPPI   GL2 7094   6.366  13.028   9.665 -0.2921 -0.0057 -0.3668
  459DPPI   C1A 7095   6.118  13.284   9.269 -0.0046 -0.1361 -0.2577
  459DPPI   C2A 7096   5.896  13.399   8.997  0.0662 -0.0970 -0.0761
  459DPPI   C3A 7097   5.767  13.483   8.634  0.3019  0.1219  0.3326
  459DPPI   C4A 7098   5.672  13.193   8.325  0.2522 -0.0857 -0.0793
  459DPPI   C1B 7099   6.374  12.881   9.294  0.2154 -0.0138  0.1819
  459DPPI   C2B 7100   6.368  12.893   8.823 -0.3485  0.2987 -0.1620
  459DPPI   C3B 7101   6.393  13.037   8.364  0.2805  0.2870  0.1153
  459DPPI   C4B 7102   6.553  13.105   7.883  0.2072 -0.2396  0.0448
  460DPPI    C1 7103   6.034  12.297  10.330 -0.1182 -0.1387  0.0220
  460DPPI    C2 7104   6.154  12.013  10.585 -0.0226  0.0746  0.2187
  460DPPI    C3 7105   6.091  12.386  10.716  0.0475  0.1923 -0.0746
  460DPPI   PO4 7106   6.205  12.130  10.077  0.0441  0.0839  0.1605
  460DPPI   GL1 7107   6.278  12.140   9.648  0.1258  0.1746  0.0215
  460DPPI   GL2 7108   6.141  12.431   9.454 -0.1349  0.1342  0.1471
  460DPPI   C1A 7109   6.090  11.771   9.298  0.1162 -0.1595  0.1787
  460DPPI   C2A 7110   5.930  11.801   8.857  0.3180  0.2659 -0.1353
  460DPPI   C3A 7111   5.864  11.789   8.400  0.0824  0.0034 -0.3636
  460DPPI   C4A 7112   6.090  11.687   7.981 -0.2811 -0.2061 -0.0701
  460DPPI   C1B 7113   6.172  12.278   9.090 -0.0760  0.2050 -0.1446
  460DPPI   C2B 7114   6.128  12.390   8.786  0.0276 -0.0522 -0.3702
  460DPPI   C3B 7115   6.309  12.534   8.412 -0.0664  0.2610  0.1795
  460DPPI   C4B 7116   6.397  12.608   7.933  0.0318  0.0643 -0.1678
  461DPPI    C1 7117  11.374   5.470  10.395  0.0449 -0.0214  0.1993
  461DPPI    C2 7118  11.560   5.813  10.307 -0.2786  0.0919 -0.0642
  461DPPI    C3 7119  11.546   5.684  10.685  0.3777  0.0484 -0.0435
  461DPPI   PO4 7120  11.295   5.374  10.160 -0.1062  0.1724  0.2079
  461DPPI   GL1 7121  11.465   5.477   9.796  0.1153 -0.4092 -0.1219
  461DPPI   GL2 7122  11.532   5.171   9.737  0.2506 -0.3525 -0.1202
  461DPPI   C1A 7123  11.307   5.722   9.444  0.2521 -0.2569  0.0540
  461DPPI   C2A 7124  10.996   5.503   9.224 -0.3200 -0.1266 -0.0278
  461DPPI   C3A 7125  10.933   5.429   8.853 -0.0553 -0.2519  0.0227
  461DPPI   C4A 7126  10.891   5.599   8.494 -0.0407  0.2032  0.0629
  461DPPI   C1B 7127  11.374   5.161   9.326 -0.1598  0.1049 -0.0205
  461DPPI   C2B 7128  11.321   5.088   8.839 -0.1954 -0.1630 -0.0453
  461DPPI   C3B 7129  11.229   5.164   8.490 -0.1960  0.0117 -0.0995
  461DPPI   C4B 7130  11.069   5.306   8.149 -0.2240 -0.3412 -0.2337
  462DPPI    C1 7131  18.139   6.282  10.155  0.0675 -0.3555  0.2009
  462DPPI    C2 7132  17.745   6.318  10.213  0.0445 -0.1041 -0.0875
  462DPPI    C3 7133  17.997   6.360  10.520 -0.1505 -0.2493  0.0954
  462DPPI   PO4 7134  18.233   6.491   9.986 -0.0853  0.2962 -0.1315
  462DPPI   GL1 7135  18.304   6.582   9.511  0.0975 -0.2704  0.2024
  462DPPI   GL2 7136  18.580   6.412   9.600  0.0404 -0.0132 -0.4489
  462DPPI   C1A 7137  18.070   6.940   9.343 -0.0309 -0.1462 -0.1202
  462DPPI   C2A 7138  18.269   7.200   9.068 -0.1231  0.0286 -0.0232
  462DPPI   C3A 7139  18.374   7.064   8.658 -0.0520  0.1440 -0.0692
  462DPPI   C4A 7140  18.157   7.068   8.329 -0.0861 -0.0320 -0.0581
  462DPPI   C1B 7141  18.451   6.312   9.177 -0.0207 -0.0976  0.0372
  462DPPI   C2B 7142  18.140   6.613   9.009 -0.0211  0.0105  0.1935
  462DPPI   C3B 7143  17.880   7.029   8.842 -0.1508  0.1144 -0.0950
  462DPPI   C4B 7144  17.707   7.345   9.006  0.0127  0.3061 -0.1846
  463DPPI    C1 7145   0.557  17.493  10.227  0.3656  0.0883  0.0205
  463DPPI    C2 7146   0.495  17.234  10.526 -0.2534  0.1373 -0.0517
  463DPPI    C3 7147   0.349  17.606  10.549  0.1078  0.2951 -0.2133
  463DPPI   PO4 7148   0.534  17.255  10.014  0.1762 -0.0705  0.0669
  463DPPI   GL1 7149   0.292  17.215   9.642  0.0562 -0.0947 -0.0052
  463DPPI   GL2 7150   0.387  16.952   9.439  0.0133 -0.0110  0.3414
  463DPPI   C1A 7151   0.309  17.432   9.220 -0.2252 -0.0469 -0.2471
  463DPPI   C2A 7152   0.159  17.870   9.187 -0.3232  0.0776  0.1527
  463DPPI   C3A 7153  -0.363  18.070   9.083  0.0265  0.2673 -0.1301
  463DPPI   C4A 7154  -0.542  18.374   9.126 -0.2432  0.0038 -0.0688
  463DPPI   C1B 7155   0.384  17.014   9.058  0.1922  0.0587  0.0466
  463DPPI   C2B 7156   0.302  16.865   8.654  0.0077 -0.1055 -0.0341
  463DPPI   C3B 7157   0.066  17.109   8.239 -0.0570 -0.2262 -0.2225
  463DPPI   C4B 7158   0.267  17.469   7.958 -0.1733 -0.1190  0.0477
  464DPPI    C1 7159   8.467  13.564  10.069 -0.2849  0.2615 -0.1017
  464DPPI    C2 7160   8.273  13.248   9.918  0.1004 -0.0834  0.1038
  464DPPI    C3 7161   8.108  13.462  10.212 -0.2274  0.0015 -0.1368
  464DPPI   PO4 7162   8.699  13.552   9.879  0.2069 -0.0037 -0.2610
  464DPPI   GL1 7163   8.905  13.645   9.445  0.1329 -0.3549 -0.1020
  464DPPI   GL2 7164   8.551  13.690   9.470  0.1058  0.2167 -0.1157
  464DPPI   C1A 7165   8.808  13.375   9.207 -0.0509 -0.0292 -0.2626
  464DPPI   C2A 7166   8.966  13.011   8.960  0.2120  0.2474  0.0318
  464DPPI   C3A 7167   8.806  13.047   8.632 -0.1483  0.3826 -0.1487
  464DPPI   C4A 7168   8.764  12.736   8.237 -0.2812  0.0850 -0.1911
  464DPPI   C1B 7169   8.678  13.976   9.068 -0.2443  0.1756  0.0898
  464DPPI   C2B 7170   8.599  14.126   8.644 -0.3961  0.1048  0.0620
  464DPPI   C3B 7171   8.646  14.195   8.197  0.1093  0.2351  0.1697
  464DPPI   C4B 7172   8.526  14.437   7.955 -0.1445 -0.2738 -0.2588
  465DPPI    C1 7173   4.579   1.275   9.761 -0.1603 -0.1044 -0.1775
  465DPPI    C2 7174   4.250   1.407   9.948 -0.1216  0.1125 -0.2592
  465DPPI    C3 7175   4.237   1.069   9.734 -0.1625 -0.1480  0.1436
  465DPPI   PO4 7176   4.693   1.527   9.622 -0.1529  0.1207 -0.2081
  465DPPI   GL1 7177   4.692   1.754   9.309 -0.1471 -0.1689  0.0380
  465DPPI   GL2 7178   4.733   2.063   9.600  0.0342 -0.2308  0.0710
  465DPPI   C1A 7179   4.593   1.480   8.899 -0.0217  0.1965 -0.0468
  465DPPI   C2A 7180   4.462   1.413   8.451  0.3343 -0.2082 -0.0694
  465DPPI   C3A 7181   4.569   1.497   8.005 -0.0386 -0.2211 -0.4206
  465DPPI   C4A 7182   4.776   1.573   7.613  0.1762  0.0020 -0.1228
  465DPPI   C1B 7183   4.639   2.243   9.219 -0.0325  0.3026  0.0274
  465DPPI   C2B 7184   4.571   2.241   8.833  0.0619 -0.1358 -0.0845
  465DPPI   C3B 7185   4.399   2.303   8.422 -0.1472 -0.4471  0.1138
  465DPPI   C4B 7186   4.290   2.213   8.059 -0.0377 -0.2736 -0.0541
  466DPPI    C1 7187   4.484  16.296   9.985  0.1563  0.0044  0.0329
  466DPPI    C2 7188   4.163  16.504  10.103 -0.0053 -0.1063 -0.2035
  466DPPI    C3 7189   4.527  16.608  10.232 -0.0996  0.2254 -0.1951
  466DPPI   PO4 7190   4.404  16.249   9.734 -0.1682  0.2337  0.3084
  466DPPI   GL1 7191   4.152  16.313   9.325 -0.2538  0.1270 -0.0535
  466DPPI   GL2 7192   4.426  16.460   9.308 -0.0361 -0.1181 -0.0350
  466DPPI   C1A 7193   3.993  16.105   9.011 -0.1084  0.2804  0.1874
  466DPPI   C2A 7194   4.054  16.164   8.496  0.1232  0.0321 -0.0783
  466DPPI   C3A 7195   4.239  16.044   8.150 -0.2212 -0.0962 -0.1072
  466DPPI   C4A 7196   4.437  15.832   7.799  0.0004 -0.0604  0.0188
  466DPPI   C1B 7197   4.498  16.469   8.857  0.1688  0.2909  0.3108
  466DPPI   C2B 7198   4.409  16.461   8.428 -0.2825  0.0624 -0.1023
  466DPPI   C3B 7199   4.456  16.536   7.964 -0.0700  0.1686 -0.1661
  466DPPI   C4B 7200   4.339  16.770   7.579  0.1205  0.0444  0.3324
  467DPPI    C1 7201   1.326   2.446  10.518  0.2745 -0.0437 -0.0479
  467DPPI    C2 7202   1.051   2.311  10.776  0.2070 -0.2203 -0.2098
  467DPPI    C3 7203   1.257   2.644  10.859  0.1342 -0.2347  0.0365
  467DPPI   PO4 7204   1.196   2.330  10.269  0.3705  0.1824  0.0230
  467DPPI   GL1 7205   1.099   2.358   9.863  0.1395 -0.0935  0.0801
  467DPPI   GL2 7206   1.264   2.584   9.715 -0.2150  0.0289  0.2313
  467DPPI   C1A 7207   1.350   2.064   9.564  0.1465  0.1420 -0.1759
  467DPPI   C2A 7208   1.470   2.035   9.142 -0.1180  0.0622  0.0670
  467DPPI   C3A 7209   1.743   2.218   8.852 -0.0237 -0.2614  0.3390
  467DPPI   C4A 7210   1.923   2.269   8.477 -0.0684 -0.1086 -0.4534
  467DPPI   C1B 7211   1.457   2.510   9.425 -0.0754  0.0133  0.2457
  467DPPI   C2B 7212   1.612   2.653   8.928  0.1856  0.1688  0.1558
  467DPPI   C3B 7213   1.657   2.750   8.444  0.0209 -0.0061  0.0201
  467DPPI   C4B 7214   1.484   2.432   8.134 -0.1147 -0.0731  0.0799
  468DPPI    C1 7215   2.289   8.989  10.465 -0.0128 -0.0511  0.3228
  468DPPI    C2 7216   2.662   9.123  10.520  0.1007 -0.2082 -0.0342
  468DPPI    C3 7217   2.496   8.878  10.789  0.2759 -0.1850  0.0972
  468DPPI   PO4 7218   2.239   8.850  10.193  0.2690 -0.0415 -0.1587
  468DPPI   GL1 7219   1.819   8.834   9.890  0.1284 -0.0766  0.1516
  468DPPI   GL2 7220   1.422   8.873  10.006 -0.1872 -0.0189  0.0816
  468DPPI   C1A 7221   1.805   8.980   9.398 -0.0466 -0.0652 -0.1070
  468DPPI   C2A 7222   1.955   8.794   9.014  0.0709  0.1725  0.0446
  468DPPI   C3A 7223   1.997   8.618   8.602  0.1035  0.1319 -0.3688
  468DPPI   C4A 7224   2.161   8.599   8.136  0.1932 -0.2912  0.0877
  468DPPI   C1B 7225   1.297   8.733   9.551 -0.1147 -0.1397  0.2622
  468DPPI   C2B 7226   1.317   8.685   9.065 -0.1266 -0.0911  0.0914
  468DPPI   C3B 7227   1.534   8.572   8.724 -0.0639 -0.1532 -0.3119
  468DPPI   C4B 7228   1.580   8.573   8.276  0.1056  0.4358  0.0415
  469DPPI    C1 7229   1.003  17.656  10.292 -0.3628 -0.0269  0.0034
  469DPPI    C2 7230   0.730  17.893  10.464 -0.0744  0.1893  0.1726
  469DPPI    C3 7231   0.865  17.570  10.658 -0.1589  0.1199  0.1170
  469DPPI   PO4 7232   1.073  17.824  10.093  0.1765  0.3936 -0.2103
  469DPPI   GL1 7233   1.089  17.912   9.601  0.3217 -0.2703 -0.0562
  469DPPI   GL2 7234   1.207  17.648   9.428 -0.0573 -0.3202 -0.2759
  469DPPI   C1A 7235   1.049  18.207   9.262  0.0356  0.1549  0.1863
  469DPPI   C2A 7236   0.789  18.238   8.927  0.2168 -0.3380  0.0322
  469DPPI   C3A 7237   0.814  18.304   8.492  0.0014  0.2893 -0.0301
  469DPPI   C4A 7238   0.804  18.281   8.031 -0.0495  0.1805  0.1793
  469DPPI   C1B 7239   0.840  17.765   9.086  0.1578 -0.4683  0.2098
  469DPPI   C2B 7240   0.568  17.803   8.740 -0.1111 -0.1128  0.1974
  469DPPI   C3B 7241   0.643  17.805   8.331  0.2633 -0.2564 -0.0588
  469DPPI   C4B 7242   0.716  17.551   8.096 -0.0276  0.1105  0.1104
  470DPPI    C1 7243  15.839   5.347  10.432 -0.3064  0.0986 -0.0537
  470DPPI    C2 7244  15.848   4.999  10.629 -0.3031  0.0224 -0.1872
  470DPPI    C3 7245  15.771   5.005  10.237 -0.0689  0.1508 -0.2336
  470DPPI   PO4 7246  16.077   5.467  10.468 -0.4334 -0.0360  0.2860
  470DPPI   GL1 7247  16.259   5.581  10.082 -0.0353  0.0089  0.5169
  470DPPI   GL2 7248  16.425   5.736   9.833  0.2025 -0.0219  0.0592
  470DPPI   C1A 7249  15.899   5.717   9.779 -0.0374  0.2582 -0.0777
  470DPPI   C2A 7250  16.012   5.720   9.346 -0.3103  0.0687  0.0978
  470DPPI   C3A 7251  15.831   5.548   9.010 -0.3438 -0.1865  0.2475
  470DPPI   C4A 7252  15.539   5.598   8.752 -0.1085  0.1145 -0.1386
  470DPPI   C1B 7253  16.521   5.759   9.337 -0.1758  0.0539  0.0785
  470DPPI   C2B 7254  16.415   5.899   8.922 -0.0088 -0.0493  0.1518
  470DPPI   C3B 7255  16.289   5.922   8.623  0.2216 -0.1986  0.2005
  470DPPI   C4B 7256  16.349   5.791   8.159  0.0331 -0.2651  0.0989
  471DPPI    C1 7257   5.755   8.140  10.295 -0.0844 -0.1503  0.1393
  471DPPI    C2 7258   6.110   7.954  10.300 -0.0248 -0.0457 -0.0683
  471DPPI    C3 7259   5.887   7.970  10.632  0.1171 -0.2023  0.0360
  471DPPI   PO4 7260   5.633   8.120  10.052 -0.2543 -0.1159  0.3238
  471DPPI   GL1 7261   5.734   8.020   9.639  0.2440  0.2557 -0.2737
  471DPPI   GL2 7262   5.598   7.750   9.430 -0.0350  0.0019  0.1629
  471DPPI   C1A 7263   6.240   8.000   9.463  0.0557  0.1304  0.0372
  471DPPI   C2A 7264   6.559   8.258   9.536 -0.0777  0.0443  0.0193
  471DPPI   C3A 7265   6.972   8.373   9.414  0.0374  0.1464 -0.0750
  471DPPI   C4A 7266   7.378   8.360   9.567 -0.4728 -0.1837  0.0562
  471DPPI   C1B 7267   5.848   7.973   9.155  0.2243  0.1289 -0.0044
  471DPPI   C2B 7268   5.774   7.695   8.777  0.1516  0.2796 -0.1437
  471DPPI   C3B 7269   5.766   7.492   8.440 -0.2149 -0.2105 -0.3593
  471DPPI   C4B 7270   5.741   7.017   8.529  0.1875 -0.2207 -0.3294
  472DPPI    C1 7271   2.760  14.300  10.238  0.0413 -0.0153 -0.1526
  472DPPI    C2 7272   2.376  14.332  10.344  0.1297  0.1465  0.1273
  472DPPI    C3 7273   2.624  14.105  10.560  0.1551 -0.1003 -0.1554
  472DPPI   PO4 7274   2.715  14.208   9.998  0.0664 -0.1895  0.1202
  472DPPI   GL1 7275   2.642  14.393   9.595 -0.0606 -0.2017 -0.0022
  472DPPI   GL2 7276   2.934  14.197   9.501  0.3986  0.2737  0.0656
  472DPPI   C1A 7277   2.639  14.533   9.134 -0.1693  0.4220  0.0383
  472DPPI   C2A 7278   2.864  14.583   8.706  0.3461  0.0485  0.0502
  472DPPI   C3A 7279   2.872  14.577   8.299  0.0119 -0.0406  0.0389
  472DPPI   C4A 7280   2.581  14.469   8.068  0.0362 -0.1647 -0.0328
  472DPPI   C1B 7281   2.622  14.035   9.154  0.1126  0.1099  0.4737
  472DPPI   C2B 7282   2.633  14.140   8.740 -0.1933 -0.3837  0.0411
  472DPPI   C3B 7283   2.313  13.971   8.462  0.0215  0.2433 -0.1410
  472DPPI   C4B 7284   2.126  13.741   8.112 -0.0506  0.0003  0.2013
  473PYPI    C1 7285  13.753  15.137   9.786 -0.0546  0.3390  0.0736
  473PYPI    C2 7286  13.739  15.316  10.144  0.1343  0.0877  0.2100
  473PYPI    C3 7287  13.629  14.933  10.107  0.0298  0.1383 -0.0196
  473PYPI   PO4 7288  14.038  15.168   9.708  0.0186 -0.0196 -0.1327
  473PYPI   GL1 7289  14.186  15.424   9.390  0.0588 -0.0121  0.1663
  473PYPI   GL2 7290  14.478  15.523   9.456 -0.0312 -0.0873 -0.1917
  473PYPI   C1A 7291  14.010  15.284   9.006 -0.0225 -0.2996  0.1751
  473PYPI   C2A 7292  13.971  15.362   8.594  0.0502 -0.0351  0.0991
  473PYPI   D3A 7293  14.005  15.464   8.071 -0.1057 -0.2011  0.0432
  473PYPI   C4A 7294  13.876  15.908   7.984 -0.1557  0.1956 -0.4012
  473PYPI   C1B 7295  14.492  15.336   9.005 -0.2585 -0.0278 -0.0113
  473PYPI   C2B 7296  14.462  15.119   8.650 -0.0004  0.1135 -0.0894
  473PYPI   C3B 7297  14.320  15.113   8.224 -0.1097  0.0733  0.4141
  473PYPI   C4B 7298  14.341  15.280   7.726 -0.1489  0.0991 -0.2738
  474PYPI    C1 7299   0.740   0.966  10.553  0.0611 -0.3246 -0.0312
  474PYPI    C2 7300   0.451   1.166  10.745  0.0114 -0.1999 -0.2321
  474PYPI    C3 7301   0.751   0.999  10.952  0.0111  0.0143 -0.0547
  474PYPI   PO4 7302   0.707   1.161  10.271 -0.1284 -0.3187 -0.1239
  474PYPI   GL1 7303   0.757   1.429   9.884 -0.0117 -0.0132 -0.2676
  474PYPI   GL2 7304   0.508   1.223   9.803 -0.1375  0.0381  0.0983
  474PYPI   C1A 7305   0.671   1.530   9.401  0.0114 -0.0290  0.3303
  474PYPI   C2A 7306   0.675   1.493   8.895 -0.1329 -0.0681  0.1242
  474PYPI   D3A 7307   0.616   1.824   8.460  0.0862 -0.3662 -0.0330
  474PYPI   C4A 7308   0.889   2.094   8.422 -0.0512  0.0691  0.2147
  474PYPI   C1B 7309   0.380   1.088   9.496 -0.1372 -0.3674 -0.4868
  474PYPI   C2B 7310   0.411   1.130   9.079 -0.0041 -0.1080 -0.1044
  474PYPI   C3B 7311   0.248   1.211   8.743 -0.3878  0.1787 -0.1373
  474PYPI   C4B 7312   0.105   1.405   8.372 -0.2023  0.2283  0.1251
  475PYPI    C1 7313  17.159  13.261   9.969 -0.1698  0.0247 -0.1232
  475PYPI    C2 7314  16.835  13.415  10.147  0.0088 -0.1896  0.4066
  475PYPI    C3 7315  16.888  13.019  10.136  0.0309 -0.1796 -0.0896
  475PYPI   PO4 7316  17.406  13.331  10.103  0.1058 -0.1512 -0.0203
  475PYPI   GL1 7317  17.845  13.342   9.937  0.0722  0.1305 -0.2435
  475PYPI   GL2 7318  18.159  13.544   9.988 -0.1843 -0.0340 -0.2061
  475PYPI   C1A 7319  17.744  13.661   9.730 -0.1458 -0.1118 -0.2543
  475PYPI   C2A 7320  17.726  13.840   9.324  0.2295  0.2685  0.0445
  475PYPI   D3A 7321  17.783  13.841   8.833 -0.0649 -0.0752 -0.1144
  475PYPI   C4A 7322  17.976  14.191   8.564  0.0153 -0.1327 -0.0287
  475PYPI   C1B 7323  18.186  13.377   9.618 -0.1790  0.0902  0.0990
  475PYPI   C2B 7324  17.863  13.370   9.266 -0.0130  0.0093 -0.1473
  475PYPI   C3B 7325  17.480  13.427   8.966  0.1212 -0.3060  0.1218
  475PYPI   C4B 7326  17.032  13.391   9.244  0.4381 -0.1295  0.2242
  476PYPI    C1 7327   7.967  17.424   9.751 -0.0127 -0.0882  0.0508
  476PYPI    C2 7328   8.143  17.771   9.846  0.4795 -0.3522  0.1388
  476PYPI    C3 7329   7.879  17.605  10.097 -0.0626  0.1420 -0.0800
  476PYPI   PO4 7330   7.861  17.483   9.498 -0.0747  0.0540  0.1586
  476PYPI   GL1 7331   7.904  17.522   9.157  0.1231 -0.0494  0.2226
  476PYPI   GL2 7332   7.939  17.821   9.019 -0.4394  0.3171  0.1603
  476PYPI   C1A 7333   8.318  17.466   8.953 -0.1076  0.0331 -0.0567
  476PYPI   C2A 7334   8.426  17.474   8.503 -0.1165 -0.1122 -0.1520
  476PYPI   D3A 7335   8.267  17.522   8.102 -0.1379  0.0693  0.2158
  476PYPI   C4A 7336   8.587  17.598   7.679 -0.3257  0.0773  0.1895
  476PYPI   C1B 7337   7.977  17.666   8.655 -0.2168 -0.0736  0.1896
  476PYPI   C2B 7338   7.750  17.916   8.286  0.2217 -0.0659 -0.0116
  476PYPI   C3B 7339   7.564  17.743   7.956  0.0310 -0.4047 -0.3125
  476PYPI   C4B 7340   7.635  17.569   7.530 -0.3176 -0.1701  0.1361
  477PYPI    C1 7341  15.389  11.687  10.096  0.0990 -0.3744 -0.2568
  477PYPI    C2 7342  15.690  11.561  10.328  0.0022 -0.0524  0.0508
  477PYPI    C3 7343  15.326  11.617  10.485 -0.0913  0.0645 -0.2035
  477PYPI   PO4 7344  15.515  11.561   9.815 -0.0487  0.1929 -0.0842
  477PYPI   GL1 7345  15.408  11.231   9.548 -0.0200 -0.0835 -0.0751
  477PYPI   GL2 7346  15.400  11.457   9.326 -0.0909 -0.1975  0.2163
  477PYPI   C1A 7347  15.726  11.143   9.220  0.0023  0.1253 -0.1060
  477PYPI   C2A 7348  15.827  10.828   8.912 -0.2681 -0.1297 -0.0328
  477PYPI   D3A 7349  16.124  10.478   8.922 -0.3188 -0.4577 -0.2768
  477PYPI   C4A 7350  15.788  10.151   8.878 -0.0009  0.0125  0.0140
  477PYPI   C1B 7351  15.274  11.727   8.926 -0.0552  0.3427  0.0196
  477PYPI   C2B 7352  15.265  11.968   8.558 -0.1769  0.0354 -0.2152
  477PYPI   C3B 7353  15.163  11.844   8.214 -0.1066 -0.2903 -0.6271
  477PYPI   C4B 7354  15.004  11.771   7.799  0.0683  0.2899 -0.1805
  478PYPI    C1 7355  17.934   5.872  10.054  0.0770 -0.0357 -0.1201
  478PYPI    C2 7356  18.160   5.845  10.383 -0.0416  0.0621 -0.0298
  478PYPI    C3 7357  17.765   5.905  10.415 -0.0553  0.0626 -0.1899
  478PYPI   PO4 7358  18.043   5.685   9.890  0.0945  0.1977 -0.1447
  478PYPI   GL1 7359  18.290   5.549   9.548  0.3042 -0.2533 -0.0125
  478PYPI   GL2 7360  18.491   5.776   9.564  0.0674  0.1856  0.0088
  478PYPI   C1A 7361  18.306   5.412   9.119 -0.0244  0.3776  0.1570
  478PYPI   C2A 7362  18.281   5.281   8.643 -0.2997  0.1630  0.0779
  478PYPI   D3A 7363  18.200   5.542   8.194  0.2097 -0.0152 -0.1146
  478PYPI   C4A 7364  17.918   5.767   7.943 -0.0288 -0.0389  0.3071
  478PYPI   C1B 7365  18.635   5.799   9.194 -0.3172 -0.1293 -0.0871
  478PYPI   C2B 7366  18.542   5.655   8.757  0.0722 -0.3053  0.0459
  478PYPI   C3B 7367  18.599   5.788   8.391 -0.0360 -0.2251 -0.1147
  478PYPI   C4B 7368  18.776   5.533   8.009  0.0096  0.0912  0.2609
  479PYPI    C1 7369   2.601  13.319  10.528  0.2725 -0.1595  0.2435
  479PYPI    C2 7370   2.929  13.476  10.362 -0.0458  0.2874  0.0175
  479PYPI    C3 7371   2.815  13.591  10.728  0.0522  0.1232  0.1009
  479PYPI   PO4 7372   2.465  13.283  10.433  0.0911 -0.3487 -0.0605
  479PYPI   GL1 7373   2.472  13.334   9.934  0.1804 -0.0687  0.0236
  479PYPI   GL2 7374   2.712  13.417   9.950 -0.2930  0.1927  0.0718
  479PYPI   C1A 7375   2.006  13.273   9.768  0.3273  0.0465 -0.1826
  479PYPI   C2A 7376   1.799  13.262   9.414  0.1802  0.2164  0.0149
  479PYPI   D3A 7377   1.954  13.149   9.066 -0.2196  0.2805 -0.1207
  479PYPI   C4A 7378   1.708  12.979   8.811 -0.2515  0.0860 -0.0615
  479PYPI   C1B 7379   2.778  13.368   9.514  0.1634  0.1066  0.2260
  479PYPI   C2B 7380   2.587  13.452   9.127 -0.0886  0.0536  0.2687
  479PYPI   C3B 7381   2.589  13.643   8.787 -0.2331 -0.0655  0.2849
  479PYPI   C4B 7382   2.510  13.527   8.307  0.1560 -0.0839 -0.0412
  480PYPI    C1 7383  18.006  18.216  10.177  0.0539  0.0087 -0.0175
  480PYPI    C2 7384  18.371  18.119  10.046  0.1483  0.0893  0.1822
  480PYPI    C3 7385  18.328  18.325  10.387 -0.0803  0.1522  0.1175
  480PYPI   PO4 7386  17.934  18.326   9.998 -0.1300  0.1906  0.2000
  480PYPI   GL1 7387  18.138  18.367   9.587 -0.0727  0.2156 -0.0111
  480PYPI   GL2 7388  18.398  18.376   9.324  0.0011  0.0982 -0.0877
  480PYPI   C1A 7389  17.734  18.589   9.429 -0.1869  0.1401 -0.0023
  480PYPI   C2A 7390  17.480  18.488   9.122 -0.0409  0.1358 -0.0515
  480PYPI   D3A 7391  17.630  18.490   8.772 -0.1364  0.0558  0.1576
  480PYPI   C4A 7392  17.970  18.619   8.704  0.1024 -0.0054  0.2716
  480PYPI   C1B 7393  18.438  18.447   8.814  0.2971 -0.1992 -0.4303
  480PYPI   C2B 7394  18.508  18.753   8.548 -0.1642 -0.4878 -0.1757
  480PYPI   C3B 7395  18.731  18.978   8.300  0.0279  0.1835  0.0041
  480PYPI   C4B 7396  19.082  19.152   8.481 -0.0084 -0.0043 -0.4073
  481PYPI    C1 7397   2.941   7.121  10.124 -0.1892  0.0329 -0.2442
  481PYPI    C2 7398   2.797   6.942  10.452  0.1905  0.0072 -0.0862
  481PYPI    C3 7399   2.616   7.268  10.306 -0.1337 -0.1326 -0.0062
  481PYPI   PO4 7400   3.017   6.920   9.938  0.0616  0.1780 -0.1181
  481PYPI   GL1 7401   3.088   6.690   9.586  0.2742  0.2485  0.0620
  481PYPI   GL2 7402   3.184   6.989   9.515  0.4511 -0.1343 -0.0949
  481PYPI   C1A 7403   2.880   6.384   9.299 -0.0725 -0.3509 -0.0992
  481PYPI   C2A 7404   2.693   6.444   8.808  0.1097 -0.3512  0.0305
  481PYPI   D3A 7405   2.707   6.172   8.364 -0.0560  0.0509  0.2537
  481PYPI   C4A 7406   3.124   6.114   8.149  0.0399  0.0685 -0.3344
  481PYPI   C1B 7407   2.995   6.919   9.060  0.2167 -0.0070  0.1098
  481PYPI   C2B 7408   2.828   6.926   8.602  0.2121 -0.2523  0.0791
  481PYPI   C3B 7409   2.463   6.686   8.377 -0.2106 -0.4777 -0.1720
  481PYPI   C4B 7410   2.206   6.510   8.065  0.1618 -0.0923  0.1326
  482PYPI    C1 7411   6.430   5.138  10.361  0.2187  0.0542 -0.2484
  482PYPI    C2 7412   6.637   5.448  10.507 -0.0198  0.1639 -0.1385
  482PYPI    C3 7413   6.632   5.100  10.704 -0.1777  0.2510  0.0143
  482PYPI   PO4 7414   6.189   5.306  10.287  0.1652 -0.0009  0.2986
  482PYPI   GL1 7415   6.072   5.541   9.903 -0.0134 -0.1984 -0.1759
  482PYPI   GL2 7416   6.185   5.897   9.892  0.1045 -0.0711  0.3651
  482PYPI   C1A 7417   6.253   5.473   9.518  0.4134 -0.1500 -0.1310
  482PYPI   C2A 7418   6.141   5.405   9.221  0.0434 -0.1604  0.2066
  482PYPI   D3A 7419   6.257   5.766   8.900 -0.1806  0.1455  0.3294
  482PYPI   C4A 7420   6.280   5.703   8.421 -0.0182  0.0484  0.0039
  482PYPI   C1B 7421   6.197   6.023   9.495  0.3572  0.0297 -0.3013
  482PYPI   C2B 7422   6.280   6.166   9.181 -0.0499  0.0359  0.0036
  482PYPI   C3B 7423   6.344   6.277   8.754 -0.2366 -0.0106  0.0105
  482PYPI   C4B 7424   6.615   6.142   8.330  0.0852  0.2566  0.0938
  483PYPI    C1 7425   6.049  14.197  10.395 -0.1658 -0.0045 -0.2452
  483PYPI    C2 7426   6.249  13.852  10.427 -0.2677 -0.0336  0.1186
  483PYPI    C3 7427   6.446  14.192  10.352 -0.1516 -0.1490 -0.1069
  483PYPI   PO4 7428   5.807  14.034  10.278  0.0848  0.0643 -0.1554
  483PYPI   GL1 7429   5.713  13.936   9.765  0.1183  0.1909 -0.0082
  483PYPI   GL2 7430   5.981  14.098   9.776  0.1668  0.0131 -0.0075
  483PYPI   C1A 7431   5.700  13.760   9.342  0.0765  0.0308 -0.1454
  483PYPI   C2A 7432   5.523  13.732   8.952 -0.0986  0.0291 -0.0128
  483PYPI   D3A 7433   5.214  13.743   8.561  0.2742  0.2836 -0.0750
  483PYPI   C4A 7434   5.378  13.612   8.201 -0.0699 -0.0012 -0.0149
  483PYPI   C1B 7435   5.939  14.217   9.378 -0.1751  0.0814  0.0128
  483PYPI   C2B 7436   6.122  14.461   8.999  0.0144  0.0455 -0.0152
  483PYPI   C3B 7437   6.389  14.444   8.742 -0.0528 -0.0267  0.0526
  483PYPI   C4B 7438   6.502  14.437   8.430  0.0535  0.3919  0.2838
  484PYPI    C1 7439   9.872   3.509  10.591 -0.0740 -0.0165  0.1350
  484PYPI    C2 7440   9.633   3.328  10.857 -0.2590 -0.0914 -0.0787
  484PYPI    C3 7441   9.911   3.588  10.981 -0.5718  0.1366  0.1610
  484PYPI   PO4 7442   9.913   3.292  10.405  0.1560 -0.1295 -0.0497
  484PYPI   GL1 7443   9.825   3.397  10.026 -0.2240  0.0367  0.1692
  484PYPI   GL2 7444   9.667   3.459   9.792 -0.2017 -0.0490 -0.5154
  484PYPI   C1A 7445  10.064   3.816   9.837  0.3575 -0.0900  0.2067
  484PYPI   C2A 7446  10.212   4.042   9.568 -0.1148  0.0403 -0.0229
  484PYPI   D3A 7447  10.388   4.234   9.179  0.0039 -0.2545  0.1368
  484PYPI   C4A 7448  10.270   4.021   8.866  0.2300 -0.1907 -0.0066
  484PYPI   C1B 7449   9.340   3.539   9.471  0.3641  0.4087  0.2418
  484PYPI   C2B 7450   9.227   3.525   9.145 -0.3472  0.0454 -0.1285
  484PYPI   C3B 7451   9.135   3.485   8.723  0.2295  0.0452  0.2175
  484PYPI   C4B 7452   9.125   3.397   8.330 -0.0764  0.5012 -0.3258
  485PYPI    C1 7453   1.762   9.164  10.836  0.0158  0.1180 -0.1080
  485PYPI    C2 7454   1.980   8.829  10.820  0.0216  0.1122  0.0668
  485PYPI    C3 7455   1.932   9.019  11.168 -0.2026  0.1469  0.0186
  485PYPI   PO4 7456   1.856   9.280  10.592  0.2197 -0.0612  0.1683
  485PYPI   GL1 7457   2.012   9.278  10.143 -0.0672 -0.0958  0.0005
  485PYPI   GL2 7458   1.689   9.374  10.115 -0.2043  0.0467  0.1020
  485PYPI   C1A 7459   1.969   9.428   9.718  0.4328  0.2135 -0.0633
  485PYPI   C2A 7460   1.844   9.514   9.299  0.4131 -0.0944 -0.0607
  485PYPI   D3A 7461   1.529   9.613   8.896 -0.3780 -0.0168  0.0549
  485PYPI   C4A 7462   1.357   9.410   8.562  0.0222  0.2910 -0.1695
  485PYPI   C1B 7463   1.495   9.296   9.630 -0.2226  0.3840 -0.4217
  485PYPI   C2B 7464   1.446   9.189   9.118 -0.0427  0.1104  0.0607
  485PYPI   C3B 7465   1.666   9.052   8.661 -0.0176  0.2131 -0.0941
  485PYPI   C4B 7466   1.720   9.025   8.215 -0.0156 -0.0299  0.0733
  486PYPI    C1 7467  18.101  14.015  10.543  0.1397 -0.0137  0.1636
  486PYPI    C2 7468  18.060  13.620  10.588 -0.2375 -0.0060 -0.0673
  486PYPI    C3 7469  18.048  13.859  10.908  0.0433 -0.1815  0.0790
  486PYPI   PO4 7470  18.184  13.999  10.292 -0.1335  0.3236 -0.0511
  486PYPI   GL1 7471  18.398  14.277  10.037  0.0781 -0.1086 -0.2048
  486PYPI   GL2 7472  18.551  13.904  10.011 -0.0241  0.1686 -0.0074
  486PYPI   C1A 7473  18.422  14.342   9.579 -0.1128 -0.0757 -0.1054
  486PYPI   C2A 7474  18.618  14.494   9.278  0.3929  0.0115 -0.1145
  486PYPI   D3A 7475  18.899  14.709   8.880  0.0903 -0.3348 -0.0366
  486PYPI   C4A 7476  19.169  14.483   8.677 -0.1667 -0.0412  0.3536
  486PYPI   C1B 7477  18.683  13.827   9.628  0.1557  0.0619  0.0627
  486PYPI   C2B 7478  18.722  13.931   9.218 -0.1841  0.3459 -0.5085
  486PYPI   C3B 7479  18.739  14.201   8.896 -0.0535  0.1245 -0.1448
  486PYPI   C4B 7480  18.427  14.514   8.796  0.0525  0.1199 -0.4048
  487PYPI    C1 7481   0.836  10.452  10.668 -0.0739 -0.2549 -0.0399
  487PYPI    C2 7482   1.114  10.171  10.725  0.1560  0.0175  0.2195
  487PYPI    C3 7483   0.748  10.124  10.880  0.2608 -0.0375  0.4554
  487PYPI   PO4 7484   0.710  10.449  10.472  0.1688 -0.1127  0.0459
  487PYPI   GL1 7485   0.676  10.417  10.111 -0.0105 -0.1055  0.2193
  487PYPI   GL2 7486   0.494  10.564   9.964  0.5212  0.0192 -0.2320
  487PYPI   C1A 7487   0.858  10.209   9.855  0.3251  0.1052  0.1808
  487PYPI   C2A 7488   1.215  10.141   9.709 -0.1274  0.0560 -0.1853
  487PYPI   D3A 7489   1.492  10.239   9.427 -0.0887  0.1293 -0.0581
  487PYPI   C4A 7490   1.328  10.101   9.119 -0.1805 -0.2225  0.3434
  487PYPI   C1B 7491   0.731  10.574   9.521 -0.2810 -0.0088 -0.0370
  487PYPI   C2B 7492   0.744  10.865   9.144  0.0790  0.4835  0.1347
  487PYPI   C3B 7493   0.613  11.074   8.769  0.0967 -0.3194  0.2653
  487PYPI   C4B 7494   0.814  11.161   8.439  0.2575 -0.1423  0.2166
  488PYPI    C1 7495   9.201  17.781   9.818  0.0574  0.0985  0.1145
  488PYPI    C2 7496   8.981  17.491   9.653  0.0849  0.1619 -0.0356
  488PYPI    C3 7497   8.914  17.602  10.032  0.0047  0.0322 -0.0109
  488PYPI   PO4 7498   9.272  17.913   9.674 -0.0605  0.3065  0.5041
  488PYPI   GL1 7499   9.495  18.029   9.350  0.0908  0.1661  0.0011
  488PYPI   GL2 7500   9.344  17.654   9.275 -0.0918 -0.0450  0.0733
  488PYPI   C1A 7501   9.436  18.305   9.060  0.2019 -0.1250 -0.1014
  488PYPI   C2A 7502   9.365  18.470   8.528  0.1924  0.1288  0.1233
  488PYPI   D3A 7503   9.085  18.714   8.189 -0.1172  0.0815 -0.1752
  488PYPI   C4A 7504   9.302  19.021   7.902 -0.1053  0.1838 -0.0270
  488PYPI   C1B 7505   9.312  17.595   8.885  0.2023  0.0939 -0.0327
  488PYPI   C2B 7506   9.330  17.754   8.484  0.2345 -0.0678  0.2500
  488PYPI   C3B 7507   9.303  18.061   8.196 -0.2890  0.1484 -0.0075
  488PYPI   C4B 7508   9.144  18.338   7.816 -0.1498 -0.0024 -0.4339
  489PYPI    C1 7509   8.837   6.802  10.006 -0.0877  0.0141  0.0826
  489PYPI    C2 7510   8.896   7.178  10.130  0.0416  0.0499 -0.0844
  489PYPI    C3 7511   9.094   6.876  10.303 -0.0504  0.0597  0.0392
  489PYPI   PO4 7512   8.607   6.752   9.976 -0.1753  0.0166 -0.0534
  489PYPI   GL1 7513   8.391   6.795   9.561  0.0390  0.0244  0.0821
  489PYPI   GL2 7514   8.550   7.172   9.589 -0.2132  0.1466  0.2606
  489PYPI   C1A 7515   8.597   6.742   9.078 -0.0772  0.0783  0.0965
  489PYPI   C2A 7516   8.762   6.850   8.799  0.1296  0.1092  0.3039
  489PYPI   D3A 7517   9.086   7.008   8.523 -0.0430 -0.1139 -0.1993
  489PYPI   C4A 7518   9.159   7.265   8.158  0.2179 -0.4728  0.2725
  489PYPI   C1B 7519   8.596   7.229   9.166  0.2413  0.0154 -0.0616
  489PYPI   C2B 7520   8.388   7.187   8.814  0.0561  0.0631  0.0410
  489PYPI   C3B 7521   8.509   7.160   8.377 -0.0249  0.1424  0.3496
  489PYPI   C4B 7522   8.673   7.247   7.997  0.2717  0.0138 -0.3043
  490PYPI    C1 7523  12.317   3.699   9.939 -0.0898 -0.1041  0.2414
  490PYPI    C2 7524  12.357   3.367  10.158 -0.1246  0.0007  0.4088
  490PYPI    C3 7525  12.621   3.664  10.196  0.0157 -0.0834  0.1201
  490PYPI   PO4 7526  12.031   3.706   9.917 -0.0523 -0.1680  0.0025
  490PYPI   GL1 7527  11.768   3.464   9.631  0.0004  0.3731  0.0118
  490PYPI   GL2 7528  11.995   3.669   9.415 -0.0839  0.0500 -0.5019
  490PYPI   C1A 7529  11.497   3.455   9.276 -0.0714 -0.4701 -0.3121
  490PYPI   C2A 7530  11.207   3.485   8.936 -0.1802  0.2402  0.0395
  490PYPI   D3A 7531  10.997   3.361   8.580  0.1544 -0.0888 -0.0721
  490PYPI   C4A 7532  11.146   3.030   8.251 -0.0324 -0.3962 -0.1377
  490PYPI   C1B 7533  11.731   3.873   9.170  0.0493 -0.0654  0.2100
  490PYPI   C2B 7534  11.599   3.721   8.741 -0.0283  0.2273 -0.2665
  490PYPI   C3B 7535  11.316   3.684   8.390 -0.0401  0.0723 -0.0303
  490PYPI   C4B 7536  10.998   3.521   8.111  0.1139  0.3678  0.0430
  491PYPI    C1 7537  13.451  11.423  10.335  0.0930  0.1266  0.1194
  491PYPI    C2 7538  13.757  11.171  10.286 -0.0803 -0.0758  0.0620
  491PYPI    C3 7539  13.826  11.562  10.332  0.1854 -0.1186  0.0465
  491PYPI   PO4 7540  13.289  11.224  10.054 -0.1060 -0.1462  0.5174
  491PYPI   GL1 7541  13.320  11.096   9.540  0.1648 -0.0174 -0.1657
  491PYPI   GL2 7542  13.608  11.133   9.338 -0.2274  0.0305  0.2503
  491PYPI   C1A 7543  13.242  10.890   9.143 -0.1100 -0.0616  0.1609
  491PYPI   C2A 7544  13.297  10.714   8.748 -0.0092 -0.1265  0.1253
  491PYPI   D3A 7545  13.511  10.936   8.388  0.2620 -0.0914 -0.3652
  491PYPI   C4A 7546  13.525  10.718   7.979  0.0469  0.2120  0.2643
  491PYPI   C1B 7547  13.498  11.192   8.848 -0.1815  0.2859 -0.3341
  491PYPI   C2B 7548  13.646  11.431   8.419 -0.6171 -0.1031 -0.0777
  491PYPI   C3B 7549  13.997  11.458   8.107 -0.1598  0.0345 -0.1959
  491PYPI   C4B 7550  14.132  11.216   7.804 -0.0331 -0.2250  0.1075
  492PYPI    C1 7551  16.473  14.510  10.587  0.1505 -0.1236  0.0586
  492PYPI    C2 7552  16.596  14.204  10.813 -0.1795 -0.1553  0.2001
  492PYPI    C3 7553  16.464  14.539  10.986  0.3265  0.1333  0.0465
  492PYPI   PO4 7554  16.580  14.463  10.326 -0.1466  0.0104 -0.0609
  492PYPI   GL1 7555  16.512  14.769   9.881  0.1078  0.1345  0.1501
  492PYPI   GL2 7556  16.675  15.086   9.939  0.0619  0.2412  0.1596
  492PYPI   C1A 7557  16.441  14.437   9.593 -0.0905 -0.0527 -0.3825
  492PYPI   C2A 7558  16.429  14.044   9.439  0.2872  0.0544 -0.0742
  492PYPI   D3A 7559  16.646  13.687   9.358  0.0358 -0.2853 -0.2017
  492PYPI   C4A 7560  16.522  13.384   9.191  0.2863  0.2272 -0.1353
  492PYPI   C1B 7561  16.511  15.085   9.440 -0.2285 -0.1749 -0.1371
  492PYPI   C2B 7562  16.592  15.258   9.021 -0.2397 -0.0681  0.2183
  492PYPI   C3B 7563  16.755  15.499   8.663 -0.2632 -0.2446 -0.1297
  492PYPI   C4B 7564  16.805  15.593   8.255  0.5222  0.0206 -0.2902
  493PYPI    C1 7565  16.852   9.426  10.532 -0.0892  0.0193  0.0118
  493PYPI    C2 7566  17.112   9.200  10.736 -0.1022 -0.0186 -0.0136
  493PYPI    C3 7567  17.032   9.573  10.857 -0.0320 -0.0050 -0.0087
  493PYPI   PO4 7568  16.869   9.316  10.258  0.0604 -0.1648 -0.1357
  493PYPI   GL1 7569  16.828   8.941  10.069  0.0687 -0.0031  0.1646
  493PYPI   GL2 7570  16.526   8.996   9.946 -0.0867  0.1424  0.3816
  493PYPI   C1A 7571  16.742   8.836   9.571 -0.1096  0.5209  0.2466
  493PYPI   C2A 7572  16.548   8.828   9.197 -0.0441 -0.0802  0.2364
  493PYPI   D3A 7573  16.477   8.864   8.744 -0.2451  0.1744  0.2463
  493PYPI   C4A 7574  16.304   9.148   8.450 -0.3250 -0.0347 -0.1124
  493PYPI   C1B 7575  16.363   9.125   9.554  0.3167  0.0019 -0.2463
  493PYPI   C2B 7576  16.351   9.249   9.114  0.0419  0.1585  0.1662
  493PYPI   C3B 7577  16.510   9.352   8.826  0.0860 -0.1415  0.1895
  493PYPI   C4B 7578  16.495   9.695   8.528  0.2866  0.1023  0.1111
  494PYPI    C1 7579   6.920   1.253  10.062 -0.0774  0.0657 -0.1988
  494PYPI    C2 7580   7.234   1.258   9.814  0.1188 -0.3699  0.0299
  494PYPI    C3 7581   7.288   1.181  10.203 -0.2221  0.0026  0.1574
  494PYPI   PO4 7582   6.762   1.130   9.918  0.1729  0.2357 -0.0791
  494PYPI   GL1 7583   6.688   1.348   9.538  0.2510  0.2093 -0.1253
  494PYPI   GL2 7584   6.615   1.581   9.617 -0.0882 -0.3673 -0.2702
  494PYPI   C1A 7585   6.735   1.297   9.187 -0.0923 -0.1230  0.0276
  494PYPI   C2A 7586   6.656   1.373   8.786  0.0449 -0.1345  0.3588
  494PYPI   D3A 7587   6.505   1.424   8.389  0.0552 -0.1401 -0.0923
  494PYPI   C4A 7588   6.167   1.215   8.162 -0.0109 -0.0703 -0.3270
  494PYPI   C1B 7589   6.776   1.789   9.295  0.2832 -0.0770  0.1857
  494PYPI   C2B 7590   6.701   1.865   8.946 -0.1690  0.0186  0.3974
  494PYPI   C3B 7591   6.618   1.875   8.570 -0.0570  0.0890  0.0976
  494PYPI   C4B 7592   6.838   1.739   8.195  0.0949 -0.2154 -0.1001
  495PYPI    C1 7593  14.293   2.197  10.279 -0.0199  0.1519 -0.0671
  495PYPI    C2 7594  14.370   2.175  10.671 -0.0903  0.0560 -0.0581
  495PYPI    C3 7595  14.440   1.859  10.435 -0.0750  0.1039 -0.1182
  495PYPI   PO4 7596  14.433   2.379  10.227 -0.0473 -0.2534 -0.0998
  495PYPI   GL1 7597  14.478   2.565   9.754  0.1063  0.0431  0.1868
  495PYPI   GL2 7598  14.846   2.574   9.981 -0.2804 -0.0725 -0.1016
  495PYPI   C1A 7599  14.382   2.675   9.386  0.1139 -0.2437  0.1169
  495PYPI   C2A 7600  14.258   2.844   8.921 -0.0038 -0.0921 -0.3010
  495PYPI   D3A 7601  14.190   2.812   8.492  0.1617 -0.1791 -0.0880
  495PYPI   C4A 7602  14.586   2.823   8.239 -0.2686 -0.1907 -0.0702
  495PYPI   C1B 7603  14.915   2.736   9.589 -0.0439 -0.0097  0.1187
  495PYPI   C2B 7604  14.761   2.879   9.132 -0.1255 -0.0496 -0.2537
  495PYPI   C3B 7605  14.858   3.079   8.708  0.1457 -0.1601 -0.1606
  495PYPI   C4B 7606  15.012   3.069   8.201 -0.2204 -0.0408 -0.0035
  496PYPI    C1 7607   3.958   4.490  10.387 -0.0489  0.0405 -0.0002
  496PYPI    C2 7608   3.976   4.824  10.606 -0.3210  0.1404 -0.1254
  496PYPI    C3 7609   3.660   4.580  10.638 -0.0887 -0.1483  0.0218
  496PYPI   PO4 7610   4.081   4.625  10.105  0.0480  0.4240 -0.1749
  496PYPI   GL1 7611   4.193   4.944   9.894  0.3153  0.1379  0.1910
  496PYPI   GL2 7612   4.542   4.847   9.946  0.0218 -0.0154 -0.0267
  496PYPI   C1A 7613   3.964   4.917   9.556  0.0223 -0.2059  0.0942
  496PYPI   C2A 7614   3.920   4.913   9.122  0.1125  0.1083  0.3053
  496PYPI   D3A 7615   3.730   4.499   9.150  0.2006 -0.3234  0.2431
  496PYPI   C4A 7616   3.331   4.254   9.255  0.0839 -0.1147  0.3684
  496PYPI   C1B 7617   4.737   4.726   9.593  0.2302  0.2883 -0.0870
  496PYPI   C2B 7618   4.773   4.847   9.125  0.1249  0.1672  0.1277
  496PYPI   C3B 7619   4.884   4.739   8.755  0.0853 -0.2374  0.1774
  496PYPI   C4B 7620   4.952   4.457   8.579 -0.2590 -0.1919 -0.1720
  497PYPI    C1 7621  17.770   8.066  10.716 -0.0094  0.1876 -0.2292
  497PYPI    C2 7622  17.380   8.123  10.789  0.0525  0.0152  0.2773
  497PYPI    C3 7623  17.520   7.753  10.727  0.0934  0.1056 -0.2120
  497PYPI   PO4 7624  17.731   8.344  10.502 -0.0812 -0.4139 -0.0876
  497PYPI   GL1 7625  17.828   8.633  10.247 -0.0283 -0.1875  0.1937
  497PYPI   GL2 7626  18.114   8.866  10.176  0.0426 -0.0888 -0.0857
  497PYPI   C1A 7627  17.646   8.820   9.938  0.3148  0.0575 -0.1457
  497PYPI   C2A 7628  17.613   8.953   9.480 -0.0771  0.0552 -0.2059
  497PYPI   D3A 7629  17.439   8.892   9.125  0.0071 -0.0245 -0.2560
  497PYPI   C4A 7630  17.549   8.802   8.736  0.0665  0.3993  0.3708
  497PYPI   C1B 7631  18.112   8.998   9.755 -0.1437  0.1773 -0.2619
  497PYPI   C2B 7632  18.040   8.841   9.371 -0.1893 -0.1438  0.2203
  497PYPI   C3B 7633  18.064   8.816   8.857 -0.1574  0.1067  0.0347
  497PYPI   C4B 7634  18.208   8.700   8.466  0.2110  0.0379 -0.3549
  498PYPI    C1 7635  12.209  14.355   9.887  0.1945  0.2822  0.2493
  498PYPI    C2 7636  11.916  14.509  10.111 -0.0289  0.1033  0.0854
  498PYPI    C3 7637  12.160  14.231  10.264  0.0602  0.2553  0.2233
  498PYPI   PO4 7638  12.105  14.433   9.634  0.2584  0.1495  0.3286
  498PYPI   GL1 7639  12.021  14.327   9.199 -0.0028  0.1745 -0.1229
  498PYPI   GL2 7640  12.055  14.591   8.923 -0.0409 -0.2389 -0.1248
  498PYPI   C1A 7641  11.636  14.221   8.892  0.2405  0.0889  0.1926
  498PYPI   C2A 7642  11.446  14.200   8.466 -0.1561  0.2600 -0.1487
  498PYPI   D3A 7643  11.427  14.235   7.990 -0.1011 -0.1410  0.0263
  498PYPI   C4A 7644  11.114  14.467   7.752 -0.1012  0.2729 -0.4555
  498PYPI   C1B 7645  12.283  14.611   8.554  0.0719  0.3124 -0.2508
  498PYPI   C2B 7646  12.408  14.418   8.218  0.0284 -0.1217  0.0965
  498PYPI   C3B 7647  12.595  14.516   7.715  0.2305 -0.1180 -0.2101
  498PYPI   C4B 7648  12.514  14.567   7.313 -0.2537 -0.2376  0.4528
  499PYPI    C1 7649  17.997  10.535  10.488 -0.3413  0.1510 -0.1484
  499PYPI    C2 7650  17.789  10.301  10.239 -0.4106 -0.0614  0.1048
  499PYPI    C3 7651  17.721  10.285  10.633 -0.0769  0.0359  0.1699
  499PYPI   PO4 7652  18.263  10.549  10.463  0.3606 -0.1556 -0.1525
  499PYPI   GL1 7653  18.423  10.627  10.075  0.4154  0.1227 -0.0460
  499PYPI   GL2 7654  18.146  10.692   9.924  0.1224  0.0685  0.0013
  499PYPI   C1A 7655  18.681  10.545   9.640 -0.2629  0.0120 -0.4993
  499PYPI   C2A 7656  18.785  10.496   9.191 -0.1961 -0.1310 -0.0190
  499PYPI   D3A 7657  18.969  10.555   8.850 -0.1123  0.3396  0.0341
  499PYPI   C4A 7658  19.420  10.615   8.673 -0.3199  0.1086 -0.1101
  499PYPI   C1B 7659  18.204  10.492   9.551  0.1096  0.2325 -0.3359
  499PYPI   C2B 7660  18.193  10.569   9.192  0.1050 -0.1859 -0.0979
  499PYPI   C3B 7661  18.371  10.673   8.754  0.1988  0.2252  0.0351
  499PYPI   C4B 7662  18.474  10.590   8.387  0.1355 -0.2227  0.2735
  500PYPI    C1 7663  10.292  14.617   9.499  0.4888 -0.3970 -0.0143
  500PYPI    C2 7664  10.072  14.367   9.720  0.0227  0.0058 -0.0051
  500PYPI    C3 7665  10.421  14.503   9.860 -0.1123  0.0026  0.3441
  500PYPI   PO4 7666  10.247  14.538   9.289  0.3530 -0.0383 -0.0814
  500PYPI   GL1 7667  10.407  14.301   8.982  0.2093 -0.1012  0.2070
  500PYPI   GL2 7668  10.621  14.433   8.759 -0.0350  0.1312  0.1501
  500PYPI   C1A 7669  10.106  14.163   8.754 -0.1824  0.0691 -0.0346
  500PYPI   C2A 7670  10.252  14.346   8.394 -0.0642  0.1081 -0.1230
  500PYPI   D3A 7671  10.589  14.386   8.185  0.0442 -0.3443 -0.2465
  500PYPI   C4A 7672  10.624  14.504   7.752 -0.4026  0.0962  0.1995
  500PYPI   C1B 7673  10.534  14.793   8.538  0.0041  0.1198 -0.1904
  500PYPI   C2B 7674  10.584  14.919   8.106 -0.0171  0.2473 -0.1642
  500PYPI   C3B 7675  10.720  15.055   7.834 -0.1126  0.1365  0.0171
  500PYPI   C4B 7676  10.829  15.380   7.607 -0.3149  0.2333 -0.4411
  501PYPI    C1 7677   6.673  10.816  10.440 -0.1210  0.1410  0.1827
  501PYPI    C2 7678   6.293  10.756  10.333 -0.0282 -0.1022 -0.0216
  501PYPI    C3 7679   6.529  10.444  10.416  0.0341  0.0611  0.4471
  501PYPI   PO4 7680   6.841  10.923  10.177 -0.1768  0.2418 -0.0679
  501PYPI   GL1 7681   6.994  11.093   9.810  0.0418 -0.1814 -0.1736
  501PYPI   GL2 7682   7.239  11.159   9.595 -0.2716  0.2644  0.1092
  501PYPI   C1A 7683   6.843  11.148   9.331  0.0595 -0.0803 -0.1186
  501PYPI   C2A 7684   6.855  11.127   8.900  0.0309 -0.1446 -0.0601
  501PYPI   D3A 7685   6.782  11.127   8.546 -0.1475  0.0393 -0.0185
  501PYPI   C4A 7686   6.481  11.422   8.358 -0.4083  0.0522 -0.0701
  501PYPI   C1B 7687   7.321  11.220   9.113  0.1085 -0.0362  0.1090
  501PYPI   C2B 7688   7.326  11.241   8.678 -0.1364  0.1606  0.1073
  501PYPI   C3B 7689   7.306  11.009   8.294  0.0931 -0.1591  0.0296
  501PYPI   C4B 7690   7.522  11.139   7.892 -0.1782  0.0725 -0.1884
  502PYPI    C1 7691  13.270   1.342  10.505  0.2121 -0.0847  0.1981
  502PYPI    C2 7692  13.489   1.018  10.420  0.0171 -0.2080  0.1581
  502PYPI    C3 7693  13.128   0.977  10.586  0.0286 -0.0056  0.2360
  502PYPI   PO4 7694  13.196   1.421  10.256 -0.1158 -0.3236 -0.0351
  502PYPI   GL1 7695  12.983   1.482   9.932 -0.2381 -0.0188  0.0436
  502PYPI   GL2 7696  12.940   1.698   9.689  0.2103 -0.0869  0.0640
  502PYPI   C1A 7697  13.008   1.153   9.599  0.2226 -0.0127 -0.1934
  502PYPI   C2A 7698  13.223   1.199   9.152  0.0566  0.1791 -0.0953
  502PYPI   D3A 7699  13.460   1.179   8.885 -0.0206  0.3814  0.0409
  502PYPI   C4A 7700  13.278   1.320   8.624  0.1565  0.0866 -0.1484
  502PYPI   C1B 7701  12.513   1.581   9.627 -0.1077 -0.3000  0.1092
  502PYPI   C2B 7702  12.198   1.643   9.254  0.0916 -0.1116 -0.0500
  502PYPI   C3B 7703  12.313   1.622   8.814  0.1451  0.1741 -0.0145
  502PYPI   C4B 7704  12.116   1.804   8.473  0.2068  0.0563 -0.0295
  503PYPI    C1 7705  13.215  10.594  10.067  0.1641  0.0087  0.0986
  503PYPI    C2 7706  13.443  10.333  10.266  0.2323 -0.0302 -0.0295
  503PYPI    C3 7707  13.509  10.726  10.304  0.0982 -0.0281  0.2016
  503PYPI   PO4 7708  13.190  10.569   9.818  0.0090 -0.1555  0.1728
  503PYPI   GL1 7709  13.508  10.528   9.412  0.0199 -0.3064  0.1539
  503PYPI   GL2 7710  13.214  10.313   9.429  0.0560 -0.1768  0.1280
  503PYPI   C1A 7711  13.646  10.464   8.971 -0.0527 -0.0368  0.3757
  503PYPI   C2A 7712  13.593  10.466   8.417  0.1045  0.0778 -0.1379
  503PYPI   D3A 7713  13.663  10.259   7.952 -0.0308 -0.0141  0.1052
  503PYPI   C4A 7714  14.105  10.138   7.915 -0.1004 -0.0197  0.0775
  503PYPI   C1B 7715  13.256  10.149   9.002  0.1966  0.0169  0.1521
  503PYPI   C2B 7716  13.186  10.150   8.516 -0.0164  0.0567  0.3151
  503PYPI   C3B 7717  13.065  10.530   8.264  0.0800  0.0347  0.0860
  503PYPI   C4B 7718  12.949  10.662   7.899  0.0200  0.0074  0.2040
  504PYPI    C1 7719  13.989   0.751  10.092  0.0337 -0.1491  0.1152
  504PYPI    C2 7720  14.118   0.415   9.919  0.1115 -0.0784  0.0350
  504PYPI    C3 7721  14.057   0.426  10.314  0.1447 -0.1755  0.0432
  504PYPI   PO4 7722  13.909   0.894   9.965 -0.2638  0.0153 -0.0063
  504PYPI   GL1 7723  13.854   1.275   9.616 -0.1064 -0.0202 -0.0515
  504PYPI   GL2 7724  13.529   1.388   9.582 -0.0594  0.1411  0.3377
  504PYPI   C1A 7725  13.904   1.260   9.191  0.1177 -0.1676  0.1710
  504PYPI   C2A 7726  14.071   1.118   8.817 -0.1660  0.1163  0.0360
  504PYPI   D3A 7727  14.111   0.908   8.455  0.2707  0.0308  0.0112
  504PYPI   C4A 7728  14.024   1.109   8.099  0.0037  0.0512 -0.3911
  504PYPI   C1B 7729  13.526   1.604   9.203 -0.1155 -0.2482 -0.0419
  504PYPI   C2B 7730  13.753   1.589   8.783  0.1157 -0.0660  0.1245
  504PYPI   C3B 7731  13.742   1.323   8.462  0.1068  0.0491 -0.1194
  504PYPI   C4B 7732  13.521   1.319   8.103  0.0207 -0.2307  0.1049
  505PYPI    C1 7733  16.358  15.426  10.328 -0.2205 -0.0239 -0.1411
  505PYPI    C2 7734  16.229  15.691  10.599 -0.6145 -0.2661 -0.0829
  505PYPI    C3 7735  16.176  15.299  10.661 -0.3194 -0.3470 -0.3135
  505PYPI   PO4 7736  16.654  15.552  10.210  0.0375 -0.0006 -0.1655
  505PYPI   GL1 7737  16.937  15.701   9.902  0.3738 -0.1388 -0.2538
  505PYPI   GL2 7738  16.993  15.495   9.707  0.0009  0.2112 -0.0322
  505PYPI   C1A 7739  16.634  15.758   9.484  0.0032  0.1810 -0.3118
  505PYPI   C2A 7740  16.460  15.738   9.104 -0.0845  0.2254  0.2794
  505PYPI   D3A 7741  16.234  15.555   8.790  0.0551 -0.0236 -0.0703
  505PYPI   C4A 7742  16.335  15.689   8.397  0.0789  0.3118 -0.2263
  505PYPI   C1B 7743  17.052  15.675   9.173  0.1722 -0.1719 -0.2182
  505PYPI   C2B 7744  17.160  15.823   8.732 -0.1090 -0.1757  0.1949
  505PYPI   C3B 7745  17.212  16.054   8.250 -0.2067  0.0666 -0.0749
  505PYPI   C4B 7746  17.481  16.363   7.927  0.0270  0.0661 -0.1958
  506ERGO   ROH 7747   2.145  13.717   9.800 -0.0490 -0.0484  0.0486
  506ERGO    R1 7748   2.084  13.787   9.533  0.0649 -0.0467  0.0220
  506ERGO    R2 7749   2.252  13.730   9.321  0.0739 -0.2066  0.0696
  506ERGO    R3 7750   2.031  13.610   9.219  0.0085 -0.0608  0.0398
  506ERGO    R4 7751   2.170  13.720   8.986  0.1214 -0.1695  0.0569
  506ERGO    R5 7752   1.962  13.755   9.041  0.1361 -0.0244  0.0203
  506ERGO    C1 7753   1.913  13.602   8.695  0.0877 -0.0112  0.0215
  506ERGO    C2 7754   1.766  13.428   8.409  0.1137 -0.1145  0.3459
  507ERGO   ROH 7755  15.167  14.889   9.765 -0.0105  0.0307 -0.1799
  507ERGO    R1 7756  15.028  14.870   9.519 -0.0605 -0.0704 -0.1449
  507ERGO    R2 7757  14.991  15.087   9.352 -0.1353 -0.1280 -0.2051
  507ERGO    R3 7758  15.106  14.924   9.167 -0.1455 -0.1652 -0.1785
  507ERGO    R4 7759  14.878  15.045   9.028 -0.0101 -0.0075 -0.2656
  507ERGO    R5 7760  14.921  14.832   9.046 -0.1442 -0.0362 -0.2799
  507ERGO    C1 7761  14.919  14.867   8.666  0.0530  0.0276 -0.2758
  507ERGO    C2 7762  14.904  14.941   8.336  0.0201  0.2373  0.0257
  508ERGO   ROH 7763  11.285   3.126   9.696 -0.1678 -0.2542  0.0625
  508ERGO    R1 7764  11.241   2.983   9.456  0.0113 -0.3353  0.0760
  508ERGO    R2 7765  11.180   3.107   9.218 -0.2450 -0.4379  0.0817
  508ERGO    R3 7766  11.394   2.966   9.126 -0.0306 -0.0952  0.0434
  508ERGO    R4 7767  11.201   2.964   8.904 -0.1783 -0.6145  0.1661
  508ERGO    R5 7768  11.296   2.790   8.995  0.2169 -0.3752  0.2264
  508ERGO    C1 7769  11.413   2.749   8.634  0.0619 -0.3957  0.1795
  508ERGO    C2 7770  11.487   2.643   8.297 -0.1655 -0.0074 -0.1925
  509ERGO   ROH 7771   6.918  14.505   9.303 -0.2772  0.0492  0.1857
  509ERGO    R1 7772   6.879  14.536   9.025 -0.1860  0.0881  0.1768
  509ERGO    R2 7773   6.836  14.781   8.906  0.0793  0.1328  0.1666
  509ERGO    R3 7774   7.047  14.708   8.751  0.0443 -0.0729  0.2140
  509ERGO    R4 7775   6.845  14.804   8.562  0.1228 -0.0169  0.1574
  509ERGO    R5 7776   6.947  14.611   8.557 -0.0046 -0.0880  0.2463
  509ERGO    C1 7777   7.049  14.748   8.215  0.1152 -0.2973  0.1965
  509ERGO    C2 7778   6.987  15.119   7.953  0.1279  0.0322  0.1445
  510ERGO   ROH 7779   7.799  11.808   9.980 -0.0216  0.2053 -0.0363
  510ERGO    R1 7780   7.669  11.698   9.753  0.1029  0.0079 -0.0154
  510ERGO    R2 7781   7.477  11.837   9.610 -0.1685 -0.2929  0.0403
  510ERGO    R3 7782   7.641  11.781   9.400 -0.1175 -0.0029 -0.0006
  510ERGO    R4 7783   7.373  11.797   9.283 -0.1295 -0.1686  0.0124
  510ERGO    R5 7784   7.513  11.632   9.263  0.0204 -0.0272 -0.1010
  510ERGO    C1 7785   7.465  11.721   8.895 -0.0588  0.1762 -0.0421
  510ERGO    C2 7786   7.439  11.670   8.512 -0.1749  0.2864 -0.2243
  511ERGO   ROH 7787  14.115  16.810   9.397  0.1329 -0.1430  0.0962
  511ERGO    R1 7788  14.179  16.896   9.135  0.2887 -0.0434  0.1656
  511ERGO    R2 7789  14.404  16.809   9.000  0.1107 -0.3894  0.0789
  511ERGO    R3 7790  14.224  16.741   8.809 -0.0521  0.1375  0.0268
  511ERGO    R4 7791  14.471  16.797   8.661  0.1385 -0.4695  0.0870
  511ERGO    R5 7792  14.275  16.885   8.625  0.3634  0.0656  0.0752
  511ERGO    C1 7793  14.340  16.725   8.284  0.0019 -0.0216  0.0428
  511ERGO    C2 7794  14.464  16.629   8.027  0.1920  0.0218 -0.4011
  512ERGO   ROH 7795   5.016   9.173   9.616  0.0731 -0.0800 -0.0335
  512ERGO    R1 7796   4.881   9.059   9.395  0.0216 -0.0727 -0.0052
  512ERGO    R2 7797   4.806   9.206   9.174 -0.0535 -0.0614  0.0319
  512ERGO    R3 7798   4.946   9.017   9.039 -0.0764 -0.0370 -0.0283
  512ERGO    R4 7799   4.771   9.137   8.837 -0.0416  0.0747  0.0015
  512ERGO    R5 7800   4.788   8.925   8.883 -0.0838  0.0508 -0.0763
  512ERGO    C1 7801   4.883   8.919   8.514 -0.0560  0.1769 -0.0727
  512ERGO    C2 7802   4.901   8.920   8.142  0.0574  0.2447 -0.2329
  513ERGO   ROH 7803   8.814  17.862   7.325 -0.1675 -0.0022  0.0103
  513ERGO    R1 7804   8.562  17.988   7.348 -0.1255  0.1040 -0.0993
  513ERGO    R2 7805   8.475  18.104   7.583 -0.2590 -0.0370 -0.0782
  513ERGO    R3 7806   8.439  18.322   7.424 -0.0214  0.1075  0.0601
  513ERGO    R4 7807   8.230  18.344   7.629 -0.2513 -0.0147 -0.1529
  513ERGO    R5 7808   8.202  18.349   7.412 -0.0055  0.1744 -0.1874
  513ERGO    C1 7809   8.054  18.688   7.506 -0.0238  0.1339 -0.0666
  513ERGO    C2 7810   8.011  19.040   7.447  0.1850  0.0970  0.1739
  514ERGO   ROH 7811  12.738  10.514   9.588  0.0818  0.0158  0.1296
  514ERGO    R1 7812  12.683  10.581   9.318 -0.0401 -0.0569  0.1356
  514ERGO    R2 7813  12.871  10.555   9.118 -0.0605  0.0938  0.0978
  514ERGO    R3 7814  12.676  10.408   8.999  0.0432 -0.0933  0.1527
  514ERGO    R4 7815  12.881  10.440   8.792 -0.0947  0.2092  0.0553
  514ERGO    R5 7816  12.670  10.489   8.773 -0.1645 -0.0257  0.1798
  514ERGO    C1 7817  12.704  10.236   8.490 -0.0171  0.1007  0.0821
  514ERGO    C2 7818  12.633  10.154   8.191 -0.0548 -0.1913 -0.2225
  515ERGO   ROH 7819   7.895   3.541   9.563 -0.0154  0.2337  0.0347
  515ERGO    R1 7820   8.043   3.689   9.373 -0.0057  0.2434  0.0509
  515ERGO    R2 7821   8.316   3.663   9.345 -0.0327  0.1131 -0.0562
  515ERGO    R3 7822   8.253   3.615   9.085 -0.1454  0.2682 -0.0598
  515ERGO    R4 7823   8.539   3.682   9.081  0.0127 -0.3142 -0.0567
  515ERGO    R5 7824   8.382   3.776   8.962  0.1898  0.0281 -0.0441
  515ERGO    C1 7825   8.610   3.648   8.684 -0.0666 -0.4175 -0.0604
  515ERGO    C2 7826   8.740   3.659   8.437 -0.2199  0.2561  0.1990
  516ERGO   ROH 7827   2.460  18.082   9.641 -0.3882  0.0794  0.2088
  516ERGO    R1 7828   2.402  18.019   9.371 -0.2152  0.2994  0.1178
  516ERGO    R2 7829   2.244  17.805   9.298  0.1063  0.1505 -0.1709
  516ERGO    R3 7830   2.105  17.995   9.162 -0.1209  0.1119  0.0013
  516ERGO    R4 7831   2.052  17.745   9.017  0.1797  0.1695 -0.2253
  516ERGO    R5 7832   2.127  17.931   8.932 -0.0401  0.3430 -0.0592
  516ERGO    C1 7833   1.809  17.888   8.726  0.0092  0.1446 -0.0953
  516ERGO    C2 7834   1.627  17.575   8.708 -0.0091  0.3743  0.0572
  517ERGO   ROH 7835  13.602   9.997   9.339  0.2650  0.1262 -0.0570
  517ERGO    R1 7836  13.755   9.961   9.104  0.2015 -0.0366 -0.0752
  517ERGO    R2 7837  13.717   9.748   8.932 -0.0302 -0.0084 -0.0602
  517ERGO    R3 7838  13.691   9.945   8.746  0.1402  0.0093 -0.0668
  517ERGO    R4 7839  13.775   9.709   8.593 -0.1027 -0.0863 -0.0637
  517ERGO    R5 7840  13.870   9.905   8.592  0.0889 -0.1748 -0.0834
  517ERGO    C1 7841  13.784   9.871   8.222  0.0152 -0.1151 -0.0720
  517ERGO    C2 7842  13.729   9.794   7.903 -0.2617 -0.1501  0.1922
  518ERGO   ROH 7843  13.162   2.199   9.555 -0.0606  0.0482  0.0855
  518ERGO    R1 7844  13.238   2.047   9.329 -0.0040  0.0754  0.0848
  518ERGO    R2 7845  13.083   1.842   9.227  0.1093 -0.0418  0.1335
  518ERGO    R3 7846  13.105   1.983   8.996 -0.0300 -0.0446  0.1189
  518ERGO    R4 7847  13.109   1.702   8.912  0.3589 -0.0522  0.1583
  518ERGO    R5 7848  13.257   1.855   8.862  0.1679  0.1364  0.1678
  518ERGO    C1 7849  13.146   1.753   8.512  0.3735 -0.0608  0.1590
  518ERGO    C2 7850  13.133   1.554   8.173 -0.3888 -0.0786 -0.0568
  519ERGO   ROH 7851  17.398   6.326   9.687  0.1912 -0.0817 -0.0863
  519ERGO    R1 7852  17.237   6.283   9.458  0.1092 -0.0439 -0.0363
  519ERGO    R2 7853  17.156   6.490   9.293  0.0984 -0.0235 -0.0054
  519ERGO    R3 7854  17.269   6.336   9.100  0.0058 -0.0422 -0.0455
  519ERGO    R4 7855  17.101   6.526   8.953  0.0854  0.0689  0.0061
  519ERGO    R5 7856  17.097   6.309   8.936 -0.0225  0.0738 -0.0358
  519ERGO    C1 7857  17.176   6.402   8.575 -0.0090  0.1052 -0.0249
  519ERGO    C2 7858  17.183   6.342   8.268  0.0552  0.0805  0.0240
  520ERGO   ROH 7859  16.594   3.212   9.731  0.0886  0.1128 -0.0387
  520ERGO    R1 7860  16.681   3.226   9.461  0.3263 -0.2689  0.0102
  520ERGO    R2 7861  16.680   3.007   9.293 -0.1482 -0.3754  0.1352
  520ERGO    R3 7862  16.534   3.171   9.133  0.4004 -0.0519 -0.0606
  520ERGO    R4 7863  16.554   2.919   8.983 -0.3819 -0.3008  0.2070
  520ERGO    R5 7864  16.608   3.118   8.911  0.2812 -0.5276  0.0035
  520ERGO    C1 7865  16.344   3.022   8.653 -0.0027  0.0463  0.0650
  520ERGO    C2 7866  16.155   2.987   8.378  0.1694  0.2365  0.0224
  521ERGO   ROH 7867   8.278  16.011   8.979 -0.0835 -0.3306  0.0512
  521ERGO    R1 7868   8.300  16.123   8.719 -0.1948 -0.0963  0.1400
  521ERGO    R2 7869   8.432  15.994   8.513 -0.0651  0.2023  0.0351
  521ERGO    R3 7870   8.196  16.032   8.383 -0.1036  0.0719  0.0642
  521ERGO    R4 7871   8.393  15.995   8.169 -0.0922  0.2448  0.0375
  521ERGO    R5 7872   8.254  16.161   8.190 -0.2035  0.1514  0.0838
  521ERGO    C1 7873   8.150  16.030   7.847 -0.1442  0.1472  0.0664
  521ERGO    C2 7874   8.251  15.949   7.559  0.0293 -0.1433 -0.0051
  522ERGO   ROH 7875  12.141  18.440   9.490  0.2896 -0.1277  0.0978
  522ERGO    R1 7876  12.067  18.485   9.221  0.1208 -0.0928  0.1489
  522ERGO    R2 7877  12.209  18.652   9.053  0.0047 -0.0552  0.0863
  522ERGO    R3 7878  12.217  18.432   8.893 -0.0745 -0.0306  0.0485
  522ERGO    R4 7879  12.392  18.626   8.761  0.0940 -0.1156  0.1468
  522ERGO    R5 7880  12.224  18.520   8.671  0.0605  0.0055  0.0670
  522ERGO    C1 7881  12.505  18.405   8.441  0.0717 -0.1276  0.1466
  522ERGO    C2 7882  12.535  18.334   8.156  0.2485 -0.0898 -0.1595
  523ERGO   ROH 7883   4.929   6.476   9.408  0.0223  0.1006 -0.0041
  523ERGO    R1 7884   4.924   6.547   9.134  0.0283 -0.0219 -0.0358
  523ERGO    R2 7885   5.094   6.435   8.947 -0.0165 -0.1543  0.0060
  523ERGO    R3 7886   4.862   6.378   8.818 -0.0374 -0.1445  0.0425
  523ERGO    R4 7887   5.064   6.377   8.607 -0.0570 -0.2762  0.0288
  523ERGO    R5 7888   4.880   6.492   8.608 -0.0250 -0.2306 -0.0021
  523ERGO    C1 7889   4.829   6.290   8.289 -0.1001 -0.3381  0.0763
  523ERGO    C2 7890   4.789   6.314   8.042  0.2055 -0.1243 -0.2813
  524ERGO   ROH 7891  12.412  14.022   9.126  0.1011  0.2486 -0.0428
  524ERGO    R1 7892  12.518  13.780   9.027 -0.0016  0.1658  0.0463
  524ERGO    R2 7893  12.373  13.608   8.867 -0.0616  0.1876  0.0723
  524ERGO    R3 7894  12.586  13.634   8.700 -0.0209  0.0372  0.0998
  524ERGO    R4 7895  12.390  13.480   8.546 -0.2478  0.4726 -0.0547
  524ERGO    R5 7896  12.597  13.425   8.584 -0.3270  0.1303 -0.1054
  524ERGO    C1 7897  12.599  13.430   8.203 -0.3181  0.4976 -0.1030
  524ERGO    C2 7898  12.722  13.450   7.938 -0.2350  0.1244  0.1187
  525ERGO   ROH 7899   2.623  10.312   9.839 -0.2542 -0.0112 -0.0748
  525ERGO    R1 7900   2.654  10.183   9.589 -0.1672 -0.0356 -0.0524
  525ERGO    R2 7901   2.453  10.177   9.400 -0.0693  0.0304 -0.1632
  525ERGO    R3 7902   2.646  10.280   9.238  0.0587 -0.0486 -0.0619
  525ERGO    R4 7903   2.484  10.111   9.062  0.0774  0.0314 -0.1502
  525ERGO    R5 7904   2.700  10.101   9.089  0.0580 -0.0643 -0.0404
  525ERGO    C1 7905   2.683  10.169   8.714  0.2830 -0.0422 -0.0475
  525ERGO    C2 7906   2.602  10.128   8.382  0.1877  0.0832 -0.1262
  526ERGO   ROH 7907   4.618  15.935   9.424 -0.4817 -0.2428  0.1521
  526ERGO    R1 7908   4.474  15.896   9.184 -0.2622  0.0348 -0.0313
  526ERGO    R2 7909   4.543  16.020   8.947  0.1659  0.0465  0.0925
  526ERGO    R3 7910   4.545  15.766   8.852 -0.0472  0.0787 -0.0043
  526ERGO    R4 7911   4.496  15.933   8.616  0.2429  0.2258  0.0327
  526ERGO    R5 7912   4.375  15.764   8.683  0.0335  0.3201 -0.0933
  526ERGO    C1 7913   4.470  15.643   8.334  0.0878  0.3605 -0.0930
  526ERGO    C2 7914   4.749  15.638   8.078  0.0785  0.3515  0.1572
  527ERGO   ROH 7915  17.973   0.344   9.690  0.0955 -0.2018 -0.1907
  527ERGO    R1 7916  18.080   0.470   9.460 -0.0163 -0.0655 -0.1693
  527ERGO    R2 7917  18.209   0.330   9.260  0.0826  0.0806 -0.2085
  527ERGO    R3 7918  18.027   0.453   9.100 -0.0239 -0.0262 -0.1703
  527ERGO    R4 7919  18.260   0.409   8.927 -0.0576  0.0470 -0.2381
  527ERGO    R5 7920  18.157   0.599   8.962 -0.1309  0.0089 -0.2368
  527ERGO    C1 7921  18.117   0.570   8.584 -0.2391 -0.0729 -0.2196
  527ERGO    C2 7922  18.251   0.533   8.262 -0.0937 -0.0875  0.1567
  528ERGO   ROH 7923   4.352   4.411   9.705 -0.0062 -0.1569  0.1241
  528ERGO    R1 7924   4.228   4.506   9.469 -0.0929 -0.2203  0.1451
  528ERGO    R2 7925   4.371   4.606   9.255 -0.1852 -0.0482  0.1693
  528ERGO    R3 7926   4.231   4.419   9.115 -0.0194 -0.1432  0.1247
  528ERGO    R4 7927   4.385   4.566   8.912 -0.2493  0.1529  0.1413
  528ERGO    R5 7928   4.169   4.532   8.913 -0.2198 -0.0998  0.2017
  528ERGO    C1 7929   4.261   4.368   8.581 -0.1309  0.1808  0.0830
  528ERGO    C2 7930   4.407   4.157   8.394 -0.1948  0.0453 -0.0513
  529ERGO   ROH 7931   3.327   8.317   9.680  0.1406 -0.0703  0.0080
  529ERGO    R1 7932   3.179   8.241   9.451  0.0688 -0.1949  0.0948
  529ERGO    R2 7933   3.201   8.373   9.209 -0.2342 -0.1309  0.1008
  529ERGO    R3 7934   3.253   8.123   9.115 -0.0263 -0.0617  0.0247
  529ERGO    R4 7935   3.142   8.268   8.885 -0.2007 -0.0881  0.0807
  529ERGO    R5 7936   3.071   8.078   8.964 -0.0184 -0.1787  0.0441
  529ERGO    C1 7937   3.156   7.973   8.607  0.0139  0.0017 -0.0024
  529ERGO    C2 7938   3.175   7.955   8.227 -0.1745 -0.4310  0.0153
  530ERGO   ROH 7939   6.089   0.631   9.292  0.3489  0.1113 -0.1499
  530ERGO    R1 7940   6.052   0.555   9.022  0.3263  0.1746 -0.1641
  530ERGO    R2 7941   5.821   0.611   8.882  0.2123 -0.0200 -0.0508
  530ERGO    R3 7942   5.993   0.725   8.705  0.0217  0.2329 -0.0805
  530ERGO    R4 7943   5.763   0.642   8.542  0.1336 -0.1712 -0.0526
  530ERGO    R5 7944   5.972   0.591   8.507  0.2228  0.1593 -0.0571
  530ERGO    C1 7945   5.891   0.767   8.179 -0.0911 -0.0218 -0.0816
  530ERGO    C2 7946   5.747   0.849   7.919 -0.1081 -0.1597 -0.2060
  531ERGO   ROH 7947   1.861  16.252   9.651 -0.1960  0.0006 -0.1262
  531ERGO    R1 7948   1.666  16.158   9.469 -0.1536 -0.1049 -0.1180
  531ERGO    R2 7949   1.597  16.296   9.240 -0.3310 -0.0763 -0.0494
  531ERGO    R3 7950   1.657  16.061   9.118 -0.1449  0.0233 -0.1537
  531ERGO    R4 7951   1.527  16.221   8.910 -0.3223 -0.0075 -0.0669
  531ERGO    R5 7952   1.471  16.020   8.972 -0.1348 -0.0826 -0.1368
  531ERGO    C1 7953   1.543  15.957   8.603 -0.1425  0.1260 -0.1750
  531ERGO    C2 7954   1.485  15.914   8.443 -0.3036  0.1336 -0.0405
  532ERGO   ROH 7955  10.676  13.614   9.146 -0.2663 -0.0531  0.0545
  532ERGO    R1 7956  10.497  13.694   8.941 -0.2112 -0.1915 -0.0479
  532ERGO    R2 7957  10.570  13.870   8.741 -0.2487 -0.0902  0.0327
  532ERGO    R3 7958  10.483  13.670   8.578  0.0459 -0.1458 -0.0640
  532ERGO    R4 7959  10.548  13.891   8.396 -0.2024  0.0216  0.0353
  532ERGO    R5 7960  10.359  13.782   8.407 -0.0693 -0.2348 -0.0449
  532ERGO    C1 7961  10.454  13.716   8.043  0.1010  0.0345 -0.0539
  532ERGO    C2 7962  10.507  13.541   7.801  0.1006  0.0009 -0.1155
  533ERGO   ROH 7963   1.596   5.947   9.382 -0.3764 -0.1708  0.0420
  533ERGO    R1 7964   1.721   5.920   9.129 -0.1561 -0.0619  0.1345
  533ERGO    R2 7965   1.689   5.695   8.971 -0.0284  0.0018 -0.0008
  533ERGO    R3 7966   1.613   5.877   8.785  0.1352  0.0949  0.0234
  533ERGO    R4 7967   1.675   5.636   8.631 -0.1077  0.0730 -0.0091
  533ERGO    R5 7968   1.756   5.835   8.598  0.0757 -0.0092  0.0114
  533ERGO    C1 7969   1.595   5.772   8.258 -0.0004  0.2018  0.0088
  533ERGO    C2 7970   1.650   5.732   7.917  0.1578 -0.0590  0.0591
  534ERGO   ROH 7971  14.901  17.855   9.520 -0.1459  0.2397 -0.0767
  534ERGO    R1 7972  15.127  17.884   9.351 -0.2054  0.1725 -0.1680
  534ERGO    R2 7973  15.108  17.872   9.076 -0.3252  0.2013 -0.1607
  534ERGO    R3 7974  15.232  18.114   9.089 -0.2313  0.1560 -0.1933
  534ERGO    R4 7975  15.261  18.030   8.809 -0.3361  0.1436 -0.2020
  534ERGO    R5 7976  15.421  18.091   8.944 -0.2769  0.0846 -0.2436
  534ERGO    C1 7977  15.466  18.349   8.666 -0.2545  0.0676 -0.2565
  534ERGO    C2 7978  15.460  18.439   8.311 -0.1223 -0.2670  0.0798
  535ERGO   ROH 7979  11.739  17.354   9.428  0.3469  0.0548 -0.1159
  535ERGO    R1 7980  11.594  17.371   9.185  0.2499 -0.0280 -0.0646
  535ERGO    R2 7981  11.607  17.591   9.019  0.0256  0.0010 -0.0466
  535ERGO    R3 7982  11.674  17.406   8.832  0.1022  0.0711 -0.0889
  535ERGO    R4 7983  11.595  17.643   8.677 -0.0367  0.0605 -0.0357
  535ERGO    R5 7984  11.516  17.440   8.655  0.0655  0.0236 -0.0656
  535ERGO    C1 7985  11.652  17.499   8.303 -0.0012  0.1610 -0.0690
  535ERGO    C2 7986  11.764  17.544   7.957 -0.0405 -0.0484 -0.0231
  536ERGO   ROH 7987   6.482  11.244   9.647  0.0814 -0.0982 -0.0754
  536ERGO    R1 7988   6.345  11.355   9.425 -0.0669 -0.0406  0.0406
  536ERGO    R2 7989   6.467  11.394   9.180 -0.1288  0.3269  0.0514
  536ERGO    R3 7990   6.256  11.248   9.089  0.0250  0.1663 -0.0482
  536ERGO    R4 7991   6.349  11.399   8.855 -0.1625  0.4315  0.0660
  536ERGO    R5 7992   6.146  11.393   8.934 -0.1451  0.1514  0.0694
  536ERGO    C1 7993   6.082  11.265   8.581 -0.0377  0.3417 -0.0189
  536ERGO    C2 7994   5.948  11.273   8.309  0.2476 -0.1721 -0.1676
  537ERGO   ROH 7995  11.998  13.628   9.187  0.1852  0.0653 -0.0500
  537ERGO    R1 7996  11.911  13.806   8.985  0.2652  0.1362 -0.0237
  537ERGO    R2 7997  12.083  13.976   8.852  0.4069 -0.1548 -0.2308
  537ERGO    R3 7998  11.979  13.857   8.631  0.0283 -0.0753 -0.1019
  537ERGO    R4 7999  12.075  14.117   8.537  0.0880 -0.1477 -0.2226
  537ERGO    R5 8000  11.874  14.036   8.511 -0.0052 -0.0027  0.0387
  537ERGO    C1 8001  11.973  14.088   8.146 -0.4531 -0.0689 -0.0968
  537ERGO    C2 8002  12.186  14.247   7.775 -0.1029  0.0599 -0.0467
  538ERGO   ROH 8003  17.856   6.168   9.712  0.0261  0.0493  0.0519
  538ERGO    R1 8004  17.970   6.181   9.454 -0.1411  0.1125 -0.0202
  538ERGO    R2 8005  18.107   5.968   9.341 -0.0146  0.2174 -0.0665
  538ERGO    R3 8006  17.930   6.004   9.138 -0.1728  0.0234  0.0334
  538ERGO    R4 8007  18.160   5.874   9.013 -0.2039  0.0562 -0.0535
  538ERGO    R5 8008  18.066   6.060   8.949 -0.3298 -0.0220 -0.0944
  538ERGO    C1 8009  18.025   5.853   8.631 -0.4626 -0.2197  0.0479
  538ERGO    C2 8010  17.812   5.684   8.416  0.2439 -0.0859  0.1553
  539ERGO   ROH 8011   6.026  18.147   9.296 -0.4313  0.3994  0.0494
  539ERGO    R1 8012   5.903  18.202   9.047 -0.1712  0.1508 -0.1410
  539ERGO    R2 8013   6.021  18.139   8.806 -0.0059 -0.2827  0.0452
  539ERGO    R3 8014   5.786  18.009   8.762 -0.0709 -0.1603  0.0222
  539ERGO    R4 8015   5.859  18.121   8.501 -0.1442  0.0742  0.0929
  539ERGO    R5 8016   5.669  18.148   8.605 -0.0921  0.0389  0.2061
  539ERGO    C1 8017   5.544  17.989   8.282 -0.2855  0.3972  0.0991
  539ERGO    C2 8018   5.604  17.912   7.968 -0.1979  0.0641  0.1940
  540ERGO   ROH 8019  17.097   0.866   9.778 -0.1316 -0.0174  0.0069
  540ERGO    R1 8020  17.075   0.932   9.504 -0.3148  0.0306  0.0321
  540ERGO    R2 8021  17.208   0.792   9.306 -0.1204  0.3169 -0.0420
  540ERGO    R3 8022  16.959   0.767   9.201 -0.1111 -0.0811  0.0118
  540ERGO    R4 8023  17.140   0.743   8.971 -0.1135  0.4511 -0.0639
  540ERGO    R5 8024  16.972   0.881   8.990 -0.3840  0.1194  0.0951
  540ERGO    C1 8025  16.866   0.692   8.677 -0.1005  0.1556 -0.0261
  540ERGO    C2 8026  16.802   0.704   8.362  0.0858 -0.0935  0.0888
  541ERGO   ROH 8027   5.631  13.354   9.617  0.0273  0.0386  0.1564
  541ERGO    R1 8028   5.463  13.248   9.415  0.0039  0.1511  0.1143
  541ERGO    R2 8029   5.307  13.407   9.252  0.1625  0.2623  0.0574
  541ERGO    R3 8030   5.436  13.275   9.053  0.1286  0.1567  0.1067
  541ERGO    R4 8031   5.204  13.398   8.922  0.2307  0.2500  0.0372
  541ERGO    R5 8032   5.260  13.187   8.916  0.1168  0.2254  0.0870
  541ERGO    C1 8033   5.265  13.268   8.543  0.2385  0.1437  0.0718
  541ERGO    C2 8034   5.184  13.104   8.166  0.0812  0.1685 -0.1489
  542ERGO   ROH 8035  12.110  15.649   8.695 -0.0714 -0.1934 -0.0735
  542ERGO    R1 8036  12.161  15.768   8.444 -0.0601 -0.0645 -0.0112
  542ERGO    R2 8037  12.210  16.038   8.415 -0.0066 -0.0553  0.1350
  542ERGO    R3 8038  12.435  15.951   8.289 -0.0309 -0.0341  0.0777
  542ERGO    R4 8039  12.312  16.138   8.100 -0.1322 -0.1067  0.0781
  542ERGO    R5 8040  12.371  15.932   8.059 -0.1019 -0.1002  0.1047
  542ERGO    C1 8041  12.582  16.113   7.798 -0.2280 -0.1165 -0.0089
  542ERGO    C2 8042  12.678  16.297   7.442 -0.1126 -0.1301  0.0323
  543ERGO   ROH 8043   6.841  16.938   9.013 -0.0085 -0.0951 -0.0120
  543ERGO    R1 8044   6.916  16.939   8.741  0.1009 -0.0400  0.0183
  543ERGO    R2 8045   7.134  16.799   8.645  0.0216 -0.1791  0.0472
  543ERGO    R3 8046   6.950  16.694   8.474  0.0023  0.0446 -0.0743
  543ERGO    R4 8047   7.209  16.655   8.340  0.0536 -0.2639  0.0941
  543ERGO    R5 8048   7.032  16.753   8.256  0.2200 -0.0457 -0.0219
  543ERGO    C1 8049   7.081  16.473   8.001  0.0542 -0.1032  0.0074
  543ERGO    C2 8050   7.064  16.297   7.739  0.0993 -0.2593  0.1112
  544ERGO   ROH 8051   4.729  17.780   9.593 -0.1395 -0.0770  0.0829
  544ERGO    R1 8052   4.851  17.685   9.356 -0.1060 -0.1015  0.1100
  544ERGO    R2 8053   4.805  17.432   9.256 -0.1801 -0.0714  0.0692
  544ERGO    R3 8054   4.739  17.567   9.030 -0.0549 -0.0203  0.0624
  544ERGO    R4 8055   4.791  17.293   8.940 -0.3420 -0.0859  0.0815
  544ERGO    R5 8056   4.882  17.475   8.862 -0.1578 -0.1834  0.0612
  544ERGO    C1 8057   4.722  17.339   8.544 -0.3186 -0.0464  0.0823
  544ERGO    C2 8058   4.644  17.300   8.219 -0.1464  0.2224  0.1464
  545ERGO   ROH 8059  17.459   4.573   9.792  0.3235 -0.2175  0.0942
  545ERGO    R1 8060  17.389   4.466   9.540  0.1008 -0.1439  0.1235
  545ERGO    R2 8061  17.132   4.480   9.439  0.0943  0.2401  0.1814
  545ERGO    R3 8062  17.256   4.595   9.226  0.2260  0.0223  0.1369
  545ERGO    R4 8063  17.053   4.422   9.107  0.0581  0.1682  0.2021
  545ERGO    R5 8064  17.265   4.422   9.061  0.0653 -0.0645  0.2152
  545ERGO    C1 8065  17.124   4.496   8.715  0.1608 -0.0781  0.1724
  545ERGO    C2 8066  17.023   4.556   8.446  0.0584  0.0394  0.0135
  546ERGO   ROH 8067   9.097  15.109   9.085 -0.2209 -0.1418  0.1796
  546ERGO    R1 8068   9.085  15.051   8.808  0.0675 -0.0699  0.1477
  546ERGO    R2 8069   8.870  15.126   8.650  0.0299 -0.4003  0.0325
  546ERGO    R3 8070   9.063  15.243   8.499 -0.0725  0.0068  0.2042
  546ERGO    R4 8071   8.857  15.162   8.307  0.2645 -0.4518  0.0168
  546ERGO    R5 8072   9.069  15.112   8.298  0.3901 -0.0011  0.2122
  546ERGO    C1 8073   9.030  15.293   7.965  0.3049 -0.0997  0.1689
  546ERGO    C2 8074   9.007  15.352   7.589  0.2629 -0.1482  0.2277
  547ERGO   ROH 8075   9.447   1.800   9.577 -0.1739  0.0290  0.0293
  547ERGO    R1 8076   9.604   1.925   9.378 -0.0721 -0.0590  0.0529
  547ERGO    R2 8077   9.737   1.783   9.182 -0.1244 -0.1348  0.0685
  547ERGO    R3 8078   9.602   1.949   9.015 -0.0075 -0.0543  0.0534
  547ERGO    R4 8079   9.815   1.837   8.850  0.0849  0.0056  0.1390
  547ERGO    R5 8080   9.771   2.048   8.878  0.0825 -0.0062  0.2013
  547ERGO    C1 8081   9.734   2.024   8.499  0.3165  0.1630  0.1657
  547ERGO    C2 8082   9.615   1.893   8.171 -0.0865 -0.0764 -0.4042
  548ERGO   ROH 8083   5.139   0.112   9.211  0.1120  0.0911 -0.1119
  548ERGO    R1 8084   4.952   0.146   9.001  0.1054  0.0938 -0.1050
  548ERGO    R2 8085   4.856   0.394   8.926  0.1025  0.0928 -0.0970
  548ERGO    R3 8086   4.942   0.317   8.680  0.0929  0.0987 -0.1027
  548ERGO    R4 8087   4.761   0.543   8.629  0.1669  0.1685 -0.0803
  548ERGO    R5 8088   4.750   0.344   8.539  0.1072  0.1822 -0.1097
  548ERGO    C1 8089   4.788   0.557   8.224  0.1952  0.2181 -0.0758
  548ERGO    C2 8090   4.765   0.737   8.030 -0.4324 -0.1766  0.1219
  549ERGO   ROH 8091   9.273   7.547   9.979  0.0181 -0.1438 -0.1988
  549ERGO    R1 8092   9.330   7.707   9.753  0.0589 -0.0514 -0.1249
  549ERGO    R2 8093   9.486   7.618   9.544  0.1335  0.0484 -0.1166
  549ERGO    R3 8094   9.270   7.689   9.394  0.1633  0.0692 -0.1482
  549ERGO    R4 8095   9.481   7.631   9.198  0.1484 -0.0638 -0.1205
  549ERGO    R5 8096   9.363   7.814   9.212  0.2088 -0.0225 -0.1862
  549ERGO    C1 8097   9.275   7.705   8.857  0.1851 -0.1097 -0.1527
  549ERGO    C2 8098   9.362   7.567   8.549  0.1411 -0.0597  0.1406
  550ERGO   ROH 8099  16.393   4.183   9.951 -0.3034  0.1774  0.1584
  550ERGO    R1 8100  16.186   4.167   9.759 -0.1822 -0.0070  0.0415
  550ERGO    R2 8101  16.205   4.286   9.510 -0.1433 -0.0007  0.0504
  550ERGO    R3 8102  16.149   4.035   9.421  0.1190 -0.0529  0.0225
  550ERGO    R4 8103  16.121   4.206   9.185 -0.1821 -0.0284  0.0668
  550ERGO    R5 8104  15.972   4.067   9.263  0.0122 -0.2257  0.1009
  550ERGO    C1 8105  16.019   3.924   8.912  0.0415 -0.0935  0.0500
  550ERGO    C2 8106  15.921   3.879   8.671 -0.0603 -0.1136  0.0267
  551ERGO   ROH 8107  16.814  11.308   9.803  0.1254  0.2989  0.0598
  551ERGO    R1 8108  17.008  11.397   9.617  0.1321  0.2702  0.0528
  551ERGO    R2 8109  17.060  11.262   9.381  0.2563  0.1427  0.1515
  551ERGO    R3 8110  17.010  11.505   9.269  0.1705  0.0485 -0.0177
  551ERGO    R4 8111  17.116  11.342   9.050  0.2368 -0.0690  0.0962
  551ERGO    R5 8112  17.190  11.537   9.114  0.1647  0.0048 -0.0351
  551ERGO    C1 8113  17.102  11.616   8.751  0.1452 -0.2807 -0.0948
  551ERGO    C2 8114  17.191  11.847   8.518 -0.3781 -0.1603  0.3015
  552ERGO   ROH 8115   1.541  12.399  10.030 -0.1902 -0.1404  0.1706
  552ERGO    R1 8116   1.341  12.350   9.835 -0.1779 -0.0056  0.1234
  552ERGO    R2 8117   1.286  12.528   9.631 -0.0465  0.0569  0.1418
  552ERGO    R3 8118   1.328  12.310   9.474 -0.1283  0.0604  0.1141
  552ERGO    R4 8119   1.188  12.501   9.301  0.1667  0.2341  0.0612
  552ERGO    R5 8120   1.130  12.294   9.340 -0.0481  0.2736 -0.0347
  552ERGO    C1 8121   1.170  12.281   8.961  0.2141  0.3407 -0.0118
  552ERGO    C2 8122   1.199  12.337   8.639  0.0803 -0.1224 -0.0822
  553ERGO   ROH 8123   4.018   7.351   9.312 -0.1295 -0.4038  0.0035
  553ERGO    R1 8124   4.003   7.389   9.032 -0.0925 -0.2059  0.0252
  553ERGO    R2 8125   4.221   7.352   8.865 -0.0172  0.0944  0.0418
  553ERGO    R3 8126   4.051   7.184   8.735  0.1466  0.0507 -0.1160
  553ERGO    R4 8127   4.255   7.253   8.536  0.1138  0.3749 -0.0306
  553ERGO    R5 8128   4.039   7.272   8.513  0.1054  0.2090 -0.0479
  553ERGO    C1 8129   4.116   7.038   8.222  0.3439  0.4974 -0.2209
  553ERGO    C2 8130   3.983   6.820   7.914 -0.1014 -0.0058  0.0921
  554ERGO   ROH 8131   0.592   4.781   9.402  0.0133 -0.0710  0.1603
  554ERGO    R1 8132   0.706   4.818   9.146  0.0486 -0.1445  0.1656
  554ERGO    R2 8133   0.725   4.615   8.960 -0.2795 -0.1038  0.0851
  554ERGO    R3 8134   0.595   4.792   8.800 -0.0251  0.1605  0.1623
  554ERGO    R4 8135   0.736   4.614   8.615 -0.2882  0.0214  0.0838
  554ERGO    R5 8136   0.748   4.831   8.620  0.0346  0.0106  0.1758
  554ERGO    C1 8137   0.621   4.780   8.264 -0.0544  0.3423  0.1554
  554ERGO    C2 8138   0.617   4.794   7.968  0.0838 -0.1736  0.0248
  555ERGO   ROH 8139   6.195  13.816   9.424 -0.0495  0.0372  0.0168
  555ERGO    R1 8140   6.187  13.754   9.148 -0.1267  0.0018  0.0269
  555ERGO    R2 8141   6.011  13.875   8.973 -0.0659  0.0980  0.0323
  555ERGO    R3 8142   6.238  13.933   8.835 -0.0421 -0.0781 -0.0053
  555ERGO    R4 8143   6.024  13.939   8.633 -0.1053  0.3121  0.0688
  555ERGO    R5 8144   6.209  13.822   8.624 -0.2449  0.0973 -0.0721
  555ERGO    C1 8145   6.245  14.030   8.306 -0.1059  0.2715  0.0548
  555ERGO    C2 8146   6.158  14.330   8.030  0.1289  0.2122 -0.1631
  556ERGO   ROH 8147  14.947   0.700   9.519  0.0434  0.1755 -0.0062
  556ERGO    R1 8148  15.073   0.807   9.290  0.0943  0.0748 -0.0266
  556ERGO    R2 8149  15.024   0.713   9.035  0.0841  0.0193 -0.0094
  556ERGO    R3 8150  14.969   0.975   8.984  0.1656  0.0231 -0.0777
  556ERGO    R4 8151  14.986   0.851   8.720  0.1094 -0.0424 -0.0391
  556ERGO    R5 8152  15.096   1.026   8.788  0.1661 -0.0643 -0.0947
  556ERGO    C1 8153  14.912   1.176   8.489  0.2007 -0.0748 -0.1205
  556ERGO    C2 8154  14.839   1.276   8.281 -0.1044 -0.1165 -0.3814
  557ERGO   ROH 8155   8.581  17.042   9.339 -0.0843 -0.0326 -0.1189
  557ERGO    R1 8156   8.665  16.953   9.083  0.0782 -0.0754 -0.0538
  557ERGO    R2 8157   8.490  16.927   8.870  0.1668 -0.3184 -0.1095
  557ERGO    R3 8158   8.670  17.089   8.746  0.0735 -0.2153 -0.1083
  557ERGO    R4 8159   8.510  16.976   8.529  0.1977 -0.3604 -0.1125
  557ERGO    R5 8160   8.727  16.972   8.545  0.1921 -0.2045 -0.0756
  557ERGO    C1 8161   8.690  17.156   8.213  0.1282 -0.2880 -0.1130
  557ERGO    C2 8162   8.853  17.194   7.937  0.1296  0.3936  0.0471
  558ERGO   ROH 8163  13.884   0.350   9.334 -0.3095  0.1208  0.1028
  558ERGO    R1 8164  13.745   0.204   9.135 -0.1124  0.0789 -0.0055
  558ERGO    R2 8165  13.503   0.287   9.031 -0.0894 -0.0298 -0.1424
  558ERGO    R3 8166  13.633   0.263   8.794  0.0685  0.0694 -0.0686
  558ERGO    R4 8167  13.353   0.317   8.721  0.0678 -0.1321 -0.2303
  558ERGO    R5 8168  13.476   0.150   8.652  0.2313 -0.0433 -0.1638
  558ERGO    C1 8169  13.388   0.312   8.317  0.3075 -0.0985 -0.2122
  558ERGO    C2 8170  13.086   0.508   8.220 -0.1720 -0.0531 -0.1432
  559ERGO   ROH 8171   7.101  12.400   9.702  0.3897 -0.0000  0.0293
  559ERGO    R1 8172   7.178  12.236   9.484  0.2295 -0.0116 -0.0193
  559ERGO    R2 8173   6.997  12.088   9.337  0.1129  0.0433  0.0752
  559ERGO    R3 8174   7.109  12.220   9.127  0.0337  0.0175  0.0147
  559ERGO    R4 8175   6.922  12.031   9.005 -0.0946  0.0674  0.1156
  559ERGO    R5 8176   7.134  12.052   8.958 -0.1094  0.0090 -0.0033
  559ERGO    C1 8177   6.984  12.121   8.614 -0.2898  0.0571  0.0825
  559ERGO    C2 8178   6.810  12.099   8.357 -0.1412  0.0961 -0.0774
  560ERGO   ROH 8179  11.570   6.523   9.412  0.1258 -0.1043  0.1402
  560ERGO    R1 8180  11.702   6.304   9.290 -0.1924 -0.2480  0.0419
  560ERGO    R2 8181  11.588   6.155   9.088 -0.3258  0.1539 -0.1899
  560ERGO    R3 8182  11.818   6.217   8.956 -0.0980 -0.1519  0.0491
  560ERGO    R4 8183  11.673   6.038   8.774 -0.1432  0.0272 -0.0941
  560ERGO    R5 8184  11.879   6.014   8.845 -0.2436 -0.2396  0.1266
  560ERGO    C1 8185  11.939   6.028   8.468  0.1770 -0.3337  0.1860
  560ERGO    C2 8186  11.749   5.953   8.115 -0.5512 -0.2030  0.0297
  561ERGO   ROH 8187  10.000  14.731   8.948 -0.0457 -0.0924 -0.0290
  561ERGO    R1 8188   9.987  14.708   8.667 -0.0435  0.0558 -0.0414
  561ERGO    R2 8189   9.884  14.908   8.506  0.0047  0.1599  0.0599
  561ERGO    R3 8190  10.123  14.886   8.380  0.0019  0.1736  0.0518
  561ERGO    R4 8191   9.929  14.932   8.165 -0.0666 -0.2029  0.0208
  561ERGO    R5 8192  10.073  14.768   8.178  0.0463 -0.0970  0.1914
  561ERGO    C1 8193  10.181  14.925   7.847 -0.1106 -0.4012 -0.0096
  561ERGO    C2 8194  10.315  14.939   7.636 -0.0517  0.2062 -0.1903
  562ERGO   ROH 8195  15.597   8.757   9.928 -0.1912 -0.3278 -0.0247
  562ERGO    R1 8196  15.823   8.599   9.865 -0.0031  0.0409 -0.3085
  562ERGO    R2 8197  16.027   8.690   9.702 -0.0254  0.6352 -0.0266
  562ERGO    R3 8198  16.183   8.623   9.914 -0.0425  0.2963 -0.1141
  562ERGO    R4 8199  16.358   8.591   9.683 -0.0164  0.6865 -0.1604
  562ERGO    R5 8200  16.318   8.442   9.835 -0.0230  0.4275 -0.4020
  562ERGO    C1 8201  16.697   8.471   9.871 -0.0272  0.3983 -0.3202
  562ERGO    C2 8202  17.012   8.296   9.823  0.2159 -0.0477 -0.1068
  563ERGO   ROH 8203   9.787  17.576   9.126  0.1466 -0.1218 -0.2532
  563ERGO    R1 8204   9.972  17.631   8.920  0.0459 -0.0473 -0.3223
  563ERGO    R2 8205   9.895  17.724   8.671 -0.0689  0.1003 -0.2241
  563ERGO    R3 8206  10.073  17.922   8.726  0.0042  0.0374 -0.2222
  563ERGO    R4 8207  10.081  17.894   8.434 -0.1761  0.1804 -0.2541
  563ERGO    R5 8208  10.251  17.887   8.570 -0.0917  0.0743 -0.3510
  563ERGO    C1 8209  10.357  18.178   8.348 -0.1699  0.1680 -0.2699
  563ERGO    C2 8210  10.536  18.236   7.945 -0.0884 -0.0594 -0.1010
  564ERGO   ROH 8211   7.611   4.629   9.794 -0.1152  0.1221  0.0543
  564ERGO    R1 8212   7.657   4.683   9.520  0.0211  0.0443  0.0602
  564ERGO    R2 8213   7.576   4.511   9.320  0.0874  0.0034  0.0646
  564ERGO    R3 8214   7.453   4.733   9.223  0.1658 -0.0014 -0.0470
  564ERGO    R4 8215   7.432   4.536   9.006 -0.0093 -0.1384  0.0974
  564ERGO    R5 8216   7.513   4.738   8.991  0.0864 -0.1907 -0.0713
  564ERGO    C1 8217   7.232   4.759   8.733  0.0080 -0.2254  0.0116
  564ERGO    C2 8218   7.015   5.000   8.522  0.0488  0.4358  0.1518
  565ERGO   ROH 8219   6.630  12.526   9.663 -0.2623  0.0150  0.0295
  565ERGO    R1 8220   6.746  12.475   9.410 -0.0178  0.0629  0.1303
  565ERGO    R2 8221   6.609  12.349   9.206  0.2246 -0.0204  0.0217
  565ERGO    R3 8222   6.680  12.571   9.065  0.2284  0.0077  0.0647
  565ERGO    R4 8223   6.657  12.358   8.864 -0.3732  0.1726 -0.0718
  565ERGO    R5 8224   6.829  12.488   8.897 -0.1556 -0.0469 -0.2704
  565ERGO    C1 8225   6.753  12.571   8.532 -0.7179  0.3113 -0.0857
  565ERGO    C2 8226   6.784  12.674   8.215 -0.0619  0.0025 -0.0907
  566ERGO   ROH 8227   9.511  10.948   9.625 -0.0619  0.1755 -0.0337
  566ERGO    R1 8228   9.473  10.779   9.401  0.0316  0.1531 -0.0331
  566ERGO    R2 8229   9.237  10.643   9.356  0.0999  0.0384 -0.0437
  566ERGO    R3 8230   9.248  10.767   9.115  0.0529  0.0398 -0.0455
  566ERGO    R4 8231   9.138  10.502   9.056 -0.1231  0.1020 -0.0022
  566ERGO    R5 8232   9.311  10.594   8.962 -0.1164  0.0090 -0.0825
  566ERGO    C1 8233   9.091  10.536   8.655 -0.2972  0.1404  0.0202
  566ERGO    C2 8234   8.859  10.503   8.310  0.0885  0.0843 -0.3059
  567ERGO   ROH 8235  15.306   6.208   9.618 -0.3375 -0.0076  0.0794
  567ERGO    R1 8236  15.171   6.372   9.431 -0.1423  0.0096 -0.0482
  567ERGO    R2 8237  15.303   6.558   9.274  0.0371 -0.0553  0.0284
  567ERGO    R3 8238  15.180   6.425   9.071  0.1502 -0.0403 -0.0521
  567ERGO    R4 8239  15.298   6.661   8.944  0.2316 -0.0293  0.0319
  567ERGO    R5 8240  15.090   6.598   8.933  0.2331 -0.0254 -0.0921
  567ERGO    C1 8241  15.180   6.597   8.562  0.4509 -0.0000 -0.0417
  567ERGO    C2 8242  14.985   6.652   8.286  0.3416 -0.0724 -0.1604
  568ERGO   ROH 8243   5.753  11.953   9.706 -0.0629 -0.1427 -0.0924
  568ERGO    R1 8244   5.623  12.066   9.481  0.0237  0.1481  0.0028
  568ERGO    R2 8245   5.713  12.297   9.358  0.5204 -0.1134 -0.1196
  568ERGO    R3 8246   5.709  12.140   9.136 -0.0953 -0.1553 -0.0999
  568ERGO    R4 8247   5.662  12.411   9.036  0.8765  0.0723 -0.1167
  568ERGO    R5 8248   5.538  12.236   8.998  0.1975  0.4844 -0.0746
  568ERGO    C1 8249   5.628  12.331   8.640  0.5058  0.1411 -0.0964
  568ERGO    C2 8250   5.805  12.308   8.294  0.0802 -0.1693  0.1074
  569ERGO   ROH 8251   4.041  12.557   9.471 -0.1815  0.1097 -0.1518
  569ERGO    R1 8252   4.090  12.553   9.192  0.0676  0.0612 -0.1112
  569ERGO    R2 8253   4.278  12.387   9.076 -0.1033 -0.2578  0.0390
  569ERGO    R3 8254   4.067  12.310   8.923 -0.1119  0.1263 -0.1530
  569ERGO    R4 8255   4.295  12.319   8.738  0.0490 -0.2069  0.0369
  569ERGO    R5 8256   4.103  12.420   8.713  0.2360  0.1157 -0.0985
  569ERGO    C1 8257   4.107  12.208   8.396  0.1297  0.1833 -0.1446
  569ERGO    C2 8258   4.232  12.120   8.147  0.1309 -0.2122 -0.0908
  570ERGO   ROH 8259  17.211   7.313   9.988 -0.1700  0.4820  0.0776
  570ERGO    R1 8260  17.248   7.292   9.708  0.0775  0.3103  0.1209
  570ERGO    R2 8261  17.037   7.283   9.530  0.2278 -0.0484 -0.0444
  570ERGO    R3 8262  17.167   7.491   9.414  0.0975  0.0057 -0.0973
  570ERGO    R4 8263  17.052   7.340   9.190  0.0592 -0.0409 -0.0521
  570ERGO    R5 8264  17.261   7.398   9.214  0.0505  0.0418 -0.1394
  570ERGO    C1 8265  17.183   7.569   8.883 -0.1609  0.0142 -0.1064
  570ERGO    C2 8266  17.239   7.642   8.520  0.1269 -0.0720 -0.4113
  571ERGO   ROH 8267  13.497   5.282   9.447  0.0708  0.0100 -0.0122
  571ERGO    R1 8268  13.462   5.296   9.166  0.0359 -0.1214 -0.0142
  571ERGO    R2 8269  13.617   5.459   9.004 -0.0996 -0.0694 -0.0853
  571ERGO    R3 8270  13.663   5.226   8.871  0.0605 -0.0845 -0.0078
  571ERGO    R4 8271  13.727   5.436   8.678 -0.2524 -0.0929 -0.1367
  571ERGO    R5 8272  13.590   5.270   8.648 -0.1078 -0.2484  0.0093
  571ERGO    C1 8273  13.834   5.204   8.363 -0.1913 -0.1207 -0.0939
  571ERGO    C2 8274  14.023   4.971   8.140  0.5221 -0.0417 -0.0980
  572ERGO   ROH 8275  11.641   2.033   9.653 -0.0191  0.0499  0.1357
  572ERGO    R1 8276  11.850   2.007   9.464 -0.1566 -0.1290  0.0056
  572ERGO    R2 8277  11.802   1.967   9.194 -0.3694  0.2458 -0.0175
  572ERGO    R3 8278  11.961   2.186   9.167  0.0206 -0.0061  0.1438
  572ERGO    R4 8279  11.996   2.037   8.917 -0.4066  0.2070 -0.0538
  572ERGO    R5 8280  12.154   2.105   9.050 -0.1925 -0.2338 -0.0642
  572ERGO    C1 8281  12.258   2.284   8.730 -0.0622 -0.0521  0.0766
  572ERGO    C2 8282  12.425   2.361   8.410  0.0295 -0.2552  0.1675
  573ERGO   ROH 8283   7.281  10.683   9.874 -0.0425 -0.0963  0.0536
  573ERGO    R1 8284   7.248  10.596   9.607  0.0398 -0.0259  0.0191
  573ERGO    R2 8285   7.055  10.698   9.439  0.0134 -0.0617  0.0198
  573ERGO    R3 8286   7.267  10.745   9.275  0.0201  0.0932  0.0724
  573ERGO    R4 8287   7.045  10.680   9.094  0.1493 -0.1934  0.0224
  573ERGO    R5 8288   7.241  10.585   9.098  0.2421  0.0068  0.1199
  573ERGO    C1 8289   7.238  10.713   8.739  0.2349 -0.1247  0.0733
  573ERGO    C2 8290   7.248  10.514   8.383 -0.1187  0.2645  0.1324
  574ERGO   ROH 8291  15.699  13.166   9.195  0.2021 -0.3046 -0.1399
  574ERGO    R1 8292  15.804  13.367   9.026  0.1327 -0.1784 -0.0341
  574ERGO    R2 8293  16.075  13.416   9.002  0.1206 -0.1534 -0.0982
  574ERGO    R3 8294  16.025  13.381   8.737  0.0265  0.0379 -0.1079
  574ERGO    R4 8295  16.296  13.493   8.747  0.1512 -0.2508 -0.1023
  574ERGO    R5 8296  16.128  13.570   8.632  0.2046 -0.0113 -0.0284
  574ERGO    C1 8297  16.378  13.505   8.351  0.0808 -0.1279 -0.1138
  574ERGO    C2 8298  16.617  13.501   8.244 -0.1055  0.2445  0.2484
  575ERGO   ROH 8299   7.808  14.428   9.492 -0.0910 -0.1314 -0.0625
  575ERGO    R1 8300   7.892  14.329   9.240 -0.1058 -0.1408 -0.0617
  575ERGO    R2 8301   7.723  14.187   9.073 -0.1767  0.0430 -0.1347
  575ERGO    R3 8302   7.795  14.377   8.892  0.0316  0.0203 -0.0817
  575ERGO    R4 8303   7.780  14.129   8.737 -0.3300  0.0735 -0.1681
  575ERGO    R5 8304   7.949  14.266   8.747 -0.1390 -0.1421 -0.1543
  575ERGO    C1 8305   7.880  14.274   8.371 -0.2238  0.0702 -0.1379
  575ERGO    C2 8306   7.685  14.312   8.087  0.5573  0.1831  0.1783
  576ERGO   ROH 8307  18.235   1.811   9.819  0.0940 -0.2397  0.0066
  576ERGO    R1 8308  18.217   1.955   9.576 -0.0843 -0.1083  0.0962
  576ERGO    R2 8309  18.397   1.922   9.369 -0.0897  0.1836  0.0411
  576ERGO    R3 8310  18.172   1.876   9.224 -0.0747  0.0623  0.0555
  576ERGO    R4 8311  18.350   2.017   9.040 -0.0707 -0.0564 -0.0332
  576ERGO    R5 8312  18.146   2.072   9.090 -0.0789 -0.0352 -0.0889
  576ERGO    C1 8313  18.112   2.029   8.713 -0.0456 -0.3100 -0.0629
  576ERGO    C2 8314  17.921   2.012   8.426  0.3991 -0.1540 -0.1247
  577ERGO   ROH 8315   8.733  11.971   9.556 -0.1426  0.2339 -0.0612
  577ERGO    R1 8316   8.547  12.044   9.355 -0.1299  0.2011 -0.0853
  577ERGO    R2 8317   8.613  12.212   9.145 -0.1003  0.1241 -0.1410
  577ERGO    R3 8318   8.521  12.006   8.994 -0.1336  0.0891 -0.0727
  577ERGO    R4 8319   8.498  12.241   8.821 -0.0245  0.0167 -0.1778
  577ERGO    R5 8320   8.339  12.100   8.870 -0.0769  0.0894 -0.1513
  577ERGO    C1 8321   8.344  12.064   8.490 -0.0117 -0.0786 -0.1352
  577ERGO    C2 8322   8.504  12.284   8.265  0.3328 -0.3079 -0.0874
  578ERGO   ROH 8323  16.248   0.320   9.813  0.1507 -0.0066 -0.2681
  578ERGO    R1 8324  16.247   0.373   9.535  0.0187  0.0236 -0.2624
  578ERGO    R2 8325  16.120   0.209   9.353 -0.0494  0.0343 -0.2197
  578ERGO    R3 8326  15.998   0.440   9.279 -0.1040  0.0308 -0.1435
  578ERGO    R4 8327  16.055   0.302   9.026 -0.1937  0.0558 -0.1857
  578ERGO    R5 8328  16.111   0.506   9.079 -0.1903  0.0599 -0.1872
  578ERGO    C1 8329  15.902   0.574   8.767 -0.3286  0.0651 -0.0944
  578ERGO    C2 8330  15.892   0.756   8.441  0.3016  0.0052 -0.3599
  579ERGO   ROH 8331   2.674   6.928   9.477 -0.0179 -0.1017  0.0731
  579ERGO    R1 8332   2.520   6.795   9.280 -0.0109 -0.0902  0.0600
  579ERGO    R2 8333   2.260   6.866   9.221  0.0026 -0.0646  0.0312
  579ERGO    R3 8334   2.356   6.884   8.968  0.0314 -0.0802  0.0408
  579ERGO    R4 8335   2.064   6.867   8.936  0.0001  0.3521  0.0277
  579ERGO    R5 8336   2.213   6.740   8.840 -0.1786  0.1815 -0.0309
  579ERGO    C1 8337   2.040   6.884   8.532  0.0257  0.5801  0.0347
  579ERGO    C2 8338   2.096   7.025   8.223  0.2513  0.2342  0.1056
  580ERGO   ROH 8339  10.073  16.658   8.892 -0.0504  0.1181 -0.0417
  580ERGO    R1 8340  10.110  16.666   8.611 -0.1779  0.2007 -0.0565
  580ERGO    R2 8341  10.093  16.900   8.466 -0.0095  0.2822  0.0546
  580ERGO    R3 8342  10.340  16.826   8.379 -0.1238  0.0656 -0.0976
  580ERGO    R4 8343  10.192  16.891   8.135 -0.1791  0.3284  0.0008
  580ERGO    R5 8344  10.298  16.706   8.177 -0.3472  0.1970 -0.1345
  580ERGO    C1 8345  10.482  16.817   7.861 -0.3852  0.1518 -0.1733
  580ERGO    C2 8346  10.536  17.019   7.510  0.1187  0.1920  0.1035
  581ERGO   ROH 8347   7.750  10.854   9.642  0.3182 -0.1868  0.1600
  581ERGO    R1 8348   7.703  10.900   9.367  0.2094 -0.0918  0.1926
  581ERGO    R2 8349   7.904  10.888   9.178  0.1140 -0.1521  0.0891
  581ERGO    R3 8350   7.735  10.711   9.057 -0.0400 -0.0329  0.1287
  581ERGO    R4 8351   7.841  10.875   8.838  0.0181 -0.0993  0.1058
  581ERGO    R5 8352   7.631  10.839   8.883  0.0036  0.0450  0.1596
  581ERGO    C1 8353   7.647  10.702   8.527 -0.1822  0.0433  0.1528
  581ERGO    C2 8354   7.844  10.821   8.225 -0.0479 -0.1827  0.0363
  582ERGO   ROH 8355   1.132   3.050   9.472  0.0465 -0.1475  0.0164
  582ERGO    R1 8356   1.174   2.917   9.226  0.0500 -0.1122 -0.0022
  582ERGO    R2 8357   1.005   2.949   9.009 -0.0023 -0.1555  0.0309
  582ERGO    R3 8358   1.236   3.013   8.881 -0.0486 -0.0602 -0.0056
  582ERGO    R4 8359   1.038   2.986   8.667 -0.0989 -0.0053  0.0372
  582ERGO    R5 8360   1.230   2.885   8.679 -0.0784  0.0245 -0.0580
  582ERGO    C1 8361   1.273   3.069   8.347 -0.1985  0.1716  0.0067
  582ERGO    C2 8362   1.097   3.108   8.025 -0.3502 -0.0680  0.1073
  583ERGO   ROH 8363  13.118  11.415   9.224 -0.2670  0.0776 -0.1938
  583ERGO    R1 8364  13.097  11.451   8.944 -0.2210  0.1528 -0.1879
  583ERGO    R2 8365  13.047  11.697   8.829 -0.0315  0.2146 -0.1395
  583ERGO    R3 8366  13.272  11.640   8.688 -0.0626  0.0788 -0.1358
  583ERGO    R4 8367  13.098  11.777   8.496  0.0861  0.3355 -0.0931
  583ERGO    R5 8368  13.193  11.584   8.469 -0.0865  0.2598 -0.1763
  583ERGO    C1 8369  13.340  11.771   8.171  0.1254  0.2785 -0.0627
  583ERGO    C2 8370  13.624  11.802   8.016 -0.0037 -0.1125 -0.4156
  584ERGO   ROH 8371   0.130  12.407  10.171 -0.0727  0.0607 -0.0398
  584ERGO    R1 8372   0.176  12.395   9.892  0.0209  0.1275 -0.0281
  584ERGO    R2 8373   0.001  12.272   9.717  0.1878 -0.0272 -0.0904
  584ERGO    R3 8374   0.008  12.512   9.591 -0.0052 -0.0075 -0.0666
  584ERGO    R4 8375   0.043  12.315   9.377  0.3026  0.0431 -0.0676
  584ERGO    R5 8376   0.173  12.485   9.419  0.1064  0.1783  0.0077
  584ERGO    C1 8377   0.074  12.566   9.060  0.1883  0.1026 -0.0320
  584ERGO    C2 8378   0.292  12.582   8.695 -0.0339 -0.1771 -0.0869
  585ERGO   ROH 8379  18.051   5.147   9.779 -0.0260  0.1908 -0.1240
  585ERGO    R1 8380  18.137   5.123   9.511  0.1524  0.0960 -0.0598
  585ERGO    R2 8381  18.210   4.881   9.399 -0.1434 -0.0083 -0.0339
  585ERGO    R3 8382  18.025   4.948   9.212  0.1079  0.3187 -0.1762
  585ERGO    R4 8383  18.199   4.753   9.078 -0.1617 -0.0440 -0.0192
  585ERGO    R5 8384  18.147   4.952   9.006  0.2671  0.0509 -0.0935
  585ERGO    C1 8385  18.018   4.742   8.716  0.0634  0.2421 -0.1443
  585ERGO    C2 8386  18.005   4.495   8.539  0.1702  0.2212 -0.1983
  586ERGO   ROH 8387   5.601   1.359   9.444 -0.0769 -0.1735 -0.1355
  586ERGO    R1 8388   5.581   1.518   9.211 -0.0331 -0.1278 -0.1086
  586ERGO    R2 8389   5.802   1.604   9.069 -0.0003 -0.0055  0.0120
  586ERGO    R3 8390   5.673   1.487   8.860  0.1425 -0.0106 -0.0740
  586ERGO    R4 8391   5.712   1.767   8.778 -0.1745  0.0941  0.1202
  586ERGO    R5 8392   5.523   1.657   8.781 -0.0502 -0.1266  0.0376
  586ERGO    C1 8393   5.538   1.752   8.412 -0.1419  0.1472  0.1026
  586ERGO    C2 8394   5.735   1.899   8.233  0.0790 -0.1768  0.1564
  587ERGO   ROH 8395   9.467   0.601   9.396 -0.0453 -0.1453 -0.0952
  587ERGO    R1 8396   9.495   0.714   9.138 -0.0537  0.0876  0.0038
  587ERGO    R2 8397   9.490   0.562   8.907  0.1524  0.2677 -0.1222
  587ERGO    R3 8398   9.293   0.735   8.835  0.0288  0.1612 -0.0468
  587ERGO    R4 8399   9.352   0.584   8.591 -0.0549  0.1220 -0.0440
  587ERGO    R5 8400   9.351   0.801   8.612 -0.1386  0.1281 -0.1013
  587ERGO    C1 8401   9.087   0.759   8.340 -0.2915 -0.0630  0.0724
  587ERGO    C2 8402   8.848   0.688   8.015 -0.2193  0.2807 -0.0462
  588ERGO   ROH 8403   7.957   9.177  10.137 -0.0254 -0.1144 -0.0578
  588ERGO    R1 8404   7.972   9.300   9.883 -0.0156 -0.0604 -0.0314
  588ERGO    R2 8405   8.172   9.241   9.701  0.0049 -0.0054 -0.0281
  588ERGO    R3 8406   7.963   9.191   9.536  0.0223  0.0097 -0.0543
  588ERGO    R4 8407   8.199   9.178   9.363  0.0371  0.0387 -0.0336
  588ERGO    R5 8408   8.022   9.301   9.331  0.0373  0.0370 -0.0346
  588ERGO    C1 8409   8.018   9.095   9.010  0.0722  0.0785 -0.0615
  588ERGO    C2 8410   7.937   9.104   8.596 -0.2831  0.2486  0.1498
  589ERGO   ROH 8411   0.321   3.672   9.688 -0.1348  0.1972  0.0580
  589ERGO    R1 8412   0.142   3.753   9.484 -0.1819 -0.0790 -0.0114
  589ERGO    R2 8413   0.225   3.890   9.258 -0.2932 -0.0241 -0.0068
  589ERGO    R3 8414   0.099   3.687   9.129 -0.0001 -0.2121 -0.0133
  589ERGO    R4 8415   0.120   3.901   8.929 -0.3616 -0.1296  0.0089
  589ERGO    R5 8416  -0.062   3.797   8.989 -0.2013 -0.4300  0.0283
  589ERGO    C1 8417  -0.061   3.717   8.616 -0.1263 -0.3676  0.0120
  589ERGO    C2 8418  -0.216   3.546   8.451  0.4237  0.0221  0.0211
  590ERGO   ROH 8419   5.500  10.928   6.336 -0.0773 -0.1054 -0.1493
  590ERGO    R1 8420   5.558  10.717   6.516 -0.2886 -0.0722 -0.0394
  590ERGO    R2 8421   5.794  10.705   6.660 -0.2736 -0.2645 -0.0827
  590ERGO    R3 8422   5.626  10.684   6.872 -0.2561  0.0536 -0.0326
  590ERGO    R4 8423   5.894  10.656   6.987 -0.2560 -0.2649 -0.0879
  590ERGO    R5 8424   5.727  10.519   7.012 -0.4439 -0.0314  0.0099
  590ERGO    C1 8425   5.794  10.609   7.377 -0.2294  0.0334 -0.0439
  590ERGO    C2 8426   5.758  10.591   7.736 -0.0424 -0.1125 -0.1867
  591ERGO   ROH 8427   7.414  16.020   9.438  0.0902 -0.3162  0.1221
  591ERGO    R1 8428   7.468  15.888   9.193 -0.0003 -0.2135  0.0462
  591ERGO    R2 8429   7.271  15.761   9.046 -0.0932  0.0320 -0.0431
  591ERGO    R3 8430   7.363  15.921   8.846  0.0475  0.0785  0.0572
  591ERGO    R4 8431   7.323  15.660   8.719 -0.1287  0.1738 -0.0935
  591ERGO    R5 8432   7.505  15.779   8.716 -0.0396  0.0445 -0.0042
  591ERGO    C1 8433   7.439  15.752   8.342 -0.0173  0.3002 -0.0288
  591ERGO    C2 8434   7.217  15.682   8.059  0.1810  0.3384 -0.1087
  592ERGO   ROH 8435   6.203  16.724   9.232  0.1716 -0.0164  0.0129
  592ERGO    R1 8436   6.328  16.669   8.984  0.2325 -0.0857  0.0577
  592ERGO    R2 8437   6.192  16.680   8.744  0.2539 -0.2944  0.0311
  592ERGO    R3 8438   6.393  16.850   8.675  0.1680 -0.2195 -0.0340
  592ERGO    R4 8439   6.283  16.757   8.419  0.1362 -0.2699  0.0038
  592ERGO    R5 8440   6.492  16.750   8.482  0.1539 -0.1854 -0.0560
  592ERGO    C1 8441   6.525  16.961   8.166 -0.0129 -0.1853 -0.0733
  592ERGO    C2 8442   6.386  17.143   7.919 -0.0488 -0.3939 -0.0983
  593ERGO   ROH 8443   1.540   3.198   9.312 -0.0658  0.0886 -0.0901
  593ERGO    R1 8444   1.630   3.291   9.060  0.0136  0.0444 -0.0787
  593ERGO    R2 8445   1.822   3.159   8.913 -0.0334 -0.0525 -0.0543
  593ERGO    R3 8446   1.632   3.166   8.718 -0.0051  0.0434 -0.0785
  593ERGO    R4 8447   1.886   3.201   8.576  0.0332 -0.1015 -0.0480
  593ERGO    R5 8448   1.712   3.332   8.564  0.1053 -0.0060 -0.0756
  593ERGO    C1 8449   1.745   3.234   8.197  0.0984 -0.0400 -0.0670
  593ERGO    C2 8450   1.615   3.137   7.912  0.1444 -0.2033  0.0911
  594ERGO   ROH 8451   5.144  14.353   9.643 -0.0795 -0.0749  0.1367
  594ERGO    R1 8452   4.905  14.251   9.529 -0.1597  0.0623  0.1778
  594ERGO    R2 8453   4.676  14.404   9.501  0.0043  0.2848 -0.0392
  594ERGO    R3 8454   4.696  14.327   9.241  0.0030 -0.0030  0.0424
  594ERGO    R4 8455   4.422  14.430   9.268  0.1283  0.3778 -0.1652
  594ERGO    R5 8456   4.481  14.235   9.190 -0.0952  0.2236  0.0536
  594ERGO    C1 8457   4.293  14.373   8.889  0.1992  0.1617 -0.1620
  594ERGO    C2 8458   4.000  14.332   8.711 -0.0136 -0.0067  0.1097
  595ERGO   ROH 8459   8.394   4.837   9.594 -0.0726  0.0094  0.0703
  595ERGO    R1 8460   8.521   4.881   9.344 -0.0877  0.0798  0.0742
  595ERGO    R2 8461   8.501   4.703   9.133  0.1229  0.0010  0.1146
  595ERGO    R3 8462   8.417   4.924   8.998 -0.0948 -0.1178  0.0514
  595ERGO    R4 8463   8.457   4.721   8.791  0.1611 -0.1187  0.1034
  595ERGO    R5 8464   8.543   4.921   8.795 -0.0571 -0.0236  0.0749
  595ERGO    C1 8465   8.353   4.938   8.465 -0.0211 -0.3000  0.0376
  595ERGO    C2 8466   8.166   5.015   8.184  0.1265  0.0413  0.0698
  596ERGO   ROH 8467   6.982   0.912   9.485  0.1621 -0.0212  0.2456
  596ERGO    R1 8468   7.124   0.909   9.241  0.0121 -0.1416  0.1588
  596ERGO    R2 8469   7.000   0.937   8.996 -0.1105 -0.0405  0.2378
  596ERGO    R3 8470   7.180   1.139   8.964  0.0399 -0.1913  0.1213
  596ERGO    R4 8471   7.103   1.065   8.691 -0.4854  0.1014  0.1650
  596ERGO    R5 8472   7.305   1.076   8.770 -0.3333 -0.1658 -0.1453
  596ERGO    C1 8473   7.331   1.328   8.484 -0.5624  0.0423  0.0132
  596ERGO    C2 8474   7.247   1.520   8.208  0.0620  0.2041 -0.1657
  597ERGO   ROH 8475   9.362   9.802   9.317 -0.1552  0.4399  0.3187
  597ERGO    R1 8476   9.137   9.806   9.145 -0.0761  0.1839  0.2037
  597ERGO    R2 8477   9.066  10.029   8.998 -0.2370  0.0963  0.1391
  597ERGO    R3 8478   9.078   9.855   8.789  0.0538  0.0777  0.1674
  597ERGO    R4 8479   8.947  10.094   8.680 -0.2027 -0.1011  0.0852
  597ERGO    R5 8480   8.872   9.890   8.672  0.0532 -0.1957  0.0857
  597ERGO    C1 8481   8.888   9.969   8.299  0.0903 -0.2335  0.0802
  597ERGO    C2 8482   8.891   9.874   7.917  0.1539  0.2387 -0.0495
  598ERGO   ROH 8483   1.083   1.079   9.937 -0.1916  0.1073  0.0069
  598ERGO    R1 8484   1.139   0.997   9.672  0.0527  0.0916  0.0608
  598ERGO    R2 8485   0.955   1.024   9.466  0.1053 -0.2507 -0.0349
  598ERGO    R3 8486   1.159   1.157   9.345 -0.0289  0.0075  0.0142
  598ERGO    R4 8487   0.958   1.122   9.135 -0.0993  0.1095  0.0640
  598ERGO    R5 8488   1.168   1.064   9.124 -0.0665  0.2488 -0.0919
  598ERGO    C1 8489   1.151   1.304   8.828 -0.3445  0.5616  0.1679
  598ERGO    C2 8490   1.063   1.483   8.546 -0.1056  0.2386 -0.3219
  599ERGO   ROH 8491   3.067  16.038   9.373  0.0194 -0.0561  0.0200
  599ERGO    R1 8492   2.970  16.002   9.110 -0.0250  0.1635  0.0042
  599ERGO    R2 8493   2.953  16.209   8.928  0.2186  0.2608  0.0866
  599ERGO    R3 8494   3.101  16.042   8.773  0.0239  0.1467  0.0213
  599ERGO    R4 8495   2.981  16.233   8.584 -0.0131  0.1588  0.0586
  599ERGO    R5 8496   2.970  16.016   8.573 -0.1314  0.1618  0.1201
  599ERGO    C1 8497   3.137  16.090   8.238 -0.3308 -0.0077 -0.0189
  599ERGO    C2 8498   3.241  16.056   7.964 -0.1016  0.0979 -0.3484
  600ERGO   ROH 8499  13.338   4.241   9.378  0.0079  0.0532 -0.1336
  600ERGO    R1 8500  13.207   4.258   9.128  0.0405 -0.1190 -0.1641
  600ERGO    R2 8501  13.168   4.498   8.996 -0.3041 -0.1543 -0.1424
  600ERGO    R3 8502  13.292   4.369   8.792 -0.0449  0.0621 -0.1262
  600ERGO    R4 8503  13.072   4.515   8.665 -0.2081 -0.2309 -0.1743
  600ERGO    R5 8504  13.114   4.302   8.647  0.1040 -0.1676 -0.2039
  600ERGO    C1 8505  13.133   4.404   8.280  0.0912 -0.0722 -0.1776
  600ERGO    C2 8506  13.305   4.548   7.993  0.0182  0.1009 -0.1223
  601ERGO   ROH 8507   1.422  15.375  10.034 -0.0745  0.1958 -0.0516
  601ERGO    R1 8508   1.545  15.399   9.780 -0.0550  0.1297 -0.0466
  601ERGO    R2 8509   1.805  15.321   9.733 -0.1039 -0.0086 -0.0365
  601ERGO    R3 8510   1.691  15.174   9.535 -0.1679  0.0536 -0.0491
  601ERGO    R4 8511   1.940  15.277   9.417 -0.0601 -0.1073 -0.0062
  601ERGO    R5 8512   1.739  15.296   9.335 -0.0425  0.0232 -0.0482
  601ERGO    C1 8513   1.911  15.113   9.048 -0.0948 -0.1061 -0.0002
  601ERGO    C2 8514   1.912  15.095   8.795  0.0745 -0.0781  0.0400
  602ERGO   ROH 8515  10.473  10.268   8.744 -0.0378  0.0335  0.0379
  602ERGO    R1 8516  10.504  10.237   8.464 -0.0186  0.1587  0.0254
  602ERGO    R2 8517  10.399  10.022   8.326  0.1931  0.0953 -0.0421
  602ERGO    R3 8518  10.284  10.216   8.175 -0.0135  0.0318  0.0304
  602ERGO    R4 8519  10.307   9.986   7.995 -0.0299  0.0368  0.0245
  602ERGO    R5 8520  10.381  10.188   7.958 -0.1568  0.0713 -0.0390
  602ERGO    C1 8521  10.146  10.148   7.660 -0.3540 -0.0569  0.1315
  602ERGO    C2 8522   9.900   9.936   7.476  0.0561  0.3122 -0.1885
  603ERGO   ROH 8523   6.446  10.836   9.891 -0.2269  0.0577 -0.0462
  603ERGO    R1 8524   6.422  10.711   9.638  0.0806 -0.2097  0.0502
  603ERGO    R2 8525   6.361  10.852   9.408 -0.2842 -0.5354 -0.0601
  603ERGO    R3 8526   6.588  10.735   9.315  0.0232 -0.0426  0.0316
  603ERGO    R4 8527   6.445  10.820   9.074 -0.0492 -0.3175 -0.0260
  603ERGO    R5 8528   6.519  10.620   9.117  0.3629 -0.1728 -0.0183
  603ERGO    C1 8529   6.707  10.691   8.792  0.3762  0.2718  0.0800
  603ERGO    C2 8530   6.733  10.619   8.512 -0.0547  0.2919  0.2509
  604ERGO   ROH 8531  10.928  14.960   8.718  0.0009 -0.0144  0.0210
  604ERGO    R1 8532  10.899  15.109   8.479 -0.0471 -0.1313 -0.0462
  604ERGO    R2 8533  11.014  15.358   8.444 -0.2379 -0.0532 -0.1077
  604ERGO    R3 8534  11.120  15.242   8.222 -0.0765 -0.0533 -0.0323
  604ERGO    R4 8535  11.173  15.528   8.190 -0.3876 -0.0033 -0.1698
  604ERGO    R5 8536  11.074  15.398   8.046 -0.2249 -0.1904 -0.1198
  604ERGO    C1 8537  11.366  15.519   7.833 -0.3235  0.0257 -0.1351
  604ERGO    C2 8538  11.593  15.595   7.769 -0.0339  0.1678  0.0155
  605ERGO   ROH 8539  12.685  17.672   9.317  0.0364  0.2510  0.0087
  605ERGO    R1 8540  12.798  17.637   9.060  0.0191  0.1552  0.0135
  605ERGO    R2 8541  12.997  17.800   8.961 -0.0024  0.1339 -0.0709
  605ERGO    R3 8542  13.127  17.565   8.923  0.0149  0.1294  0.0179
  605ERGO    R4 8543  13.209  17.732   8.697 -0.2191 -0.0476 -0.2015
  605ERGO    R5 8544  13.123  17.532   8.686 -0.1866 -0.0769  0.0469
  605ERGO    C1 8545  13.455  17.472   8.507 -0.3291 -0.1574 -0.1940
  605ERGO    C2 8546  13.800  17.443   8.367  0.1243  0.2827 -0.0409
  606ERGO   ROH 8547   9.936   2.917   9.918 -0.2203  0.0573  0.1109
  606ERGO    R1 8548  10.041   3.041   9.687 -0.0171 -0.1175  0.1064
  606ERGO    R2 8549  10.244   2.929   9.537 -0.1559 -0.4255  0.1432
  606ERGO    R3 8550  10.068   2.961   9.333 -0.0905 -0.2001  0.1186
  606ERGO    R4 8551  10.328   2.933   9.202 -0.0773 -0.3280  0.1632
  606ERGO    R5 8552  10.185   3.094   9.172  0.0444 -0.2075  0.2076
  606ERGO    C1 8553  10.212   2.964   8.815  0.0299 -0.0597  0.1517
  606ERGO    C2 8554  10.365   3.029   8.488  0.3315 -0.0276  0.0295
  607ERGO   ROH 8555   5.002   7.855   9.216  0.1170  0.1741  0.0510
  607ERGO    R1 8556   5.246   7.952   9.110  0.1482  0.0609  0.0188
  607ERGO    R2 8557   5.347   7.868   8.867  0.0488  0.0541 -0.0179
  607ERGO    R3 8558   5.352   8.134   8.813  0.1867  0.0632  0.0328
  607ERGO    R4 8559   5.448   8.006   8.567  0.2155  0.0606  0.0395
  607ERGO    R5 8560   5.548   8.163   8.679  0.2494 -0.0026  0.1052
  607ERGO    C1 8561   5.511   8.336   8.340  0.4421  0.0730  0.1206
  607ERGO    C2 8562   5.774   8.505   8.104 -0.1281 -0.4853  0.0717
  608ERGO   ROH 8563  11.297   0.401   9.397 -0.1324  0.1903 -0.0170
  608ERGO    R1 8564  11.238   0.450   9.124 -0.1057  0.0949 -0.0405
  608ERGO    R2 8565  11.235   0.704   9.016 -0.2538  0.0725 -0.0928
  608ERGO    R3 8566  11.410   0.595   8.838 -0.1399  0.1536 -0.0313
  608ERGO    R4 8567  11.239   0.769   8.676 -0.2114  0.0187 -0.1025
  608ERGO    R5 8568  11.279   0.558   8.641 -0.0682  0.0379 -0.0578
  608ERGO    C1 8569  11.405   0.704   8.312 -0.0798  0.0636 -0.0504
  608ERGO    C2 8570  11.466   0.768   7.974  0.4168 -0.0805 -0.1986
  609ERGO   ROH 8571  13.213  16.988   9.601 -0.0693  0.0724 -0.0132
  609ERGO    R1 8572  13.224  16.767   9.425 -0.2475 -0.0091  0.0725
  609ERGO    R2 8573  13.018  16.703   9.253 -0.1791  0.2812 -0.1375
  609ERGO    R3 8574  13.215  16.715   9.065  0.0580 -0.0988  0.0769
  609ERGO    R4 8575  12.990  16.583   8.930 -0.1124  0.5013 -0.2255
  609ERGO    R5 8576  13.194  16.508   8.945 -0.3035  0.0048 -0.0381
  609ERGO    C1 8577  13.158  16.524   8.566  0.1492  0.2727 -0.0755
  609ERGO    C2 8578  13.203  16.493   8.310  0.0692 -0.2183  0.0221
  610ERGO   ROH 8579   3.588   9.562   9.733  0.1659 -0.1528  0.1531
  610ERGO    R1 8580   3.551   9.390   9.511  0.1194 -0.1668  0.1720
  610ERGO    R2 8581   3.308   9.270   9.455  0.0384  0.0353  0.0841
  610ERGO    R3 8582   3.344   9.386   9.212  0.2557 -0.0462  0.0741
  610ERGO    R4 8583   3.189   9.144   9.156  0.0806  0.0657  0.0541
  610ERGO    R5 8584   3.377   9.203   9.062  0.1788 -0.1094  0.1320
  610ERGO    C1 8585   3.153   9.180   8.754  0.3091  0.0069  0.0273
  610ERGO    C2 8586   3.066   9.190   8.428  0.1082 -0.0555  0.0781
  611ERGO   ROH 8587  11.110  14.581   8.959 -0.0540 -0.0397  0.0085
  611ERGO    R1 8588  11.190  14.553   8.689 -0.1543  0.1270 -0.0403
  611ERGO    R2 8589  11.018  14.596   8.477 -0.1975  0.3912  0.0441
  611ERGO    R3 8590  11.213  14.767   8.396 -0.1263  0.3467  0.1207
  611ERGO    R4 8591  11.046  14.726   8.158  0.0263  0.2934  0.0228
  611ERGO    R5 8592  11.262  14.699   8.172  0.0150  0.2753  0.1729
  611ERGO    C1 8593  11.246  14.963   7.896  0.2234  0.1949  0.0823
  611ERGO    C2 8594  11.179  15.033   7.610 -0.1050 -0.2272  0.2001
  612ERGO   ROH 8595   3.602  16.136   9.350 -0.1299 -0.0176  0.0674
  612ERGO    R1 8596   3.469  16.177   9.103 -0.0631 -0.2152 -0.0016
  612ERGO    R2 8597   3.565  16.349   8.909 -0.3143  0.0798  0.1348
  612ERGO    R3 8598   3.547  16.129   8.751  0.2775  0.0926  0.0241
  612ERGO    R4 8599   3.619  16.346   8.568 -0.3601  0.4194  0.1203
  612ERGO    R5 8600   3.450  16.210   8.547  0.0034 -0.0597  0.0842
  612ERGO    C1 8601   3.634  16.138   8.220  0.1687  0.6292  0.0080
  612ERGO    C2 8602   3.813  16.015   8.005  0.3228  0.1207 -0.2432
  613ERGO   ROH 8603   7.868  13.364   9.539  0.1203 -0.0148  0.2191
  613ERGO    R1 8604   8.085  13.441   9.375 -0.0343  0.1239  0.0774
  613ERGO    R2 8605   8.233  13.260   9.228  0.0589  0.2033  0.0786
  613ERGO    R3 8606   8.169  13.424   9.021 -0.1973  0.0624  0.0400
  613ERGO    R4 8607   8.387  13.256   8.919 -0.0325  0.2712  0.0308
  613ERGO    R5 8608   8.380  13.474   8.918 -0.2820  0.2687 -0.0434
  613ERGO    C1 8609   8.416  13.408   8.544 -0.3264  0.1786 -0.0333
  613ERGO    C2 8610   8.605  13.284   8.227 -0.0066  0.1165 -0.2487
  614ERGO   ROH 8611   7.431  18.234   9.238 -0.2510  0.1911 -0.1088
  614ERGO    R1 8612   7.424  18.173   8.961 -0.2635  0.1580 -0.1028
  614ERGO    R2 8613   7.470  17.919   8.863  0.0987  0.2086 -0.1027
  614ERGO    R3 8614   7.229  17.957   8.743 -0.0162 -0.1694 -0.0037
  614ERGO    R4 8615   7.390  17.819   8.542  0.0956  0.0635 -0.0563
  614ERGO    R5 8616   7.283  18.006   8.515 -0.2001 -0.1070 -0.0278
  614ERGO    C1 8617   7.117  17.797   8.242 -0.0141 -0.3759  0.0637
  614ERGO    C2 8618   6.884  17.881   8.028 -0.1401 -0.3482 -0.2473
  615ERGO   ROH 8619   4.956   6.952   9.416 -0.0171 -0.1610 -0.0852
  615ERGO    R1 8620   4.982   7.026   9.144 -0.1249 -0.0980 -0.0802
  615ERGO    R2 8621   5.199   6.950   8.990 -0.0005  0.2368 -0.0882
  615ERGO    R3 8622   5.006   6.853   8.825  0.1385 -0.0444 -0.0899
  615ERGO    R4 8623   5.234   6.906   8.649  0.0125  0.4139 -0.1098
  615ERGO    R5 8624   5.031   6.980   8.623 -0.1201  0.0674 -0.0494
  615ERGO    C1 8625   5.074   6.790   8.295  0.1506  0.2530 -0.1238
  615ERGO    C2 8626   5.257   6.789   7.987  0.0457 -0.1029  0.1289
  616ERGO   ROH 8627  13.120   9.121   9.693  0.3161 -0.2598 -0.0257
  616ERGO    R1 8628  13.223   9.112   9.429  0.2235 -0.3063 -0.0611
  616ERGO    R2 8629  13.118   8.947   9.234 -0.0990 -0.0635 -0.1054
  616ERGO    R3 8630  13.097   9.180   9.095  0.2192  0.0377  0.0064
  616ERGO    R4 8631  13.065   8.969   8.893 -0.3700  0.1713 -0.0517
  616ERGO    R5 8632  13.206   9.134   8.886 -0.0539 -0.0952 -0.1113
  616ERGO    C1 8633  13.013   9.199   8.564 -0.2292  0.4031  0.0846
  616ERGO    C2 8634  13.091   9.299   8.128 -0.2473 -0.1176  0.1037
  617ERGO   ROH 8635   9.091   2.547  10.007  0.2562  0.2309  0.0812
  617ERGO    R1 8636   8.955   2.627   9.772  0.2167  0.0145  0.0277
  617ERGO    R2 8637   9.006   2.868   9.646  0.0606 -0.0165 -0.0945
  617ERGO    R3 8638   9.046   2.709   9.429  0.1843 -0.1035 -0.0100
  617ERGO    R4 8639   9.079   2.982   9.328 -0.0544 -0.1224 -0.1599
  617ERGO    R5 8640   8.945   2.830   9.248  0.0689 -0.2836 -0.0712
  617ERGO    C1 8641   9.158   2.900   8.939 -0.0051 -0.2657 -0.1186
  617ERGO    C2 8642   9.294   3.039   8.631 -0.1083 -0.0890  0.0777
  618ERGO   ROH 8643   3.980  14.634   9.341  0.1703  0.0566  0.0231
  618ERGO    R1 8644   3.821  14.566   9.118  0.1604  0.0284  0.0402
  618ERGO    R2 8645   3.564  14.661   9.084  0.1563  0.0067  0.0517
  618ERGO    R3 8646   3.660  14.744   8.844  0.1285 -0.0064  0.0345
  618ERGO    R4 8647   3.381  14.669   8.791  0.1317 -0.0621  0.0639
  618ERGO    R5 8648   3.557  14.596   8.685  0.1407 -0.0473  0.0600
  618ERGO    C1 8649   3.364  14.751   8.395  0.0913 -0.1146  0.0550
  618ERGO    C2 8650   3.274  14.757   8.049 -0.2054 -0.1969 -0.3053
  619ERGO   ROH 8651  10.966  13.567   8.826 -0.1877  0.2217 -0.0919
  619ERGO    R1 8652  11.067  13.520   8.566  0.0371  0.1307  0.0091
  619ERGO    R2 8653  10.912  13.546   8.339  0.1575 -0.2015 -0.1201
  619ERGO    R3 8654  11.112  13.712   8.260  0.0372 -0.0485 -0.1048
  619ERGO    R4 8655  10.971  13.644   8.013  0.3772 -0.5179 -0.1797
  619ERGO    R5 8656  11.185  13.623   8.050  0.3677 -0.2136  0.0729
  619ERGO    C1 8657  11.193  13.857   7.749  0.3922 -0.5586 -0.2000
  619ERGO    C2 8658  11.293  14.087   7.436  0.1107 -0.1582 -0.1210
  620ERGO   ROH 8659  16.135   5.186   9.707  0.3831  0.2825 -0.0271
  620ERGO    R1 8660  16.291   5.278   9.489  0.1670  0.3084 -0.1722
  620ERGO    R2 8661  16.364   5.114   9.279  0.4096  0.1839  0.0101
  620ERGO    R3 8662  16.249   5.310   9.129  0.0195 -0.1930 -0.2085
  620ERGO    R4 8663  16.424   5.167   8.942  0.5799  0.1370  0.0316
  620ERGO    R5 8664  16.423   5.381   8.981 -0.0184  0.1768 -0.0896
  620ERGO    C1 8665  16.352   5.381   8.606  0.3131 -0.2441 -0.1612
  620ERGO    C2 8666  16.361   5.248   8.251  0.3354  0.1967 -0.0735
  621ERGO   ROH 8667  12.303   4.485   9.740 -0.1608  0.0634 -0.1621
  621ERGO    R1 8668  12.176   4.544   9.494 -0.1172  0.0196 -0.1970
  621ERGO    R2 8669  12.274   4.731   9.316 -0.1995  0.1494 -0.1185
  621ERGO    R3 8670  12.260   4.524   9.140  0.0387  0.1739 -0.1678
  621ERGO    R4 8671  12.266   4.764   8.972 -0.3146  0.2162 -0.1088
  621ERGO    R5 8672  12.118   4.604   8.965 -0.1019  0.0239 -0.1179
  621ERGO    C1 8673  12.248   4.589   8.607 -0.1580  0.2781 -0.1495
  621ERGO    C2 8674  12.321   4.601   8.267  0.0129 -0.1803 -0.0708
  622ERGO   ROH 8675   8.718   1.474   9.457  0.0956  0.2363  0.0353
  622ERGO    R1 8676   8.654   1.510   9.184  0.1011  0.0223  0.0034
  622ERGO    R2 8677   8.546   1.745   9.086 -0.1455 -0.1438 -0.1401
  622ERGO    R3 8678   8.757   1.733   8.916 -0.0994 -0.0001 -0.0938
  622ERGO    R4 8679   8.575   1.929   8.795 -0.0977  0.0468 -0.0165
  622ERGO    R5 8680   8.659   1.753   8.698 -0.0446  0.1230 -0.1074
  622ERGO    C1 8681   8.789   2.025   8.465 -0.0267  0.2927  0.0990
  622ERGO    C2 8682   8.739   2.343   8.318  0.0302 -0.2084 -0.2983
  623ERGO   ROH 8683   8.185  10.935   9.568 -0.1744 -0.2316 -0.0394
  623ERGO    R1 8684   8.316  11.042   9.340 -0.0853  0.0467  0.1387
  623ERGO    R2 8685   8.376  10.890   9.118  0.2849  0.2410  0.0998
  623ERGO    R3 8686   8.239  11.086   8.987  0.1850  0.1668  0.0917
  623ERGO    R4 8687   8.320  10.899   8.776  0.0577  0.0638  0.1293
  623ERGO    R5 8688   8.357  11.114   8.781  0.0477  0.0705 -0.0031
  623ERGO    C1 8689   8.160  11.088   8.456 -0.1682 -0.1091  0.1390
  623ERGO    C2 8690   8.207  11.114   8.103 -0.0596 -0.2241  0.1395
  624ERGO   ROH 8691  10.699  11.755   9.398  0.3080 -0.2329 -0.0149
  624ERGO    R1 8692  10.711  11.791   9.118  0.2014 -0.1204 -0.0054
  624ERGO    R2 8693  10.485  11.822   8.961  0.1362 -0.2066  0.0756
  624ERGO    R3 8694  10.611  12.048   8.880 -0.0334 -0.0941  0.1168
  624ERGO    R4 8695  10.449  11.967   8.650  0.1516 -0.2762  0.0409
  624ERGO    R5 8696  10.663  12.008   8.649  0.1191 -0.0747  0.1440
  624ERGO    C1 8697  10.546  12.264   8.392  0.0012 -0.2111  0.0592
  624ERGO    C2 8698  10.401  12.348   8.135 -0.2786 -0.1313  0.2969
  625ERGO   ROH 8699  11.783   9.134   9.302 -0.0232  0.0141 -0.1028
  625ERGO    R1 8700  11.779   8.929   9.107 -0.0679  0.0319 -0.1203
  625ERGO    R2 8701  11.641   8.693   9.141  0.0398 -0.0216 -0.0567
  625ERGO    R3 8702  11.528   8.762   8.903 -0.1320 -0.0412  0.0168
  625ERGO    R4 8703  11.535   8.469   8.899 -0.0474 -0.0405 -0.0021
  625ERGO    R5 8704  11.616   8.603   8.747 -0.1825 -0.0077 -0.0475
  625ERGO    C1 8705  11.368   8.404   8.535 -0.2595 -0.0699  0.0988
  625ERGO    C2 8706  11.088   8.232   8.322  0.2780 -0.1912 -0.3752
  626ERGO   ROH 8707  11.911  10.103   9.381 -0.1528  0.0934 -0.1700
  626ERGO    R1 8708  11.775  10.034   9.143 -0.1263  0.1759 -0.2108
  626ERGO    R2 8709  11.807  10.176   8.907 -0.0347  0.2083 -0.1857
  626ERGO    R3 8710  11.867   9.931   8.806 -0.0870  0.2062 -0.2080
  626ERGO    R4 8711  11.774  10.085   8.575 -0.3729  0.1376 -0.1354
  626ERGO    R5 8712  11.699   9.892   8.641 -0.2558  0.1347 -0.0191
  626ERGO    C1 8713  11.812   9.803   8.287 -0.6188  0.0946 -0.1269
  626ERGO    C2 8714  11.662   9.646   7.956  0.3042 -0.0750 -0.2205
  627ERGO   ROH 8715   1.007  16.899   9.852 -0.0451  0.3696  0.1402
  627ERGO    R1 8716   1.009  16.911   9.570 -0.0484  0.1534  0.1301
  627ERGO    R2 8717   0.848  17.084   9.427  0.0934  0.1827  0.0090
  627ERGO    R3 8718   1.083  17.160   9.316  0.1537 -0.1010 -0.0682
  627ERGO    R4 8719   0.890  17.176   9.096  0.0556  0.2681  0.0277
  627ERGO    R5 8720   1.078  17.067   9.095 -0.0901 -0.0036 -0.1105
  627ERGO    C1 8721   1.135  17.302   8.800  0.0902  0.0512 -0.0340
  627ERGO    C2 8722   0.962  17.391   8.545 -0.1518 -0.3808 -0.1170
  628ERGO   ROH 8723   2.604   9.804   9.929  0.0421 -0.0861  0.0019
  628ERGO    R1 8724   2.573   9.664   9.685 -0.0446 -0.0416 -0.0132
  628ERGO    R2 8725   2.357   9.704   9.517 -0.0240  0.1070 -0.0080
  628ERGO    R3 8726   2.551   9.751   9.332  0.0037  0.0111 -0.0033
  628ERGO    R4 8727   2.308   9.703   9.175 -0.0241  0.1662 -0.0078
  628ERGO    R5 8728   2.499   9.601   9.153 -0.0833  0.0571 -0.0165
  628ERGO    C1 8729   2.461   9.747   8.802  0.0018  0.1107 -0.0034
  628ERGO    C2 8730   2.286   9.778   8.509 -0.0872  0.0923 -0.1168
  629ERGO   ROH 8731   6.583   6.222   9.854 -0.1543 -0.2158 -0.0465
  629ERGO    R1 8732   6.628   6.247   9.575 -0.0355  0.0242 -0.0078
  629ERGO    R2 8733   6.834   6.399   9.471  0.1714 -0.0921  0.2175
  629ERGO    R3 8734   6.896   6.168   9.342 -0.0455 -0.0331  0.0015
  629ERGO    R4 8735   7.027   6.379   9.185  0.3422 -0.0291  0.3261
  629ERGO    R5 8736   6.890   6.227   9.110  0.1909  0.2342  0.0597
  629ERGO    C1 8737   7.197   6.150   8.897  0.2379  0.0629  0.1864
  629ERGO    C2 8738   7.507   6.237   8.704  0.0185 -0.1660 -0.3594
  630ERGO   ROH 8739   7.947   1.826   9.352 -0.0899 -0.1859 -0.1136
  630ERGO    R1 8740   7.729   1.899   9.187 -0.1030 -0.1874 -0.0962
  630ERGO    R2 8741   7.609   2.148   9.198 -0.1159 -0.1979 -0.0738
  630ERGO    R3 8742   7.663   2.150   8.932 -0.1348 -0.1751 -0.0766
  630ERGO    R4 8743   7.483   2.377   8.973  0.1601  0.0524  0.0199
  630ERGO    R5 8744   7.457   2.215   8.830 -0.0641  0.1324 -0.0361
  630ERGO    C1 8745   7.460   2.513   8.591  0.3032  0.2195  0.0718
  630ERGO    C2 8746   7.547   2.798   8.490 -0.3787  0.0868 -0.0863
  631ERGO   ROH 8747  11.645  10.468   9.203  0.2212 -0.3716 -0.0199
  631ERGO    R1 8748  11.611  10.621   8.968 -0.0235 -0.3644  0.0180
  631ERGO    R2 8749  11.821  10.750   8.843 -0.2127 -0.0682  0.0017
  631ERGO    R3 8750  11.735  10.611   8.626 -0.0781 -0.1338 -0.0109
  631ERGO    R4 8751  11.860  10.852   8.515 -0.1130 -0.1038  0.0021
  631ERGO    R5 8752  11.659  10.780   8.473 -0.0749 -0.1806 -0.0679
  631ERGO    C1 8753  11.802  10.780   8.120  0.0715 -0.1863 -0.0095
  631ERGO    C2 8754  11.746  10.936   7.836  0.1320 -0.1982  0.0353
  632ERGO   ROH 8755   7.206  10.130   9.735  0.1178  0.0089  0.0679
  632ERGO    R1 8756   7.330  10.041   9.497  0.1125 -0.0904  0.1014
  632ERGO    R2 8757   7.298   9.785   9.399 -0.1087 -0.0517  0.0660
  632ERGO    R3 8758   7.221   9.915   9.173  0.0960  0.0492  0.0519
  632ERGO    R4 8759   7.250   9.634   9.092  0.1453  0.0813 -0.0419
  632ERGO    R5 8760   7.345   9.808   8.998  0.2403  0.1147  0.1119
  632ERGO    C1 8761   7.150   9.669   8.701  0.4855  0.2537 -0.1179
  632ERGO    C2 8762   7.179   9.486   8.372 -0.0718  0.2039 -0.0572
  633ERGO   ROH 8763  11.641  12.690   9.198  0.1408  0.1142  0.0783
  633ERGO    R1 8764  11.778  12.808   8.981  0.1853  0.0243  0.0567
  633ERGO    R2 8765  11.855  12.664   8.758  0.0298 -0.0219  0.0310
  633ERGO    R3 8766  11.717  12.857   8.625  0.1467  0.0919  0.0726
  633ERGO    R4 8767  11.826  12.685   8.414 -0.1165 -0.0414  0.0417
  633ERGO    R5 8768  11.849  12.902   8.430  0.0959 -0.0591  0.0026
  633ERGO    C1 8769  11.679  12.878   8.089 -0.0920  0.0540  0.0870
  633ERGO    C2 8770  11.689  12.867   7.632  0.0483  0.0456  0.4725
  634ERGO   ROH 8771  10.285   6.260   9.738  0.0947  0.0621  0.0299
  634ERGO    R1 8772  10.169   6.322   9.488  0.0173  0.1201  0.0794
  634ERGO    R2 8773  10.254   6.534   9.332  0.0384  0.0929  0.0546
  634ERGO    R3 8774  10.280   6.341   9.142 -0.1158  0.0916  0.0339
  634ERGO    R4 8775  10.339   6.592   9.002 -0.1594  0.0884  0.0020
  634ERGO    R5 8776  10.193   6.442   8.943 -0.2252  0.1137  0.0908
  634ERGO    C1 8777  10.413   6.445   8.632 -0.4192  0.0846 -0.0481
  634ERGO    C2 8778  10.524   6.545   8.377  0.1337 -0.0917  0.0692
  635ERGO   ROH 8779   3.891  18.216   9.688 -0.1054  0.0369  0.0958
  635ERGO    R1 8780   3.891  18.401   9.474  0.0126  0.0300  0.0893
  635ERGO    R2 8781   4.017  18.349   9.234 -0.1017 -0.1007  0.0549
  635ERGO    R3 8782   3.773  18.407   9.130 -0.0781  0.1302  0.1222
  635ERGO    R4 8783   3.963  18.489   8.922 -0.0619 -0.2030  0.0016
  635ERGO    R5 8784   3.806  18.612   9.010  0.1149  0.0297 -0.0002
  635ERGO    C1 8785   3.702  18.625   8.643 -0.0166 -0.0458  0.0338
  635ERGO    C2 8786   3.768  18.787   8.362 -0.0787  0.0586 -0.1277
  636ERGO   ROH 8787   5.880  12.863   9.560 -0.1320  0.0025  0.0042
  636ERGO    R1 8788   5.794  12.757   9.312 -0.0218 -0.0278 -0.0212
  636ERGO    R2 8789   5.711  12.916   9.102 -0.0358 -0.0595 -0.0343
  636ERGO    R3 8790   5.899  12.777   8.964  0.0575  0.0259  0.0041
  636ERGO    R4 8791   5.751  12.926   8.759  0.0278 -0.0247 -0.0263
  636ERGO    R5 8792   5.787  12.711   8.762  0.1226 -0.0155 -0.0242
  636ERGO    C1 8793   5.950  12.801   8.430  0.1523  0.0759  0.0146
  636ERGO    C2 8794   5.953  12.750   8.072 -0.1172  0.0076 -0.2276
  637ERGO   ROH 8795  10.433   1.063   9.288  0.0436 -0.1046 -0.1565
  637ERGO    R1 8796  10.439   1.098   9.007  0.0610 -0.2088 -0.1695
  637ERGO    R2 8797  10.478   0.888   8.831  0.0212 -0.2816 -0.0917
  637ERGO    R3 8798  10.247   0.979   8.722  0.0454 -0.2712 -0.1331
  637ERGO    R4 8799  10.431   0.956   8.496  0.1171 -0.1730 -0.0839
  637ERGO    R5 8800  10.318   1.132   8.552  0.0800 -0.2059 -0.0595
  637ERGO    C1 8801  10.187   1.082   8.198  0.1956 -0.1000 -0.1181
  637ERGO    C2 8802  10.208   0.975   7.912  0.2706  0.1511 -0.0072
  638ERGO   ROH 8803   8.882  18.081   9.391  0.0099  0.1906  0.1229
  638ERGO    R1 8804   8.942  18.188   9.136 -0.0644  0.0732  0.0565
  638ERGO    R2 8805   9.045  18.035   8.930 -0.0714 -0.0072  0.1191
  638ERGO    R3 8806   8.831  18.133   8.794 -0.1174 -0.1252  0.1029
  638ERGO    R4 8807   9.043  18.112   8.593 -0.1273 -0.1556  0.0837
  638ERGO    R5 8808   8.925  18.289   8.639 -0.1736 -0.1635  0.0231
  638ERGO    C1 8809   8.842  18.250   8.269 -0.2031 -0.3527  0.0478
  638ERGO    C2 8810   8.592  18.257   8.007 -0.0111 -0.1123  0.1402
  639ERGO   ROH 8811   3.552  13.827   9.640 -0.0338 -0.0522  0.0922
  639ERGO    R1 8812   3.429  13.671   9.439 -0.1186 -0.0280  0.1256
  639ERGO    R2 8813   3.174  13.721   9.346 -0.0468  0.1605  0.0393
  639ERGO    R3 8814   3.298  13.727   9.104  0.0194 -0.0526  0.0650
  639ERGO    R4 8815   3.012  13.732   9.041  0.0275  0.1841 -0.0003
  639ERGO    R5 8816   3.160  13.592   8.963 -0.0769  0.0116  0.0905
  639ERGO    C1 8817   3.034  13.744   8.636  0.1329 -0.0021  0.0008
  639ERGO    C2 8818   2.868  14.007   8.273 -0.0243 -0.0609 -0.3568
  640ERGO   ROH 8819   3.646  16.931   8.653  0.0914 -0.2151 -0.0659
  640ERGO    R1 8820   3.646  17.138   8.459 -0.0139 -0.0840  0.0704
  640ERGO    R2 8821   3.810  17.133   8.236  0.1171  0.2311  0.1501
  640ERGO    R3 8822   3.575  17.168   8.104  0.1505  0.0747  0.0498
  640ERGO    R4 8823   3.773  17.315   7.945  0.1680 -0.0308 -0.0217
  640ERGO    R5 8824   3.585  17.393   8.023  0.1329  0.0052 -0.1459
  640ERGO    C1 8825   3.530  17.453   7.650  0.2290 -0.3302 -0.2160
  640ERGO    C2 8826   3.264  17.495   7.391 -0.2182  0.2552  0.3800
  641ERGO   ROH 8827  12.806   9.387   9.504  0.1925  0.0595 -0.0302
  641ERGO    R1 8828  12.640   9.345   9.278  0.1020  0.0152  0.0423
  641ERGO    R2 8829  12.618   9.530   9.074  0.0367 -0.0327  0.0016
  641ERGO    R3 8830  12.687   9.319   8.918 -0.0370 -0.0768  0.0306
  641ERGO    R4 8831  12.533   9.494   8.741 -0.2671 -0.2079  0.0955
  641ERGO    R5 8832  12.496   9.283   8.778 -0.1584 -0.2050  0.2256
  641ERGO    C1 8833  12.548   9.274   8.400 -0.5129 -0.3512  0.1774
  641ERGO    C2 8834  12.504   9.224   8.025  0.1566 -0.2159  0.2549
  642ERGO   ROH 8835  12.566   1.105   9.808  0.0630 -0.1877 -0.0869
  642ERGO    R1 8836  12.431   1.030   9.571 -0.0604 -0.0773 -0.0514
  642ERGO    R2 8837  12.231   1.185   9.458  0.1530  0.1682 -0.0866
  642ERGO    R3 8838  12.388   1.167   9.236  0.1109 -0.1305 -0.0979
  642ERGO    R4 8839  12.114   1.175   9.133  0.0988  0.5641 -0.0844
  642ERGO    R5 8840  12.265   1.025   9.088 -0.2501  0.2042 -0.1428
  642ERGO    C1 8841  12.192   1.153   8.736  0.0278  0.5142 -0.0936
  642ERGO    C2 8842  12.068   1.318   8.481 -0.0671  0.1716  0.2063
  643ERGO   ROH 8843   1.893   0.337   9.431  0.0709 -0.1223 -0.0162
  643ERGO    R1 8844   1.858   0.291   9.154  0.3743 -0.1456 -0.0534
  643ERGO    R2 8845   1.627   0.361   9.019  0.2599 -0.7211 -0.1827
  643ERGO    R3 8846   1.801   0.494   8.857  0.0257 -0.2073 -0.0323
  643ERGO    R4 8847   1.576   0.422   8.683  0.2301 -0.5750 -0.1527
  643ERGO    R5 8848   1.787   0.379   8.648  0.3471 -0.0841 -0.1272
  643ERGO    C1 8849   1.709   0.582   8.335 -0.0072 -0.0076  0.0061
  643ERGO    C2 8850   1.391   0.636   8.182 -0.1552  0.2215 -0.0803
  644ERGO   ROH 8851   5.984  14.913   9.686  0.0664  0.0538 -0.0731
  644ERGO    R1 8852   5.983  14.853   9.409  0.0412  0.2325 -0.1124
  644ERGO    R2 8853   5.783  14.705   9.289  0.1961  0.0327 -0.1248
  644ERGO    R3 8854   5.767  14.921   9.125 -0.1672  0.1216  0.0162
  644ERGO    R4 8855   5.662  14.698   8.965  0.1793  0.0433 -0.1192
  644ERGO    R5 8856   5.822  14.835   8.908 -0.0406  0.3464 -0.0465
  644ERGO    C1 8857   5.577  14.897   8.622 -0.1716  0.1331  0.0165
  644ERGO    C2 8858   5.493  15.073   8.403 -0.2071  0.1390  0.1780
  645ERGO   ROH 8859  16.230  12.223   9.538 -0.0017 -0.1620 -0.2174
  645ERGO    R1 8860  16.317  12.209   9.269  0.0731 -0.3281 -0.1904
  645ERGO    R2 8861  16.354  11.969   9.137 -0.1503 -0.4230 -0.1291
  645ERGO    R3 8862  16.185  12.080   8.955  0.0197 -0.2648 -0.1871
  645ERGO    R4 8863  16.384  11.939   8.794  0.0733 -0.1894 -0.1292
  645ERGO    R5 8864  16.327  12.148   8.775  0.1473 -0.1826 -0.0368
  645ERGO    C1 8865  16.243  12.026   8.424  0.3633  0.0952 -0.1838
  645ERGO    C2 8866  16.118  11.939   8.147 -0.4177 -0.0666  0.3501
  646ERGO   ROH 8867  17.179  16.610   9.788  0.3273  0.1000  0.0835
  646ERGO    R1 8868  17.162  16.692   9.517  0.1463  0.1071  0.0955
  646ERGO    R2 8869  17.338  16.873   9.405  0.0736  0.1111 -0.0191
  646ERGO    R3 8870  17.374  16.675   9.222 -0.0498  0.1136 -0.0467
  646ERGO    R4 8871  17.445  16.922   9.080  0.2304  0.0731  0.0261
  646ERGO    R5 8872  17.301  16.772   9.015  0.1115  0.2222 -0.0525
  646ERGO    C1 8873  17.542  16.765   8.719  0.2058  0.0533  0.0265
  646ERGO    C2 8874  17.788  16.749   8.521 -0.0670  0.1700 -0.2936
  647ERGO   ROH 8875   9.147  11.881   9.329  0.0907  0.1474  0.0496
  647ERGO    R1 8876   8.956  11.880   9.121  0.1168 -0.1044  0.0274
  647ERGO    R2 8877   8.946  12.076   8.927 -0.1283 -0.1112  0.0474
  647ERGO    R3 8878   8.961  11.864   8.757  0.1753 -0.0778  0.0234
  647ERGO    R4 8879   8.858  12.084   8.592 -0.2216 -0.1956  0.0676
  647ERGO    R5 8880   8.768  11.887   8.616  0.0914 -0.3586  0.0705
  647ERGO    C1 8881   8.821  11.890   8.239  0.0090 -0.2135  0.0569
  647ERGO    C2 8882   8.824  11.948   7.944  0.0664  0.1137  0.0148
  648ERGO   ROH 8883  16.583   9.529   9.895  0.1019 -0.0981 -0.1361
  648ERGO    R1 8884  16.742   9.525   9.661  0.0698 -0.0858 -0.1584
  648ERGO    R2 8885  16.936   9.332   9.617  0.0705 -0.0778 -0.1909
  648ERGO    R3 8886  16.799   9.295   9.385  0.0398 -0.0758 -0.1732
  648ERGO    R4 8887  17.055   9.159   9.343  0.0447 -0.0567 -0.2152
  648ERGO    R5 8888  16.966   9.310   9.214  0.0158 -0.0561 -0.1957
  648ERGO    C1 8889  16.997   9.022   8.966  0.0014 -0.0427 -0.2127
  648ERGO    C2 8890  17.047   8.969   8.663 -0.2522 -0.1166  0.0714
  649ERGO   ROH 8891  15.356   7.463  10.124  0.0081  0.0961  0.0889
  649ERGO    R1 8892  15.241   7.397   9.873  0.1299  0.0455  0.0462
  649ERGO    R2 8893  15.178   7.588   9.683  0.0627  0.0228  0.0483
  649ERGO    R3 8894  15.333   7.433   9.523  0.2155  0.1420  0.0774
  649ERGO    R4 8895  15.177   7.598   9.338 -0.0013 -0.0890  0.0446
  649ERGO    R5 8896  15.193   7.381   9.337  0.2424 -0.0771  0.1143
  649ERGO    C1 8897  15.322   7.457   8.986  0.1048 -0.0422  0.0696
  649ERGO    C2 8898  15.262   7.630   8.678  0.0249  0.1273 -0.1583
  650ERGO   ROH 8899  13.547  15.601   8.860  0.1222 -0.0651 -0.0077
  650ERGO    R1 8900  13.512  15.514   8.593  0.1383 -0.0762 -0.0053
  650ERGO    R2 8901  13.316  15.617   8.427  0.2002 -0.0303 -0.0421
  650ERGO    R3 8902  13.526  15.665   8.262  0.2384 -0.1108 -0.0187
  650ERGO    R4 8903  13.292  15.675   8.087  0.2570 -0.0933 -0.0577
  650ERGO    R5 8904  13.469  15.553   8.059  0.2387 -0.1429 -0.0060
  650ERGO    C1 8905  13.475  15.753   7.734  0.3261 -0.2057 -0.0449
  650ERGO    C2 8906  13.456  15.900   7.368  0.2130  0.0838  0.2087
  651ERGO   ROH 8907   2.637  12.582   9.909 -0.0464 -0.0015  0.0350
  651ERGO    R1 8908   2.480  12.669   9.690  0.0372  0.0975  0.0141
  651ERGO    R2 8909   2.467  12.934   9.612  0.1896  0.1086  0.0329
  651ERGO    R3 8910   2.539  12.832   9.370  0.1769  0.0916  0.0355
  651ERGO    R4 8911   2.390  13.074   9.306  0.0038 -0.0111  0.0227
  651ERGO    R5 8912   2.352  12.874   9.228  0.1013 -0.0576  0.0844
  651ERGO    C1 8913   2.413  13.060   8.901 -0.1163 -0.0967  0.0194
  651ERGO    C2 8914   2.262  13.240   8.644 -0.1649  0.2169 -0.1049
  652ERGO   ROH 8915   6.741  13.696   9.471  0.0733 -0.0323 -0.0301
  652ERGO    R1 8916   6.742  13.566   9.219  0.1057 -0.0589 -0.0175
  652ERGO    R2 8917   6.518  13.444   9.114  0.1083 -0.0461 -0.0499
  652ERGO    R3 8918   6.571  13.605   8.901  0.1687 -0.0701 -0.0514
  652ERGO    R4 8919   6.401  13.391   8.793  0.1505 -0.0410 -0.0650
  652ERGO    R5 8920   6.596  13.453   8.717  0.1694 -0.0815 -0.0381
  652ERGO    C1 8921   6.384  13.510   8.406  0.2318 -0.0607 -0.0754
  652ERGO    C2 8922   6.450  13.534   8.075 -0.2543 -0.0917 -0.1871
  653ERGO   ROH 8923   1.136   9.321  10.089  0.0990 -0.4582 -0.0280
  653ERGO    R1 8924   1.061   9.183   9.854  0.0189 -0.2220 -0.1410
  653ERGO    R2 8925   0.866   9.276   9.682  0.0995  0.0438 -0.0735
  653ERGO    R3 8926   1.062   9.249   9.496  0.0830  0.0510 -0.0942
  653ERGO    R4 8927   0.816   9.265   9.340  0.0721  0.1702 -0.0783
  653ERGO    R5 8928   0.967   9.109   9.328  0.0314  0.1288 -0.1370
  653ERGO    C1 8929   0.972   9.233   8.967  0.0406  0.2504 -0.1003
  653ERGO    C2 8930   0.767   9.234   8.675  0.0416  0.0043 -0.0530
  654ERGO   ROH 8931  18.200  17.271   9.696  0.2254 -0.1278 -0.1332
  654ERGO    R1 8932  18.340  17.279   9.450  0.1166 -0.1604 -0.1968
  654ERGO    R2 8933  18.445  17.054   9.331  0.1286 -0.1656 -0.1759
  654ERGO    R3 8934  18.299  17.137   9.117  0.0123 -0.2695 -0.1381
  654ERGO    R4 8935  18.450  16.906   9.018  0.1153 -0.1928 -0.1633
  654ERGO    R5 8936  18.445  17.106   8.930 -0.0278 -0.2033 -0.1811
  654ERGO    C1 8937  18.317  16.899   8.636 -0.0017 -0.3063 -0.1204
  654ERGO    C2 8938  18.287  16.690   8.289  0.0728 -0.1100  0.3346
  655ERGO   ROH 8939   6.297  17.825   9.044  0.0257  0.2120  0.0051
  655ERGO    R1 8940   6.270  17.688   8.798  0.1456  0.1036  0.0512
  655ERGO    R2 8941   6.134  17.795   8.582 -0.0140 -0.1182  0.0396
  655ERGO    R3 8942   6.367  17.743   8.452  0.0271  0.1118  0.0179
  655ERGO    R4 8943   6.173  17.791   8.239 -0.0798 -0.2057  0.0328
  655ERGO    R5 8944   6.302  17.617   8.260  0.1382 -0.0461  0.0794
  655ERGO    C1 8945   6.414  17.741   7.917 -0.0795 -0.0407  0.0086
  655ERGO    C2 8946   6.386  17.997   7.659  0.0119 -0.0029 -0.0478
  656ERGO   ROH 8947  13.942  10.904   9.061  0.1134  0.1171  0.1700
  656ERGO    R1 8948  13.865  10.876   8.790  0.1418  0.0995  0.1637
  656ERGO    R2 8949  13.999  11.000   8.583  0.1749  0.0702  0.1680
  656ERGO    R3 8950  14.015  10.748   8.484  0.1656  0.0603  0.1917
  656ERGO    R4 8951  14.126  10.918   8.272  0.0621  0.0494  0.1271
  656ERGO    R5 8952  13.965  10.772   8.251  0.0703  0.0274  0.2079
  656ERGO    C1 8953  14.214  10.632   7.998 -0.0124  0.0281  0.1255
  656ERGO    C2 8954  14.542  10.458   7.948 -0.1433  0.0379 -0.1461
  657ERGO   ROH 8955   8.943  16.564   9.342 -0.0757 -0.0097  0.0045
  657ERGO    R1 8956   9.075  16.620   9.098 -0.1011  0.0560  0.0062
  657ERGO    R2 8957   9.028  16.477   8.866 -0.0640  0.0661 -0.0036
  657ERGO    R3 8958   8.980  16.724   8.763 -0.1420  0.0610  0.0181
  657ERGO    R4 8959   9.106  16.575   8.544  0.1842  0.2030  0.0954
  657ERGO    R5 8960   9.169  16.768   8.623 -0.0304  0.2329  0.2136
  657ERGO    C1 8961   9.106  16.864   8.260  0.2553  0.2780  0.1732
  657ERGO    C2 8962   9.291  16.920   7.919 -0.1521  0.1306  0.3801
  658ERGO   ROH 8963  12.295   4.045   9.542 -0.1189  0.1513  0.1416
  658ERGO    R1 8964  12.327   4.091   9.265 -0.0361  0.0632  0.1352
  658ERGO    R2 8965  12.227   3.919   9.073 -0.0265  0.0293  0.1578
  658ERGO    R3 8966  12.107   4.144   8.979  0.0493  0.0301  0.0634
  658ERGO    R4 8967  12.128   3.970   8.745 -0.0121 -0.0757  0.1374
  658ERGO    R5 8968  12.200   4.175   8.761  0.0570 -0.0938  0.0496
  658ERGO    C1 8969  11.959   4.212   8.467  0.0674 -0.1362  0.0367
  658ERGO    C2 8970  11.783   4.402   8.152 -0.0663 -0.2198  0.2153
  659ERGO   ROH 8971   2.476   2.047   9.613  0.1066 -0.0511  0.0806
  659ERGO    R1 8972   2.505   2.055   9.331  0.0335 -0.1402  0.0697
  659ERGO    R2 8973   2.736   2.144   9.208 -0.0703  0.0135 -0.0226
  659ERGO    R3 8974   2.724   1.902   9.085  0.1110 -0.0497  0.0826
  659ERGO    R4 8975   2.744   2.096   8.866 -0.1749 -0.1204 -0.0063
  659ERGO    R5 8976   2.592   1.941   8.889 -0.0139 -0.2598  0.1237
  659ERGO    C1 8977   2.738   1.841   8.551 -0.0655 -0.2576  0.1019
  659ERGO    C2 8978   2.650   1.873   8.213 -0.2832 -0.1457  0.3411
  660ERGO   ROH 8979   5.488   4.886   9.674 -0.2719  0.1781 -0.0287
  660ERGO    R1 8980   5.407   4.778   9.425 -0.1812  0.0542 -0.0064
  660ERGO    R2 8981   5.363   4.508   9.387 -0.1312  0.0266  0.1005
  660ERGO    R3 8982   5.121   4.593   9.298 -0.1163 -0.0439 -0.0078
  660ERGO    R4 8983   5.141   4.318   9.201 -0.0530 -0.0753  0.1115
  660ERGO    R5 8984   5.098   4.494   9.081 -0.0412 -0.1337  0.0278
  660ERGO    C1 8985   4.785   4.288   9.010  0.0065 -0.2009  0.0163
  660ERGO    C2 8986   4.603   4.073   8.913 -0.0926 -0.3637  0.2935
  661ERGO   ROH 8987  16.033  10.497   9.454  0.0092 -0.0298  0.1490
  661ERGO    R1 8988  16.312  10.453   9.461 -0.0278 -0.3385 -0.0352
  661ERGO    R2 8989  16.437  10.259   9.308 -0.2786 -0.1687 -0.4906
  661ERGO    R3 8990  16.589  10.469   9.225 -0.1042 -0.1361 -0.1104
  661ERGO    R4 8991  16.713  10.234   9.102 -0.2148 -0.0239 -0.4208
  661ERGO    R5 8992  16.812  10.384   9.224 -0.1630 -0.2779 -0.1517
  661ERGO    C1 8993  17.016  10.415   8.904 -0.0137  0.0911 -0.0233
  661ERGO    C2 8994  17.154  10.440   8.604 -0.1488 -0.0666 -0.1531
  662ERGO   ROH 8995   7.614  10.410   9.714 -0.0170  0.0545  0.0848
  662ERGO    R1 8996   7.606  10.441   9.432 -0.0651  0.0721  0.0863
  662ERGO    R2 8997   7.767  10.294   9.262 -0.0508  0.1172  0.0467
  662ERGO    R3 8998   7.530  10.230   9.146 -0.0569  0.0700  0.0890
  662ERGO    R4 8999   7.728  10.195   8.933 -0.1080  0.1223  0.0531
  662ERGO    R5 9000   7.547  10.316   8.923 -0.1289  0.0770  0.0935
  662ERGO    C1 9001   7.483  10.077   8.633 -0.1471  0.0809  0.0966
  662ERGO    C2 9002   7.326   9.973   8.318 -0.0642  0.0351  0.1678
  663ERGO   ROH 9003  11.230   1.913   9.825  0.2147  0.0593 -0.0079
  663ERGO    R1 9004  11.175   1.948   9.550  0.1889  0.0574 -0.0033
  663ERGO    R2 9005  11.353   1.872   9.352  0.1040 -0.0904 -0.0257
  663ERGO    R3 9006  11.138   1.733   9.258 -0.0073  0.0396  0.0339
  663ERGO    R4 9007  11.315   1.763   9.026  0.0762 -0.3143  0.0509
  663ERGO    R5 9008  11.105   1.819   9.037  0.1267 -0.1032 -0.0422
  663ERGO    C1 9009  11.091   1.569   8.749 -0.0445 -0.3225  0.1514
  663ERGO    C2 9010  11.094   1.578   8.358 -0.0960 -0.0841 -0.2926
  664ERGO   ROH 9011   9.935   4.639   9.715 -0.0936  0.1050 -0.0811
  664ERGO    R1 9012   9.940   4.499   9.470  0.0666  0.1041 -0.0782
  664ERGO    R2 9013   9.735   4.514   9.286 -0.0101 -0.2254 -0.0262
  664ERGO    R3 9014   9.935   4.584   9.116 -0.1598  0.0912 -0.0795
  664ERGO    R4 9015   9.762   4.406   8.958  0.0462 -0.1365 -0.0512
  664ERGO    R5 9016   9.977   4.385   8.989  0.0899  0.1688 -0.1221
  664ERGO    C1 9017   9.966   4.410   8.608 -0.0615  0.2124 -0.1158
  664ERGO    C2 9018   9.964   4.378   8.274 -0.0616  0.0378  0.1415
  665ERGO   ROH 9019  11.624   4.034   9.633 -0.1449 -0.0653  0.1907
  665ERGO    R1 9020  11.370   4.038   9.508 -0.1158 -0.1651  0.1276
  665ERGO    R2 9021  11.317   4.187   9.281 -0.1484 -0.0905  0.1865
  665ERGO    R3 9022  11.233   3.948   9.183  0.0226 -0.0971  0.0487
  665ERGO    R4 9023  11.154   4.143   8.980 -0.1974 -0.0172  0.2017
  665ERGO    R5 9024  11.024   3.997   9.077 -0.0512 -0.1937  0.1423
  665ERGO    C1 9025  10.979   3.893   8.713 -0.0652  0.0193  0.0811
  665ERGO    C2 9026  10.873   3.871   8.472 -0.1529 -0.2687  0.1585
  666ERGO   ROH 9027  17.498   2.155   9.890 -0.0803 -0.1868  0.0129
  666ERGO    R1 9028  17.363   2.181   9.642 -0.0302 -0.0453 -0.0013
  666ERGO    R2 9029  17.297   2.426   9.533  0.0136  0.0200  0.1120
  666ERGO    R3 9030  17.433   2.330   9.318  0.0483  0.1178  0.0902
  666ERGO    R4 9031  17.257   2.538   9.209 -0.2522 -0.1341  0.0892
  666ERGO    R5 9032  17.272   2.331   9.141 -0.0237 -0.1392  0.1520
  666ERGO    C1 9033  17.361   2.513   8.818 -0.3746 -0.1321  0.0554
  666ERGO    C2 9034  17.380   2.637   8.428 -0.0409 -0.0613  0.2279
  667ERGO   ROH 9035   8.874   6.727   9.539  0.0328 -0.1445 -0.1178
  667ERGO    R1 9036   9.048   6.826   9.338 -0.0937  0.0147 -0.1513
  667ERGO    R2 9037   9.280   6.696   9.265  0.0350  0.2421 -0.1707
  667ERGO    R3 9038   9.172   6.712   9.016 -0.0212  0.1071 -0.1551
  667ERGO    R4 9039   9.461   6.705   8.971 -0.0391  0.1459 -0.2196
  667ERGO    R5 9040   9.322   6.854   8.895 -0.0820  0.0796 -0.2559
  667ERGO    C1 9041   9.465   6.724   8.566 -0.1349 -0.0368 -0.2334
  667ERGO    C2 9042   9.532   6.824   8.179 -0.1495 -0.1856 -0.1902
  668ERGO   ROH 9043  11.930  16.242   9.337  0.1524 -0.1117 -0.1126
  668ERGO    R1 9044  11.974  16.435   9.135  0.0898 -0.0418 -0.0606
  668ERGO    R2 9045  12.142  16.390   8.920  0.0855  0.0620 -0.0868
  668ERGO    R3 9046  11.923  16.459   8.775  0.0578  0.0494 -0.0505
  668ERGO    R4 9047  12.144  16.468   8.583  0.0595  0.2549 -0.0434
  668ERGO    R5 9048  12.001  16.627   8.624 -0.0114  0.1707  0.0463
  668ERGO    C1 9049  11.938  16.577   8.251  0.0182  0.3553  0.0160
  668ERGO    C2 9050  11.840  16.467   7.916  0.2975 -0.1673 -0.1274
  669ERGO   ROH 9051  12.092  16.935   7.991 -0.0362  0.0471 -0.0010
  669ERGO    R1 9052  12.338  17.077   7.983 -0.0511  0.0764  0.0666
  669ERGO    R2 9053  12.557  16.985   7.844 -0.0079  0.1110  0.1142
  669ERGO    R3 9054  12.546  17.230   7.727 -0.0073  0.1174  0.1265
  669ERGO    R4 9055  12.831  17.156   7.720 -0.0511 -0.0379 -0.1971
  669ERGO    R5 9056  12.746  17.340   7.802  0.1409  0.0097 -0.0986
  669ERGO    C1 9057  12.979  17.487   7.538 -0.0755 -0.1185 -0.3668
  669ERGO    C2 9058  13.280  17.644   7.512  0.0061  0.2345  0.1546
  670ERGO   ROH 9059   3.933   2.653   9.722 -0.1773 -0.3438  0.0668
  670ERGO    R1 9060   3.742   2.759   9.541 -0.0177  0.0236  0.1024
  670ERGO    R2 9061   3.804   2.955   9.356  0.3543 -0.1656  0.0149
  670ERGO    R3 9062   3.701   2.775   9.180 -0.1099 -0.0064  0.1113
  670ERGO    R4 9063   3.683   3.032   9.042  0.3205  0.0096  0.0711
  670ERGO    R5 9064   3.521   2.891   9.074  0.0527  0.3339  0.1954
  670ERGO    C1 9065   3.516   2.909   8.694 -0.1350  0.2610  0.1942
  670ERGO    C2 9066   3.548   2.773   8.352 -0.2306  0.1482 -0.2559
  671ERGO   ROH 9067  12.659   8.220   9.633  0.0457 -0.0899 -0.1054
  671ERGO    R1 9068  12.729   8.203   9.359  0.0021 -0.1476 -0.1140
  671ERGO    R2 9069  12.604   8.029   9.184 -0.1483 -0.0618 -0.0983
  671ERGO    R3 9070  12.562   8.256   9.040  0.0021 -0.0310 -0.0939
  671ERGO    R4 9071  12.575   8.044   8.839 -0.1210 -0.0284 -0.0987
  671ERGO    R5 9072  12.692   8.227   8.842 -0.0075 -0.1041 -0.0868
  671ERGO    C1 9073  12.518   8.265   8.504  0.0360  0.0200 -0.0948
  671ERGO    C2 9074  12.693   8.315   8.202  0.1485 -0.2367  0.1578
  672ERGO   ROH 9075  17.979  10.024   9.892 -0.2527 -0.1503  0.0597
  672ERGO    R1 9076  17.826  10.009   9.655 -0.3083 -0.3672  0.1104
  672ERGO    R2 9077  17.923  10.093   9.410 -0.6244  0.0972  0.1509
  672ERGO    R3 9078  17.854   9.842   9.333  0.0148 -0.0367 -0.0463
  672ERGO    R4 9079  17.854   9.999   9.085 -0.8185  0.3394  0.1174
  672ERGO    R5 9080  17.691   9.875   9.160 -0.3672 -0.2706  0.2322
  672ERGO    C1 9081  17.751   9.708   8.822 -0.3317  0.3547 -0.0871
  672ERGO    C2 9082  17.899   9.720   8.521 -0.2148  0.1451 -0.0049
  673ERGO   ROH 9083   8.952  14.334   8.931  0.1553  0.2146  0.0961
  673ERGO    R1 9084   9.129  14.286   8.716  0.0273  0.0965  0.0167
  673ERGO    R2 9085   9.150  14.039   8.593 -0.1445  0.0663  0.0508
  673ERGO    R3 9086   9.100  14.183   8.368 -0.1893  0.0467  0.0476
  673ERGO    R4 9087   9.302  13.987   8.287 -0.1596  0.0730  0.0417
  673ERGO    R5 9088   9.313  14.203   8.261 -0.1987  0.0764  0.0294
  673ERGO    C1 9089   9.343  14.092   7.897 -0.2105  0.0583  0.0334
  673ERGO    C2 9090   9.501  13.902   7.681 -0.0151 -0.0799 -0.0585
  674ERGO   ROH 9091  17.645   8.199   9.975 -0.0378 -0.1283  0.0649
  674ERGO    R1 9092  17.559   8.267   9.714 -0.0072 -0.2506  0.0226
  674ERGO    R2 9093  17.686   8.458   9.560 -0.1479 -0.1302  0.0528
  674ERGO    R3 9094  17.699   8.256   9.379  0.1406 -0.1415  0.0799
  674ERGO    R4 9095  17.687   8.501   9.218 -0.4439 -0.1844  0.0424
  674ERGO    R5 9096  17.556   8.328   9.201 -0.1159 -0.4530  0.1531
  674ERGO    C1 9097  17.699   8.337   8.847 -0.3456 -0.2265  0.0619
  674ERGO    C2 9098  17.810   8.316   8.476  0.1245  0.1071  0.0581
  675PSPI    C1 9099   5.982   4.835   5.427 -0.0625 -0.1756  0.0448
  675PSPI    C2 9100   6.149   5.034   5.123 -0.1855  0.1222  0.1684
  675PSPI    C3 9101   6.378   4.821   5.372 -0.0243  0.2888  0.1644
  675PSPI   PO4 9102   5.863   4.957   5.550 -0.2622  0.2695 -0.0088
  675PSPI   GL1 9103   5.753   4.949   6.000  0.0154  0.0701  0.0219
  675PSPI   GL2 9104   5.823   5.333   5.967 -0.0703  0.0638 -0.0631
  675PSPI   C1A 9105   5.443   4.940   6.311  0.0529  0.3500 -0.1272
  675PSPI   C2A 9106   5.396   4.902   6.756 -0.3807 -0.0320  0.0283
  675PSPI   C3A 9107   5.382   5.077   7.197 -0.1605 -0.0179 -0.0408
  675PSPI   C4A 9108   5.245   5.403   7.472  0.0757 -0.1603 -0.1464
  675PSPI   C1B 9109   5.721   5.390   6.415  0.0290 -0.0326 -0.1079
  675PSPI   C2B 9110   5.603   5.397   6.789 -0.0042 -0.0215 -0.0451
  675PSPI   C3B 9111   5.724   5.536   7.174  0.2732 -0.3251  0.0630
  675PSPI   C4B 9112   5.935   5.815   7.415 -0.0444 -0.1514 -0.4502
  676PSPI    C1 9113  14.751  14.698   5.599  0.0612  0.1030 -0.1252
  676PSPI    C2 9114  14.701  14.400   5.337  0.0005 -0.1008  0.1154
  676PSPI    C3 9115  15.053  14.589   5.361  0.0141 -0.0981 -0.0943
  676PSPI   PO4 9116  14.621  14.592   5.806 -0.1628  0.0752  0.2724
  676PSPI   GL1 9117  14.463  14.528   6.181  0.3047  0.0049  0.0424
  676PSPI   GL2 9118  14.183  14.436   6.295  0.0714 -0.0635  0.3876
  676PSPI   C1A 9119  14.670  14.315   6.606  0.0057  0.1375 -0.3556
  676PSPI   C2A 9120  14.535  14.460   7.039 -0.0051 -0.1657  0.1279
  676PSPI   C3A 9121  14.533  14.302   7.378  0.0000  0.0345  0.1204
  676PSPI   C4A 9122  14.347  14.325   7.737  0.1875 -0.1148 -0.0851
  676PSPI   C1B 9123  14.101  14.404   6.690  0.0458  0.0580 -0.0436
  676PSPI   C2B 9124  14.017  14.220   7.204  0.2951  0.1347 -0.1021
  676PSPI   C3B 9125  13.828  14.094   7.631  0.0258 -0.0725 -0.0636
  676PSPI   C4B 9126  13.437  14.013   7.772 -0.0161 -0.1813 -0.4843
  677PSPI    C1 9127  16.866   5.195   5.370 -0.0027 -0.2388  0.2100
  677PSPI    C2 9128  16.577   4.942   5.260  0.0023 -0.1517 -0.0082
  677PSPI    C3 9129  16.694   5.232   5.011  0.0481  0.0200  0.2107
  677PSPI   PO4 9130  16.868   5.180   5.664 -0.0015  0.1369  0.0120
  677PSPI   GL1 9131  16.680   5.123   6.130  0.0665  0.0763 -0.0605
  677PSPI   GL2 9132  16.660   4.800   6.081  0.1451 -0.1002 -0.0113
  677PSPI   C1A 9133  16.568   5.044   6.592 -0.2256  0.2428 -0.2504
  677PSPI   C2A 9134  16.662   5.176   6.967 -0.2377  0.1115  0.0734
  677PSPI   C3A 9135  16.635   5.269   7.386 -0.3061  0.1188 -0.2247
  677PSPI   C4A 9136  16.978   5.282   7.760  0.1095 -0.3403  0.1319
  677PSPI   C1B 9137  16.759   4.493   6.349 -0.0964  0.0131  0.2984
  677PSPI   C2B 9138  16.664   4.564   6.844  0.1750 -0.1936  0.3394
  677PSPI   C3B 9139  16.841   4.721   7.259  0.0694  0.1705  0.1980
  677PSPI   C4B 9140  16.931   4.760   7.647 -0.3816 -0.3173 -0.0634
  678PSPI    C1 9141   8.300   7.693   5.827  0.0049 -0.0368 -0.0365
  678PSPI    C2 9142   8.246   8.011   6.063 -0.0770 -0.0942  0.0227
  678PSPI    C3 9143   8.583   7.974   5.851 -0.0404  0.0008  0.0636
  678PSPI   PO4 9144   8.017   7.580   5.847 -0.0251  0.1390 -0.1685
  678PSPI   GL1 9145   7.773   7.683   6.248 -0.1080  0.0537 -0.0874
  678PSPI   GL2 9146   7.701   7.620   6.541  0.1995  0.3135  0.0785
  678PSPI   C1A 9147   8.060   7.932   6.471  0.0014  0.1131  0.1432
  678PSPI   C2A 9148   8.120   7.850   6.884  0.0974  0.0660 -0.5657
  678PSPI   C3A 9149   8.011   7.783   7.350  0.2880 -0.0406 -0.3610
  678PSPI   C4A 9150   8.195   7.909   7.692  0.1635  0.1558  0.0154
  678PSPI   C1B 9151   7.669   7.617   6.945  0.1510 -0.0220 -0.0774
  678PSPI   C2B 9152   7.769   7.435   7.150 -0.0884  0.0196 -0.0792
  678PSPI   C3B 9153   7.931   7.274   7.636 -0.0621 -0.1539 -0.0159
  678PSPI   C4B 9154   8.208   7.305   7.906 -0.1033 -0.3880 -0.2957
  679PSPI    C1 9155  16.869  16.167   5.571  0.1707  0.1135 -0.2021
  679PSPI    C2 9156  16.626  16.319   5.293 -0.0374  0.2162  0.0314
  679PSPI    C3 9157  16.994  16.199   5.193 -0.2171 -0.0393 -0.3484
  679PSPI   PO4 9158  16.858  16.381   5.821 -0.3429  0.1219  0.0641
  679PSPI   GL1 9159  16.719  16.402   6.261  0.4294 -0.3752 -0.0779
  679PSPI   GL2 9160  16.646  16.698   6.481  0.4541 -0.1132  0.0614
  679PSPI   C1A 9161  16.929  16.200   6.617  0.1934 -0.1954  0.3493
  679PSPI   C2A 9162  16.916  16.118   7.017 -0.1912  0.1653 -0.2372
  679PSPI   C3A 9163  16.804  16.144   7.450 -0.3060  0.2304 -0.3060
  679PSPI   C4A 9164  16.973  16.090   7.778  0.2245 -0.0573  0.0634
  679PSPI   C1B 9165  16.689  16.536   6.904  0.1537 -0.0814 -0.0972
  679PSPI   C2B 9166  16.761  16.657   7.382  0.1783  0.1359 -0.3654
  679PSPI   C3B 9167  16.661  16.531   7.798 -0.0013 -0.0150  0.0477
  679PSPI   C4B 9168  16.803  16.400   8.157 -0.2207  0.0852 -0.0942
  680PSPI    C1 9169  11.963   2.192   5.741  0.0567  0.1651  0.0262
  680PSPI    C2 9170  12.005   1.832   5.572  0.0864  0.1467  0.0727
  680PSPI    C3 9171  12.307   2.094   5.562  0.0005  0.2404 -0.1252
  680PSPI   PO4 9172  11.860   2.113   6.022  0.2356  0.0642 -0.1920
  680PSPI   GL1 9173  11.848   2.346   6.435 -0.0968  0.0005  0.0054
  680PSPI   GL2 9174  11.817   2.655   6.312  0.1035  0.2282  0.1366
  680PSPI   C1A 9175  12.065   2.482   6.790  0.2201  0.0133 -0.0929
  680PSPI   C2A 9176  12.114   2.476   7.227  0.1637  0.1003  0.3040
  680PSPI   C3A 9177  12.132   2.700   7.617 -0.0053  0.0220  0.2626
  680PSPI   C4A 9178  12.209   2.578   7.942  0.2226  0.1064 -0.0061
  680PSPI   C1B 9179  11.534   2.662   6.679  0.5172 -0.0325 -0.2002
  680PSPI   C2B 9180  11.638   2.606   7.088  0.1058  0.0185 -0.1617
  680PSPI   C3B 9181  11.628   2.493   7.522 -0.1404 -0.1885 -0.1990
  680PSPI   C4B 9182  11.748   2.405   7.877  0.0650  0.0125 -0.2141
  681PSPI    C1 9183  15.073  17.534   5.781  0.0070  0.1892  0.0653
  681PSPI    C2 9184  15.256  17.279   6.030 -0.2284 -0.0091  0.0389
  681PSPI    C3 9185  15.045  17.140   5.719  0.0173  0.2345 -0.2437
  681PSPI   PO4 9186  15.082  17.779   6.059  0.2534  0.0978  0.0324
  681PSPI   GL1 9187  14.795  18.009   6.365 -0.2890 -0.2340  0.1408
  681PSPI   GL2 9188  14.673  17.724   6.384  0.0835  0.1463 -0.1296
  681PSPI   C1A 9189  14.754  18.108   6.800 -0.3981 -0.1565 -0.1082
  681PSPI   C2A 9190  14.662  17.884   7.184  0.0642 -0.1225  0.0830
  681PSPI   C3A 9191  14.700  17.765   7.609  0.2963 -0.0837 -0.1076
  681PSPI   C4A 9192  14.589  17.636   8.148 -0.3284 -0.0057  0.1623
  681PSPI   C1B 9193  14.532  17.511   6.712 -0.3859 -0.0777 -0.4227
  681PSPI   C2B 9194  14.273  17.445   7.094  0.1545 -0.1818  0.3575
  681PSPI   C3B 9195  14.227  17.534   7.538  0.3089  0.0352 -0.4607
  681PSPI   C4B 9196  14.063  17.569   7.964 -0.1505  0.0743  0.1262
  682PSPI    C1 9197   5.265  15.948   5.413 -0.1109  0.1322 -0.1143
  682PSPI    C2 9198   5.598  15.742   5.333 -0.0799  0.1332  0.0109
  682PSPI    C3 9199   5.459  16.009   5.069  0.0004  0.1092 -0.0558
  682PSPI   PO4 9200   5.394  16.026   5.774 -0.2938  0.2712 -0.0108
  682PSPI   GL1 9201   5.168  16.118   6.156 -0.3163 -0.0351 -0.2977
  682PSPI   GL2 9202   5.331  16.452   6.098 -0.1605  0.0698  0.2056
  682PSPI   C1A 9203   5.259  16.011   6.593  0.0690 -0.1658 -0.0600
  682PSPI   C2A 9204   5.178  16.100   6.895 -0.1249  0.1468 -0.0852
  682PSPI   C3A 9205   5.157  16.413   7.192 -0.3414  0.2790  0.0650
  682PSPI   C4A 9206   4.915  16.748   7.330  0.1183 -0.1822  0.1962
  682PSPI   C1B 9207   5.348  16.593   6.511  0.0917 -0.4297  0.1714
  682PSPI   C2B 9208   5.405  16.731   6.819  0.3829  0.1665  0.2268
  682PSPI   C3B 9209   5.440  16.781   7.215 -0.4193 -0.2192  0.1984
  682PSPI   C4B 9210   5.444  16.912   7.586  0.2759 -0.0561 -0.0582
  683PSPI    C1 9211  15.351   6.802   5.583  0.0354  0.0040  0.3469
  683PSPI    C2 9212  15.684   6.951   5.419 -0.0379  0.1432  0.3228
  683PSPI    C3 9213  15.326   7.057   5.276 -0.0936  0.0011  0.3544
  683PSPI   PO4 9214  15.382   6.866   5.830  0.2155 -0.0765  0.0328
  683PSPI   GL1 9215  15.528   6.648   6.211 -0.0520  0.2043 -0.1804
  683PSPI   GL2 9216  15.498   6.990   6.396 -0.0054  0.3198 -0.3105
  683PSPI   C1A 9217  15.561   6.602   6.706 -0.4660 -0.0021  0.2579
  683PSPI   C2A 9218  15.536   6.627   7.108  0.0181 -0.2804 -0.0128
  683PSPI   C3A 9219  15.440   6.663   7.566  0.1542  0.1799  0.0280
  683PSPI   C4A 9220  15.341   6.475   8.007  0.3041  0.2794  0.1518
  683PSPI   C1B 9221  15.588   7.077   6.815  0.1668  0.1550 -0.0380
  683PSPI   C2B 9222  15.487   7.137   7.292  0.0071  0.0835  0.1164
  683PSPI   C3B 9223  15.795   6.967   7.687 -0.0744 -0.3715 -0.3523
  683PSPI   C4B 9224  15.923   7.257   8.133  0.3658  0.1970 -0.1314
  684PSPI    C1 9225  15.308   4.406   5.487 -0.1137 -0.0948  0.0572
  684PSPI    C2 9226  15.569   4.113   5.410 -0.0575 -0.0046 -0.1018
  684PSPI    C3 9227  15.332   4.251   5.119 -0.0342  0.1554 -0.0457
  684PSPI   PO4 9228  15.263   4.351   5.762  0.1842  0.0565 -0.1898
  684PSPI   GL1 9229  14.932   4.613   6.016 -0.1680  0.2242 -0.1176
  684PSPI   GL2 9230  14.755   4.887   6.161  0.0398  0.0673  0.1639
  684PSPI   C1A 9231  14.796   4.439   6.362 -0.1172  0.2186  0.0705
  684PSPI   C2A 9232  14.800   4.192   6.688 -0.1933 -0.0870 -0.2952
  684PSPI   C3A 9233  14.941   4.254   7.199  0.0693 -0.0475  0.0355
  684PSPI   C4A 9234  14.991   4.227   7.618 -0.2919 -0.1050 -0.2043
  684PSPI   C1B 9235  14.638   4.865   6.589  0.1301  0.1449 -0.2849
  684PSPI   C2B 9236  14.643   4.650   6.984 -0.0242  0.0123  0.0081
  684PSPI   C3B 9237  14.476   4.506   7.406 -0.0217  0.0172  0.0723
  684PSPI   C4B 9238  14.320   4.427   7.823 -0.1943 -0.0494 -0.1623
  685PSPI    C1 9239  16.910  14.019   6.172 -0.0655 -0.1620  0.1591
  685PSPI    C2 9240  16.613  14.013   5.904 -0.2827 -0.1122  0.3954
  685PSPI    C3 9241  16.858  13.699   5.937 -0.0665  0.0001 -0.0652
  685PSPI   PO4 9242  16.769  14.094   6.448  0.3795  0.0884 -0.1731
  685PSPI   GL1 9243  16.675  14.355   6.809  0.3971 -0.3095 -0.1488
  685PSPI   GL2 9244  16.327  14.223   6.668 -0.1126  0.2090  0.0370
  685PSPI   C1A 9245  16.609  14.226   7.230  0.1436 -0.0857  0.0361
  685PSPI   C2A 9246  16.459  14.420   7.595  0.0515  0.1449  0.2628
  685PSPI   C3A 9247  16.219  14.694   7.735 -0.0672  0.1410 -0.2865
  685PSPI   C4A 9248  16.159  15.039   7.753  0.4093 -0.1380 -0.1988
  685PSPI   C1B 9249  16.194  13.993   7.017 -0.3414 -0.0111 -0.1121
  685PSPI   C2B 9250  16.223  13.718   7.253  0.0947  0.4613  0.3697
  685PSPI   C3B 9251  16.214  13.945   7.679  0.1361 -0.1037 -0.0042
  685PSPI   C4B 9252  16.309  14.243   8.010  0.2161 -0.1960 -0.1463
  686PSPI    C1 9253  11.077   6.464   5.265 -0.0479  0.1673  0.1960
  686PSPI    C2 9254  11.080   6.840   5.127  0.0878  0.0632 -0.0925
  686PSPI    C3 9255  10.732   6.657   5.203  0.0087  0.1143 -0.3235
  686PSPI   PO4 9256  11.139   6.416   5.489 -0.1387 -0.1508  0.0507
  686PSPI   GL1 9257  11.227   6.439   5.986 -0.0238 -0.1082 -0.0598
  686PSPI   GL2 9258  11.608   6.354   6.063  0.2423  0.2096  0.3213
  686PSPI   C1A 9259  11.178   6.539   6.435 -0.0432 -0.1242 -0.1225
  686PSPI   C2A 9260  11.235   6.573   6.876  0.4858  0.2802 -0.1305
  686PSPI   C3A 9261  11.210   6.747   7.176 -0.0924 -0.0333 -0.1443
  686PSPI   C4A 9262  11.155   6.982   7.481 -0.3324  0.1201 -0.0287
  686PSPI   C1B 9263  11.593   6.287   6.452 -0.0966 -0.2879  0.0867
  686PSPI   C2B 9264  11.742   6.095   6.757  0.0209 -0.1776 -0.1712
  686PSPI   C3B 9265  11.728   5.968   7.204  0.1524 -0.1279 -0.2791
  686PSPI   C4B 9266  11.889   6.154   7.623  0.0582  0.2825 -0.5080
  687PSPI    C1 9267   8.338   5.556   5.628 -0.1421  0.1965  0.1792
  687PSPI    C2 9268   7.970   5.400   5.602 -0.0062 -0.0964 -0.0423
  687PSPI    C3 9269   8.155   5.532   5.273  0.0991  0.0235  0.0639
  687PSPI   PO4 9270   8.341   5.628   5.842  0.2539  0.1039  0.5159
  687PSPI   GL1 9271   7.969   5.754   6.147  0.0790  0.1566  0.1468
  687PSPI   GL2 9272   8.244   5.582   6.324  0.0473  0.0396 -0.1933
  687PSPI   C1A 9273   7.777   6.005   6.575 -0.2716  0.0537 -0.1895
  687PSPI   C2A 9274   7.815   6.117   6.947 -0.0611 -0.0852 -0.1514
  687PSPI   C3A 9275   7.763   6.325   7.266 -0.2305 -0.0573 -0.0244
  687PSPI   C4A 9276   7.606   6.395   7.639 -0.1388  0.0569 -0.3867
  687PSPI   C1B 9277   8.666   5.551   6.619  0.0685 -0.0248  0.1205
  687PSPI   C2B 9278   8.778   5.607   7.036 -0.0315 -0.0627  0.0728
  687PSPI   C3B 9279   8.899   5.825   7.413  0.0711 -0.2009  0.1316
  687PSPI   C4B 9280   8.939   6.148   7.739  0.0420  0.1248  0.2572
  688PSPI    C1 9281  13.091   8.406   5.779 -0.4565 -0.1269  0.0297
  688PSPI    C2 9282  13.089   8.800   5.848 -0.1890 -0.0869 -0.1757
  688PSPI    C3 9283  13.003   8.661   5.483  0.0769 -0.1958 -0.1989
  688PSPI   PO4 9284  13.375   8.310   5.890  0.1682  0.0528 -0.4642
  688PSPI   GL1 9285  13.641   8.382   6.250 -0.1300 -0.0842  0.0386
  688PSPI   GL2 9286  13.450   8.619   6.282  0.1630  0.1248 -0.0816
  688PSPI   C1A 9287  13.687   8.217   6.673 -0.0657 -0.0875 -0.2162
  688PSPI   C2A 9288  13.586   8.116   7.118  0.1817 -0.2212 -0.1934
  688PSPI   C3A 9289  13.414   7.950   7.539 -0.3361  0.0616 -0.1671
  688PSPI   C4A 9290  13.467   7.673   7.888  0.0017  0.0741  0.0520
  688PSPI   C1B 9291  13.526   8.664   6.637 -0.1597  0.2474 -0.2304
  688PSPI   C2B 9292  13.574   8.605   7.088  0.2630 -0.3013 -0.0754
  688PSPI   C3B 9293  13.656   8.368   7.524  0.1384  0.1165  0.1039
  688PSPI   C4B 9294  13.547   8.628   7.841 -0.0354  0.2265  0.0799
  689PSPI    C1 9295  14.520  10.081   5.406 -0.0625 -0.2587 -0.2072
  689PSPI    C2 9296  14.767   9.901   5.664 -0.2303  0.0531  0.1821
  689PSPI    C3 9297  14.634   9.703   5.343  0.0771 -0.3023  0.2669
  689PSPI   PO4 9298  14.604  10.384   5.488  0.3195 -0.1684 -0.2169
  689PSPI   GL1 9299  14.595  10.567   5.834  0.0041 -0.1523  0.3134
  689PSPI   GL2 9300  14.364  10.224   5.907 -0.1224  0.0047  0.2001
  689PSPI   C1A 9301  14.732  10.603   6.231  0.2053  0.1232  0.3186
  689PSPI   C2A 9302  15.082  10.331   6.434  0.1089  0.2356  0.0515
  689PSPI   C3A 9303  15.265  10.064   6.738 -0.1329  0.1348 -0.2793
  689PSPI   C4A 9304  15.122  10.300   7.063  0.1412  0.0339 -0.1526
  689PSPI   C1B 9305  14.179  10.449   6.217  0.1418  0.0907 -0.0212
  689PSPI   C2B 9306  14.113  10.607   6.680 -0.2101 -0.2280  0.0892
  689PSPI   C3B 9307  14.200  10.526   7.090  0.1893 -0.1132  0.1177
  689PSPI   C4B 9308  14.054  10.361   7.474 -0.4705  0.1114 -0.4027
  690PSPI    C1 9309   5.990   9.003   5.318  0.0597  0.0003  0.0327
  690PSPI    C2 9310   6.076   8.621   5.233 -0.0583  0.0120 -0.1439
  690PSPI    C3 9311   5.699   8.729   5.312 -0.0417  0.1102 -0.1967
  690PSPI   PO4 9312   6.159   9.096   5.510 -0.0876  0.1199  0.2940
  690PSPI   GL1 9313   6.305   9.158   5.892 -0.0466 -0.2541  0.0950
  690PSPI   GL2 9314   5.963   9.087   5.981 -0.0528  0.1237 -0.4370
  690PSPI   C1A 9315   6.636   9.163   6.191 -0.1442 -0.0741  0.1683
  690PSPI   C2A 9316   6.942   8.984   6.438 -0.1682 -0.0463 -0.0747
  690PSPI   C3A 9317   6.914   8.949   6.851 -0.2003  0.1846  0.2627
  690PSPI   C4A 9318   7.079   8.838   7.250 -0.1421  0.2498  0.3338
  690PSPI   C1B 9319   6.161   9.026   6.339 -0.1093  0.3805  0.1395
  690PSPI   C2B 9320   6.441   8.941   6.691 -0.0480 -0.1459  0.1035
  690PSPI   C3B 9321   6.197   8.727   6.998  0.0299  0.2319 -0.2393
  690PSPI   C4B 9322   6.039   8.558   7.325 -0.2439 -0.1476  0.2625
  691PSPI    C1 9323   9.056  11.302   5.326  0.2916 -0.0757 -0.0092
  691PSPI    C2 9324   9.122  11.428   4.952  0.0539  0.1200  0.0122
  691PSPI    C3 9325   8.855  11.138   5.021 -0.1630  0.3270  0.0599
  691PSPI   PO4 9326   9.350  11.392   5.415  0.1300 -0.0404  0.0328
  691PSPI   GL1 9327   9.608  11.543   5.832  0.2450 -0.3810  0.2782
  691PSPI   GL2 9328   9.455  11.792   5.763  0.0797 -0.3062 -0.0215
  691PSPI   C1A 9329   9.716  11.646   6.285 -0.0639 -0.0420 -0.1490
  691PSPI   C2A 9330   9.875  11.561   6.637  0.2471  0.0516 -0.2386
  691PSPI   C3A 9331   9.794  11.706   6.966  0.0860 -0.2428 -0.1731
  691PSPI   C4A 9332   9.632  11.910   7.238  0.2336 -0.1812 -0.1044
  691PSPI   C1B 9333   9.334  11.976   6.215 -0.2949  0.0228 -0.1075
  691PSPI   C2B 9334   9.551  12.027   6.589 -0.0767  0.1670 -0.1142
  691PSPI   C3B 9335   9.442  12.297   6.964  0.0419  0.0408  0.4669
  691PSPI   C4B 9336   9.246  12.262   7.382  0.0032 -0.2548 -0.2998
  692PSPI    C1 9337  17.138   8.678   5.961 -0.0958  0.0980 -0.1848
  692PSPI    C2 9338  17.263   9.056   5.923  0.1874  0.0439  0.1591
  692PSPI    C3 9339  16.879   8.965   5.856  0.1547  0.3574 -0.1055
  692PSPI   PO4 9340  17.278   8.585   6.199  0.0263  0.2781  0.2012
  692PSPI   GL1 9341  17.088   8.498   6.606  0.3380  0.1192 -0.1070
  692PSPI   GL2 9342  17.258   8.234   6.747 -0.1324 -0.1928 -0.1452
  692PSPI   C1A 9343  17.252   8.725   6.896 -0.0623  0.2658  0.1739
  692PSPI   C2A 9344  17.322   8.505   7.251  0.3553  0.3341  0.0999
  692PSPI   C3A 9345  17.440   8.595   7.714 -0.2411 -0.1484 -0.0767
  692PSPI   C4A 9346  17.342   8.493   8.268  0.1554 -0.0061 -0.0171
  692PSPI   C1B 9347  16.853   8.410   7.048 -0.1614  0.2102 -0.1058
  692PSPI   C2B 9348  16.789   8.426   7.510  0.1788 -0.1783 -0.0224
  692PSPI   C3B 9349  16.942   8.571   7.830 -0.3435 -0.2441  0.3052
  692PSPI   C4B 9350  17.230   8.899   8.102 -0.2328 -0.0825 -0.2286
  693PSPI    C1 9351   0.338  14.359   6.027 -0.1532  0.0017  0.0969
  693PSPI    C2 9352   0.578  14.421   5.713  0.1231 -0.2370  0.2553
  693PSPI    C3 9353   0.266  14.173   5.680 -0.1303  0.1013  0.0384
  693PSPI   PO4 9354   0.503  14.365   6.195  0.0994 -0.0951 -0.1391
  693PSPI   GL1 9355   0.627  14.670   6.398 -0.0337  0.2662  0.2207
  693PSPI   GL2 9356   0.696  14.999   6.466  0.1396 -0.1941 -0.3631
  693PSPI   C1A 9357   0.819  14.579   6.737 -0.0691 -0.2964 -0.1658
  693PSPI   C2A 9358   1.096  14.333   7.047 -0.0319  0.2466  0.1593
  693PSPI   C3A 9359   1.122  14.341   7.493 -0.0503  0.1378 -0.0438
  693PSPI   C4A 9360   1.448  13.982   7.669 -0.0728 -0.0828 -0.0137
  693PSPI   C1B 9361   0.769  15.108   6.868  0.2831  0.2291  0.1246
  693PSPI   C2B 9362   1.115  15.257   7.211 -0.1732  0.0202 -0.0164
  693PSPI   C3B 9363   1.446  15.311   7.427  0.3851  0.1604 -0.0589
  693PSPI   C4B 9364   1.453  15.400   7.911 -0.0180  0.0555  0.1197
  694PSPI    C1 9365  11.369  10.373   5.416 -0.0326  0.0932  0.2234
  694PSPI    C2 9366  11.191  10.205   5.099  0.1422  0.0086  0.1687
  694PSPI    C3 9367  11.037  10.535   5.264 -0.0602 -0.0592  0.1180
  694PSPI   PO4 9368  11.470  10.089   5.506 -0.1220 -0.0698 -0.2233
  694PSPI   GL1 9369  11.528   9.927   5.836 -0.1751 -0.0271  0.1054
  694PSPI   GL2 9370  11.234   9.663   5.777  0.0433  0.0611  0.1225
  694PSPI   C1A 9371  11.332   9.718   6.286 -0.0177 -0.4163 -0.0736
  694PSPI   C2A 9372  11.137   9.712   6.616 -0.2423  0.3541 -0.0370
  694PSPI   C3A 9373  11.108   9.492   7.069  0.0493  0.1265 -0.1705
  694PSPI   C4A 9374  11.310   9.416   7.406  0.0548  0.1197  0.1194
  694PSPI   C1B 9375  11.029   9.938   6.000 -0.0712  0.2115  0.0250
  694PSPI   C2B 9376  10.893  10.225   6.326 -0.0978 -0.1827 -0.3274
  694PSPI   C3B 9377  10.830  10.122   6.749  0.0248 -0.2089 -0.1675
  694PSPI   C4B 9378  10.823  10.039   7.208  0.0625 -0.1801 -0.0865
  695POPI    C1 9379  17.621   3.137   5.435 -0.1428  0.2127 -0.0519
  695POPI    C2 9380  17.319   2.881   5.494 -0.0921  0.1135 -0.2180
  695POPI    C3 9381  17.247   3.245   5.343 -0.1518  0.1615 -0.0756
  695POPI   PO4 9382  17.786   3.121   5.603  0.0756 -0.1177  0.0972
  695POPI   GL1 9383  18.016   2.886   5.890 -0.1802 -0.1036  0.1643
  695POPI   GL2 9384  17.754   2.591   5.880  0.1572  0.0942 -0.0139
  695POPI   C1A 9385  18.228   2.648   6.263  0.1840  0.1490 -0.2101
  695POPI   D2A 9386  18.425   2.831   6.608 -0.0085  0.0008  0.0792
  695POPI   C3A 9387  18.516   2.555   7.002  0.1593  0.0070 -0.0063
  695POPI   C4A 9388  18.390   2.196   7.138  0.0620  0.0018  0.3925
  695POPI   C1B 9389  17.744   2.843   6.298 -0.1677  0.0689 -0.0463
  695POPI   C2B 9390  17.696   2.959   6.693  0.0045 -0.1768  0.0596
  695POPI   C3B 9391  17.884   2.971   7.139 -0.1331 -0.2191 -0.1693
  695POPI   C4B 9392  18.069   3.211   7.553  0.0106 -0.2022  0.2623
  696POPI    C1 9393   1.694  17.089   5.863 -0.1407 -0.0749  0.0244
  696POPI    C2 9394   1.497  17.423   5.961 -0.0372 -0.0687  0.2160
  696POPI    C3 9395   1.405  17.228   5.624 -0.0378  0.2017  0.0571
  696POPI   PO4 9396   1.943  17.028   6.125 -0.1671 -0.1138 -0.0505
  696POPI   GL1 9397   1.990  16.725   6.378  0.0948  0.0401 -0.1314
  696POPI   GL2 9398   1.769  16.808   6.530  0.1497  0.0194 -0.0212
  696POPI   C1A 9399   1.989  16.383   6.659 -0.2904  0.0146  0.0082
  696POPI   D2A 9400   1.936  16.216   7.068  0.0357 -0.1677 -0.3531
  696POPI   C3A 9401   2.197  16.025   7.345  0.0543  0.0899 -0.2671
  696POPI   C4A 9402   2.310  15.797   7.747 -0.0307  0.1468 -0.1364
  696POPI   C1B 9403   1.635  16.661   6.943  0.3484  0.0605 -0.1683
  696POPI   C2B 9404   1.786  16.612   7.323 -0.3536 -0.1704 -0.1937
  696POPI   C3B 9405   2.080  16.495   7.584  0.1188 -0.0313  0.0615
  696POPI   C4B 9406   2.518  16.535   7.892 -0.1421 -0.3154  0.1374
  697POPI    C1 9407   0.071  16.435   5.928  0.1871 -0.0081  0.3138
  697POPI    C2 9408   0.214  16.163   5.672 -0.0591 -0.1409  0.3144
  697POPI    C3 9409   0.376  16.528   5.687 -0.0075 -0.1485  0.0071
  697POPI   PO4 9410   0.028  16.264   6.126 -0.3821 -0.0253  0.1144
  697POPI   GL1 9411   0.124  16.534   6.459 -0.2655 -0.0356  0.0233
  697POPI   GL2 9412   0.339  16.684   6.588  0.1412 -0.3570  0.0967
  697POPI   C1A 9413   0.029  16.476   6.912 -0.0984  0.0795 -0.1769
  697POPI   D2A 9414  -0.037  16.213   7.246 -0.0946 -0.1823 -0.0128
  697POPI   C3A 9415  -0.208  16.307   7.664 -0.0005 -0.0019 -0.0533
  697POPI   C4A 9416  -0.137  16.217   8.119  0.0683  0.2278 -0.1106
  697POPI   C1B 9417   0.380  16.782   7.054 -0.0525 -0.0830 -0.1652
  697POPI   C2B 9418   0.109  16.769   7.351  0.1494 -0.3318 -0.1275
  697POPI   C3B 9419   0.142  16.621   7.862  0.2125 -0.0668 -0.0826
  697POPI   C4B 9420   0.266  16.510   8.264  0.1706 -0.0917 -0.0389
  698POPI    C1 9421  13.389   9.179   5.185 -0.2251 -0.0136  0.0943
  698POPI    C2 9422  13.058   8.981   5.081  0.0320 -0.4806  0.1415
  698POPI    C3 9423  13.269   9.176   4.803 -0.3416 -0.0755  0.1312
  698POPI   PO4 9424  13.290   9.102   5.474  0.0824  0.1276  0.0966
  698POPI   GL1 9425  13.114   9.372   5.910  0.0146 -0.3038 -0.1975
  698POPI   GL2 9426  12.902   9.282   6.181  0.1559  0.0810 -0.0383
  698POPI   C1A 9427  13.270   9.561   6.268 -0.1217 -0.2672  0.2126
  698POPI   D2A 9428  13.253   9.754   6.587  0.0697 -0.3143 -0.4907
  698POPI   C3A 9429  13.394   9.804   6.985  0.0164  0.0940  0.0248
  698POPI   C4A 9430  13.662   9.628   7.328 -0.0451 -0.3396  0.3465
  698POPI   C1B 9431  12.737   9.300   6.576 -0.0407  0.1356 -0.0015
  698POPI   C2B 9432  12.373   9.400   6.798  0.3021  0.1682 -0.1053
  698POPI   C3B 9433  11.999   9.450   6.983  0.0840 -0.0524  0.1691
  698POPI   C4B 9434  11.782   9.475   7.443 -0.0613  0.0568 -0.1514
  699POPI    C1 9435  12.460  16.980   5.130  0.1053  0.2388  0.1050
  699POPI    C2 9436  12.192  17.160   4.894  0.1810  0.0711 -0.1119
  699POPI    C3 9437  12.390  16.838   4.763  0.0505 -0.1711  0.2694
  699POPI   PO4 9438  12.423  16.883   5.400 -0.4006 -0.1380 -0.0063
  699POPI   GL1 9439  12.478  16.760   5.738  0.0883 -0.0442 -0.0654
  699POPI   GL2 9440  12.385  16.474   5.982  0.3206 -0.2568 -0.0037
  699POPI   C1A 9441  12.399  17.017   6.100 -0.0180 -0.0611  0.0250
  699POPI   D2A 9442  12.312  17.441   6.361  0.0505  0.3118 -0.0485
  699POPI   C3A 9443  12.444  17.454   6.714 -0.1746 -0.1035 -0.0636
  699POPI   C4A 9444  12.464  17.725   6.976 -0.0742 -0.2054 -0.1352
  699POPI   C1B 9445  12.247  16.588   6.406  0.0427 -0.1483  0.1022
  699POPI   C2B 9446  12.146  16.519   6.799 -0.0586 -0.1988 -0.3291
  699POPI   C3B 9447  12.229  16.452   7.257  0.0730 -0.0178  0.1143
  699POPI   C4B 9448  12.315  16.538   7.719  0.3206 -0.0484 -0.1671
  700POPI    C1 9449   7.626  11.853   5.881 -0.0658  0.2564 -0.0221
  700POPI    C2 9450   8.019  11.851   5.808 -0.0957 -0.1257 -0.1950
  700POPI    C3 9451   7.760  11.881   5.505 -0.2027  0.3791 -0.0627
  700POPI   PO4 9452   7.582  11.608   6.012 -0.0829 -0.1218 -0.0401
  700POPI   GL1 9453   7.577  11.583   6.387 -0.3375  0.1549  0.2001
  700POPI   GL2 9454   7.890  11.613   6.493  0.1349 -0.0531 -0.1633
  700POPI   C1A 9455   7.410  11.556   6.758  0.1685  0.1158 -0.1613
  700POPI   D2A 9456   7.491  11.342   7.129  0.0563  0.1646  0.1280
  700POPI   C3A 9457   7.497  11.670   7.474 -0.1662 -0.0004 -0.0104
  700POPI   C4A 9458   7.517  11.685   7.933  0.0743  0.1649 -0.1675
  700POPI   C1B 9459   7.922  11.573   6.907  0.1640  0.0443 -0.3068
  700POPI   C2B 9460   8.139  11.673   7.172 -0.0842  0.0820  0.1264
  700POPI   C3B 9461   8.526  11.692   7.188 -0.3962  0.0243 -0.2274
  700POPI   C4B 9462   8.746  11.658   6.808 -0.1891  0.0559  0.1065
  701POPI    C1 9463   5.587  13.741   5.475 -0.2345 -0.1132  0.0763
  701POPI    C2 9464   5.575  13.427   5.228  0.1196 -0.1405  0.0882
  701POPI    C3 9465   5.389  13.766   5.128  0.1257 -0.2028 -0.1421
  701POPI   PO4 9466   5.649  13.616   5.698 -0.0422  0.2300  0.3135
  701POPI   GL1 9467   5.467  13.688   6.092 -0.1025 -0.3927 -0.1063
  701POPI   GL2 9468   5.896  13.784   6.125  0.2494  0.1315 -0.3003
  701POPI   C1A 9469   5.509  13.657   6.462 -0.0746  0.0814  0.4332
  701POPI   D2A 9470   5.486  13.596   6.899 -0.1154  0.3064  0.0010
  701POPI   C3A 9471   5.548  13.645   7.340  0.1629  0.0179 -0.0075
  701POPI   C4A 9472   5.640  13.721   7.773  0.0252 -0.1340 -0.3674
  701POPI   C1B 9473   5.952  13.964   6.508  0.1596  0.0577 -0.3418
  701POPI   C2B 9474   5.720  13.994   6.929 -0.2477  0.0153  0.0723
  701POPI   C3B 9475   5.627  14.136   7.339 -0.0632 -0.1148 -0.3893
  701POPI   C4B 9476   5.833  14.170   7.690  0.0791 -0.0450 -0.1138
  702POPI    C1 9477   5.705   2.043   5.518  0.1027 -0.0622 -0.1879
  702POPI    C2 9478   5.991   2.270   5.355  0.1173  0.1504  0.1265
  702POPI    C3 9479   5.618   2.286   5.213  0.1421  0.2897  0.0760
  702POPI   PO4 9480   5.737   2.089   5.867  0.3326  0.0480  0.2329
  702POPI   GL1 9481   5.608   2.195   6.151  0.2420  0.0081 -0.1053
  702POPI   GL2 9482   5.790   2.476   6.322 -0.2865  0.0465  0.0031
  702POPI   C1A 9483   5.375   2.180   6.524  0.3749  0.1577 -0.2160
  702POPI   D2A 9484   5.455   2.101   6.920  0.0114 -0.0431  0.1089
  702POPI   C3A 9485   5.550   2.461   7.023  0.0172 -0.1321 -0.2341
  702POPI   C4A 9486   5.666   2.831   7.089  0.1327  0.2174 -0.4452
  702POPI   C1B 9487   5.819   2.581   6.600  0.2585 -0.1693 -0.1121
  702POPI   C2B 9488   6.104   2.692   6.905  0.0812 -0.2816  0.2099
  702POPI   C3B 9489   6.384   2.600   7.157 -0.2583  0.3692 -0.1808
  702POPI   C4B 9490   6.575   2.259   7.417 -0.1449 -0.0048 -0.0697
  703POPI    C1 9491   4.569  10.502   5.717  0.0544  0.2292  0.0698
  703POPI    C2 9492   4.701  10.747   5.429  0.0031  0.1970  0.0188
  703POPI    C3 9493   4.476  10.430   5.335  0.0860  0.1185  0.0827
  703POPI   PO4 9494   4.837  10.459   5.872  0.0463 -0.1245 -0.0045
  703POPI   GL1 9495   5.016  10.694   6.209 -0.3000 -0.4584 -0.1340
  703POPI   GL2 9496   4.989  11.023   6.332  0.1555 -0.1102 -0.0342
  703POPI   C1A 9497   5.144  10.454   6.595  0.0842  0.0584 -0.0002
  703POPI   D2A 9498   5.099  10.371   7.048  0.0751  0.2592  0.2503
  703POPI   C3A 9499   4.986  10.103   7.492  0.1717  0.1380  0.2068
  703POPI   C4A 9500   4.972  10.106   7.798  0.1075  0.0005 -0.0241
  703POPI   C1B 9501   5.162  10.909   6.706 -0.2063 -0.0878  0.1902
  703POPI   C2B 9502   5.216  10.852   7.150 -0.0625 -0.2870 -0.0357
  703POPI   C3B 9503   5.309  10.516   7.446 -0.3563 -0.1967  0.1688
  703POPI   C4B 9504   5.494  10.198   7.608 -0.1076  0.1458  0.0108
  704POPI    C1 9505  10.244  11.640   5.269  0.0677 -0.2333  0.2415
  704POPI    C2 9506   9.884  11.471   5.301 -0.0721  0.0261  0.0735
  704POPI    C3 9507  10.141  11.343   5.022 -0.2498  0.2108 -0.1804
  704POPI   PO4 9508  10.230  11.710   5.533 -0.0791 -0.0206 -0.0267
  704POPI   GL1 9509  10.125  11.531   5.924 -0.2234 -0.0852 -0.0775
  704POPI   GL2 9510  10.279  11.879   5.965 -0.2703  0.0114  0.0866
  704POPI   C1A 9511  10.040  11.267   6.234  0.3002 -0.0306 -0.0068
  704POPI   D2A 9512   9.684  11.168   6.432 -0.0120  0.1694  0.1326
  704POPI   C3A 9513   9.713  11.146   6.875 -0.1858 -0.2450 -0.1152
  704POPI   C4A 9514   9.717  10.957   7.246  0.2393  0.0296  0.1108
  704POPI   C1B 9515  10.017  12.070   6.398 -0.1978  0.1902  0.1961
  704POPI   C2B 9516   9.929  12.185   6.858  0.0029  0.1589  0.0229
  704POPI   C3B 9517  10.260  12.392   7.088 -0.1470 -0.2039 -0.4013
  704POPI   C4B 9518  10.217  12.823   7.286 -0.0747  0.1456  0.1275
  705POPI    C1 9519   8.322  11.314   5.657 -0.1345  0.1936 -0.1188
  705POPI    C2 9520   8.488  11.363   5.296 -0.0878 -0.0703 -0.1355
  705POPI    C3 9521   8.163  11.134   5.337  0.0255 -0.2073  0.0193
  705POPI   PO4 9522   8.450  11.511   5.784 -0.0540 -0.0442 -0.1574
  705POPI   GL1 9523   8.745  11.402   6.141  0.0805  0.1778 -0.0706
  705POPI   GL2 9524   8.439  11.350   6.416  0.1494  0.0100  0.1063
  705POPI   C1A 9525   8.875  11.846   6.284 -0.1570  0.0839 -0.3742
  705POPI   D2A 9526   9.043  12.031   6.619  0.1992  0.0883 -0.1479
  705POPI   C3A 9527   8.917  12.102   7.039  0.1550  0.1626 -0.2295
  705POPI   C4A 9528   9.050  11.786   7.404  0.1738  0.2400 -0.0165
  705POPI   C1B 9529   8.337  11.326   6.890 -0.0060  0.0665  0.0890
  705POPI   C2B 9530   8.351  11.141   7.279 -0.2512  0.0446  0.0736
  705POPI   C3B 9531   8.447  11.337   7.627 -0.0881  0.1088 -0.0994
  705POPI   C4B 9532   8.660  11.425   8.017  0.2999 -0.1584 -0.0790
  706POPI    C1 9533   3.196  17.725   5.505  0.2491 -0.0674 -0.0858
  706POPI    C2 9534   3.379  17.516   5.217 -0.1031 -0.1874 -0.2294
  706POPI    C3 9535   2.983  17.564   5.207 -0.1137 -0.1385  0.2044
  706POPI   PO4 9536   3.353  17.659   5.729 -0.2546 -0.1616 -0.2141
  706POPI   GL1 9537   3.409  17.682   6.119 -0.2322  0.2190 -0.0753
  706POPI   GL2 9538   3.045  17.701   6.326  0.3084 -0.0662  0.3629
  706POPI   C1A 9539   3.584  17.571   6.547  0.1066 -0.1565 -0.2435
  706POPI   D2A 9540   3.476  17.510   6.933 -0.0924 -0.3273 -0.2271
  706POPI   C3A 9541   3.802  17.497   7.152  0.2561 -0.1980 -0.1031
  706POPI   C4A 9542   4.044  17.513   7.467 -0.0326 -0.1221  0.0462
  706POPI   C1B 9543   2.961  17.584   6.762 -0.5778 -0.1064 -0.0350
  706POPI   C2B 9544   2.920  17.779   7.155  0.3622  0.0394  0.3352
  706POPI   C3B 9545   2.934  17.808   7.590 -0.1415 -0.2733  0.0000
  706POPI   C4B 9546   3.081  17.491   7.915 -0.2038  0.0995  0.0821
  707POPI    C1 9547  16.575   3.320   5.555 -0.0109 -0.0554 -0.1052
  707POPI    C2 9548  16.775   3.542   5.289  0.0260  0.0423  0.0030
  707POPI    C3 9549  16.715   3.152   5.221  0.0865  0.0542 -0.1201
  707POPI   PO4 9550  16.590   3.440   5.864  0.0571  0.0088  0.1775
  707POPI   GL1 9551  16.434   3.429   6.290  0.1489 -0.1286  0.2077
  707POPI   GL2 9552  16.594   3.074   6.288  0.1434 -0.1354 -0.2299
  707POPI   C1A 9553  16.361   3.588   6.733 -0.1514  0.1500 -0.0689
  707POPI   D2A 9554  16.186   3.783   7.111  0.1162 -0.0072 -0.1446
  707POPI   C3A 9555  15.875   3.892   7.379 -0.0021 -0.1005  0.2176
  707POPI   C4A 9556  15.823   4.200   7.737 -0.3330  0.0014  0.1085
  707POPI   C1B 9557  16.759   3.303   6.655  0.1703  0.1007 -0.3605
  707POPI   C2B 9558  16.568   3.353   7.092 -0.1568  0.0773 -0.2126
  707POPI   C3B 9559  16.507   3.604   7.444 -0.2030  0.0421  0.0171
  707POPI   C4B 9560  16.403   3.670   7.920 -0.0592 -0.2436 -0.0751
  708POPI    C1 9561  10.676  11.451   5.548 -0.2033  0.2843 -0.1746
  708POPI    C2 9562  11.002  11.588   5.361 -0.0578  0.0128 -0.1245
  708POPI    C3 9563  10.690  11.456   5.148 -0.0907  0.1664 -0.1728
  708POPI   PO4 9564  10.737  11.571   5.752  0.1022 -0.2694  0.1711
  708POPI   GL1 9565  10.714  11.614   6.135 -0.0031 -0.1544 -0.0018
  708POPI   GL2 9566  11.008  11.602   6.168  0.3794  0.2666 -0.0751
  708POPI   C1A 9567  10.404  11.748   6.449  0.0362 -0.0593 -0.2123
  708POPI   D2A 9568  10.289  11.902   6.839 -0.0413  0.2297  0.0999
  708POPI   C3A 9569  10.175  11.849   7.266  0.0404 -0.0213 -0.4163
  708POPI   C4A 9570   9.862  11.715   7.630  0.0297  0.0844 -0.0438
  708POPI   C1B 9571  10.844  11.728   6.626 -0.0384  0.0706 -0.1442
  708POPI   C2B 9572  10.711  11.715   7.028 -0.6185  0.1013  0.2525
  708POPI   C3B 9573  10.634  11.625   7.459  0.1056  0.2517  0.1477
  708POPI   C4B 9574  10.280  11.440   7.673 -0.1114 -0.1064  0.0409
  709POPI    C1 9575   4.529  15.488   5.548  0.0997  0.0841  0.0224
  709POPI    C2 9576   4.380  15.515   5.178  0.0287 -0.1029  0.0364
  709POPI    C3 9577   4.708  15.721   5.277 -0.1012  0.1521 -0.0538
  709POPI   PO4 9578   4.573  15.161   5.591 -0.1186  0.0394 -0.0154
  709POPI   GL1 9579   4.560  14.944   5.961  0.3086 -0.1898 -0.2526
  709POPI   GL2 9580   4.989  14.897   5.975  0.2849  0.2419  0.4023
  709POPI   C1A 9581   4.487  14.851   6.297  0.1822  0.0711  0.1288
  709POPI   D2A 9582   4.326  14.591   6.633 -0.2718 -0.1412 -0.1985
  709POPI   C3A 9583   4.051  14.541   6.983 -0.1040  0.4056 -0.0991
  709POPI   C4A 9584   3.864  14.662   7.513  0.1636 -0.0808 -0.0246
  709POPI   C1B 9585   5.178  14.769   6.420 -0.0083 -0.2492 -0.3252
  709POPI   C2B 9586   5.137  15.049   6.831  0.2332  0.4289 -0.1021
  709POPI   C3B 9587   5.092  15.319   7.137 -0.1016 -0.0410 -0.0523
  709POPI   C4B 9588   5.089  15.376   7.560  0.2117  0.1381  0.2396
  710POPI    C1 9589  15.556  13.891   5.586 -0.1009  0.1632  0.0301
  710POPI    C2 9590  15.354  13.640   5.348  0.1490 -0.0382  0.0260
  710POPI    C3 9591  15.710  13.532   5.496  0.2035  0.2672  0.1244
  710POPI   PO4 9592  15.375  13.939   5.859  0.1471 -0.0120  0.0521
  710POPI   GL1 9593  15.476  13.902   6.270 -0.1528 -0.3331  0.1431
  710POPI   GL2 9594  15.688  14.070   6.353  0.3335  0.2100  0.0812
  710POPI   C1A 9595  15.464  13.620   6.621  0.2867 -0.0550  0.2614
  710POPI   D2A 9596  15.429  13.654   6.989 -0.0782 -0.0098 -0.2176
  710POPI   C3A 9597  15.315  13.559   7.335 -0.1409 -0.1471  0.2761
  710POPI   C4A 9598  15.123  13.530   7.701  0.1353  0.0373  0.4637
  710POPI   C1B 9599  15.748  13.963   6.813 -0.1812 -0.0837  0.2183
  710POPI   C2B 9600  15.756  13.928   7.273 -0.0373 -0.0964  0.1437
  710POPI   C3B 9601  15.728  13.894   7.798  0.0360 -0.0362 -0.1605
  710POPI   C4B 9602  15.554  13.802   8.050  0.2189  0.4317  0.0550
  711POPI    C1 9603  16.510   5.566   5.463 -0.1944  0.1997  0.2191
  711POPI    C2 9604  16.112   5.599   5.492 -0.2309 -0.0751  0.0674
  711POPI    C3 9605  16.273   5.348   5.225  0.0470  0.1100  0.0569
  711POPI   PO4 9606  16.592   5.623   5.817  0.3601  0.3930  0.2658
  711POPI   GL1 9607  16.922   5.581   5.983  0.2588  0.1190 -0.1593
  711POPI   GL2 9608  17.155   5.358   6.040 -0.1541 -0.1352 -0.0828
  711POPI   C1A 9609  17.052   5.844   6.289 -0.1541  0.0419 -0.1102
  711POPI   D2A 9610  16.928   6.202   6.493  0.0741 -0.0039 -0.1665
  711POPI   C3A 9611  17.065   6.349   6.901 -0.1181  0.1016  0.3124
  711POPI   C4A 9612  16.972   6.284   7.365  0.1755  0.0348  0.3326
  711POPI   C1B 9613  17.037   5.404   6.453 -0.0296 -0.3547  0.0026
  711POPI   C2B 9614  17.086   5.472   6.871  0.0132 -0.0888  0.1456
  711POPI   C3B 9615  17.107   5.249   7.274  0.0239  0.2811  0.1429
  711POPI   C4B 9616  17.443   5.052   7.601 -0.0074  0.2857  0.5933
  712POPI    C1 9617  18.206  14.275   5.974  0.0055 -0.0679  0.0317
  712POPI    C2 9618  17.899  14.099   5.789  0.0898 -0.1456 -0.0357
  712POPI    C3 9619  17.837  14.422   6.017 -0.0521 -0.2051  0.0110
  712POPI   PO4 9620  18.415  14.148   6.236  0.2100 -0.0093  0.3006
  712POPI   GL1 9621  18.591  14.261   6.622  0.0076 -0.0254 -0.2110
  712POPI   GL2 9622  18.766  14.576   6.696  0.0796  0.1820 -0.0576
  712POPI   C1A 9623  18.524  14.310   7.037  0.1402  0.2328 -0.0957
  712POPI   D2A 9624  18.480  14.381   7.475 -0.3448  0.1185  0.1729
  712POPI   C3A 9625  18.842  14.329   7.936  0.0202  0.1634  0.2132
  712POPI   C4A 9626  18.883  14.277   8.354  0.1072  0.1854 -0.1527
  712POPI   C1B 9627  18.797  14.807   7.096 -0.4177  0.0468 -0.2630
  712POPI   C2B 9628  18.704  14.865   7.574 -0.0209  0.1095  0.1744
  712POPI   C3B 9629  18.522  14.972   7.947 -0.1675  0.3746 -0.2378
  712POPI   C4B 9630  18.564  15.222   8.349 -0.0727 -0.0994 -0.1563
  713POPI    C1 9631  13.340   0.593   5.988 -0.2421 -0.0572 -0.1055
  713POPI    C2 9632  13.421   0.792   5.651 -0.0970  0.3222  0.1468
  713POPI    C3 9633  13.561   0.420   5.703 -0.0437  0.2954 -0.1704
  713POPI   PO4 9634  13.118   0.688   6.091  0.0185 -0.0135 -0.0888
  713POPI   GL1 9635  12.780   0.565   6.429 -0.2763  0.3393  0.0641
  713POPI   GL2 9636  12.803   0.300   6.223  0.0028  0.2178  0.0370
  713POPI   C1A 9637  13.075   0.492   6.719  0.0951  0.1176  0.0882
  713POPI   D2A 9638  13.273   0.586   7.052 -0.2293  0.1502 -0.3084
  713POPI   C3A 9639  13.087   0.673   7.399 -0.1699 -0.0900  0.1314
  713POPI   C4A 9640  12.831   0.447   7.727 -0.0622  0.0104 -0.0305
  713POPI   C1B 9641  12.626   0.094   6.531  0.1714  0.2490  0.1528
  713POPI   C2B 9642  12.252   0.091   6.846  0.1748  0.1530  0.0169
  713POPI   C3B 9643  12.192   0.022   7.268 -0.2489 -0.1022  0.0941
  713POPI   C4B 9644  11.917   0.097   7.637  0.1736  0.1947  0.1629
  714POPI    C1 9645  12.444   9.798   4.974 -0.1363 -0.1310  0.1392
  714POPI    C2 9646  12.273  10.079   4.747 -0.0380  0.0689  0.3101
  714POPI    C3 9647  12.051   9.785   4.901 -0.1032 -0.0783 -0.0551
  714POPI   PO4 9648  12.619   9.917   5.195 -0.0211 -0.2453  0.3672
  714POPI   GL1 9649  12.669  10.026   5.695 -0.2516  0.0190 -0.1420
  714POPI   GL2 9650  12.963  10.012   5.684 -0.1903  0.0200  0.2174
  714POPI   C1A 9651  12.493   9.820   5.974 -0.1703  0.0826 -0.1304
  714POPI   D2A 9652  12.353   9.563   6.261 -0.0152  0.2104 -0.0243
  714POPI   C3A 9653  12.291   9.855   6.538  0.0935  0.0867 -0.1244
  714POPI   C4A 9654  12.344   9.938   7.071  0.4911 -0.1273  0.0938
  714POPI   C1B 9655  13.015  10.011   6.156  0.3337 -0.0067 -0.0568
  714POPI   C2B 9656  12.780   9.779   6.359 -0.1557  0.0326  0.0083
  714POPI   C3B 9657  12.758   9.834   6.803  0.1186  0.2072  0.0883
  714POPI   C4B 9658  12.941   9.870   7.220  0.1777 -0.1287 -0.3919
  715POPI    C1 9659  13.737   9.659   5.390  0.0675 -0.0560  0.0521
  715POPI    C2 9660  13.379   9.598   5.557 -0.0191 -0.0530 -0.1293
  715POPI    C3 9661  13.404   9.706   5.173  0.1647  0.2410 -0.0377
  715POPI   PO4 9662  13.824   9.397   5.607 -0.3424 -0.2676 -0.0890
  715POPI   GL1 9663  13.591   9.232   5.936  0.3291 -0.1867 -0.0160
  715POPI   GL2 9664  13.406   9.094   6.213  0.2164  0.1721  0.1182
  715POPI   C1A 9665  13.797   9.481   6.344  0.2847 -0.0403  0.1252
  715POPI   D2A 9666  13.778   9.588   6.704 -0.0088  0.1018  0.1364
  715POPI   C3A 9667  14.008   9.507   7.007 -0.1867  0.3494  0.2752
  715POPI   C4A 9668  14.219   9.191   7.135 -0.2572  0.1290  0.0207
  715POPI   C1B 9669  13.237   9.226   6.636  0.1571 -0.1768 -0.2009
  715POPI   C2B 9670  13.019   9.476   6.908  0.1724 -0.0954 -0.0777
  715POPI   C3B 9671  12.768   9.403   7.158 -0.1383  0.1869  0.0382
  715POPI   C4B 9672  12.764   9.252   7.591  0.0874  0.2105  0.0503
  716POPI    C1 9673   1.192  10.824   6.288 -0.0655  0.1808  0.1327
  716POPI    C2 9674   1.290  10.651   5.941  0.2332 -0.0822  0.3433
  716POPI    C3 9675   0.907  10.668   6.054  0.1162  0.1431 -0.0668
  716POPI   PO4 9676   1.325  10.769   6.438 -0.0645 -0.0213 -0.3839
  716POPI   GL1 9677   1.076  10.776   6.897  0.1203 -0.0204 -0.0429
  716POPI   GL2 9678   0.753  10.838   7.020  0.1625  0.1337  0.0301
  716POPI   C1A 9679   1.166  10.874   7.416  0.1022 -0.0053  0.0061
  716POPI   D2A 9680   1.275  10.962   7.846 -0.0881 -0.1054  0.2871
  716POPI   C3A 9681   1.144  11.227   8.074 -0.0260 -0.0330 -0.1991
  716POPI   C4A 9682   1.276  11.661   8.030  0.1893  0.2445 -0.2390
  716POPI   C1B 9683   0.782  11.203   7.450 -0.2508 -0.0103  0.0262
  716POPI   C2B 9684   0.726  11.384   7.804 -0.0556  0.0590 -0.0111
  716POPI   C3B 9685   0.752  11.716   8.055  0.1272 -0.0891 -0.0585
  716POPI   C4B 9686   0.998  11.924   8.373 -0.0527  0.1370 -0.1500
  717POPI    C1 9687   1.805   9.976   5.986 -0.0375  0.1123  0.0629
  717POPI    C2 9688   1.559  10.195   5.760  0.1324  0.1803 -0.0585
  717POPI    C3 9689   1.952  10.195   5.686  0.1481 -0.0747  0.0144
  717POPI   PO4 9690   1.564   9.815   6.169 -0.0863 -0.0936 -0.3134
  717POPI   GL1 9691   1.808   9.591   6.571 -0.1744 -0.0822  0.2464
  717POPI   GL2 9692   1.807   9.391   6.460  0.0098  0.2752  0.0644
  717POPI   C1A 9693   1.715   9.493   7.066 -0.1559  0.3680  0.2466
  717POPI   D2A 9694   1.750   9.323   7.384 -0.0215 -0.0648  0.1264
  717POPI   C3A 9695   1.893   9.212   7.778  0.1390 -0.0147 -0.0794
  717POPI   C4A 9696   2.066   9.490   7.966 -0.0677  0.2986  0.0777
  717POPI   C1B 9697   1.589   9.167   6.735  0.0650 -0.1070  0.1167
  717POPI   C2B 9698   1.485   8.999   6.996 -0.1105 -0.1199  0.1086
  717POPI   C3B 9699   1.505   8.921   7.332 -0.0893  0.4365 -0.0734
  717POPI   C4B 9700   1.436   8.982   7.766  0.0878 -0.0475  0.0202
  718POPI    C1 9701   3.518  14.465   5.629  0.2613 -0.1227 -0.0709
  718POPI    C2 9702   3.197  14.332   5.430 -0.0112  0.1969  0.1427
  718POPI    C3 9703   3.523  14.102   5.461 -0.2590 -0.1801  0.0197
  718POPI   PO4 9704   3.421  14.594   5.923  0.1102  0.0681  0.1509
  718POPI   GL1 9705   3.489  14.517   6.343 -0.1732 -0.0649  0.1281
  718POPI   GL2 9706   3.825  14.612   6.289  0.2581  0.0027  0.1329
  718POPI   C1A 9707   3.203  14.687   6.652 -0.0423  0.0653 -0.0950
  718POPI   D2A 9708   3.066  14.748   7.057 -0.2808  0.0061  0.2890
  718POPI   C3A 9709   3.249  14.987   7.297  0.0951  0.1293 -0.0441
  718POPI   C4A 9710   3.157  15.208   7.698 -0.1505 -0.1784 -0.0168
  718POPI   C1B 9711   3.827  14.815   6.560 -0.0611  0.1677  0.1014
  718POPI   C2B 9712   3.990  15.110   6.848 -0.0267 -0.1771  0.4731
  718POPI   C3B 9713   3.968  15.229   7.188  0.1439 -0.3102 -0.1845
  718POPI   C4B 9714   3.669  15.170   7.508 -0.0914 -0.0108 -0.1171
  719POPI    C1 9715   2.563   8.849   5.791 -0.1569 -0.0387 -0.1276
  719POPI    C2 9716   2.554   8.772   5.399 -0.1186 -0.1869 -0.0999
  719POPI    C3 9717   2.864   8.970   5.557 -0.0805 -0.2245 -0.1271
  719POPI   PO4 9718   2.515   8.616   5.955 -0.0665  0.1707 -0.0077
  719POPI   GL1 9719   2.590   8.683   6.377  0.0745 -0.0310  0.1893
  719POPI   GL2 9720   2.592   9.011   6.313  0.0489 -0.4017 -0.0635
  719POPI   C1A 9721   2.619   8.470   6.652 -0.1492 -0.2196 -0.1795
  719POPI   D2A 9722   2.454   8.381   7.048  0.0627  0.2482  0.0525
  719POPI   C3A 9723   2.487   8.450   7.472 -0.1440 -0.0590 -0.2425
  719POPI   C4A 9724   2.590   8.473   7.885  0.2333  0.0036 -0.0873
  719POPI   C1B 9725   2.712   9.035   6.768  0.3619  0.3985 -0.0794
  719POPI   C2B 9726   2.698   8.863   7.262 -0.0033 -0.1976 -0.1657
  719POPI   C3B 9727   2.819   8.835   7.714 -0.2466  0.3944  0.1695
  719POPI   C4B 9728   2.758   8.800   8.193 -0.0273 -0.0620  0.2353
  720POPI    C1 9729   8.735   6.997   6.002  0.0703  0.0919 -0.0116
  720POPI    C2 9730   8.521   7.070   6.332 -0.0591 -0.0683 -0.0587
  720POPI    C3 9731   8.422   6.765   6.093  0.0326  0.0478 -0.2471
  720POPI   PO4 9732   9.010   7.108   6.059 -0.0446 -0.2500 -0.0546
  720POPI   GL1 9733   9.378   7.168   6.301  0.0553 -0.2079 -0.1360
  720POPI   GL2 9734   9.641   7.133   6.362 -0.0887  0.2966  0.1420
  720POPI   C1A 9735   9.294   7.321   6.678  0.4319  0.1442 -0.1490
  720POPI   D2A 9736   9.329   7.489   7.026  0.1336  0.0677  0.1240
  720POPI   C3A 9737   9.458   7.878   7.219 -0.1706 -0.1015 -0.0133
  720POPI   C4A 9738   9.597   8.249   7.325  0.0466  0.2367  0.0985
  720POPI   C1B 9739   9.766   7.149   6.758  0.0176  0.1480 -0.1258
  720POPI   C2B 9740   9.628   7.150   7.183 -0.2601  0.3670  0.1501
  720POPI   C3B 9741   9.793   7.279   7.487 -0.2216  0.0164  0.4190
  720POPI   C4B 9742   9.776   7.239   7.905 -0.0617 -0.2235 -0.0361
  721POPI    C1 9743   7.656   8.985   5.549  0.0916 -0.1040  0.0118
  721POPI    C2 9744   7.285   8.884   5.661  0.0485 -0.0252 -0.0586
  721POPI    C3 9745   7.360   8.979   5.280  0.1135  0.0881 -0.0180
  721POPI   PO4 9746   7.818   9.096   5.659  0.2290 -0.1755 -0.0623
  721POPI   GL1 9747   7.768   9.041   6.193 -0.2098  0.3669 -0.0961
  721POPI   GL2 9748   7.447   8.979   6.083  0.2589 -0.0150 -0.1846
  721POPI   C1A 9749   7.873   9.282   6.464  0.2311  0.0140  0.2127
  721POPI   D2A 9750   8.136   9.522   6.476 -0.0735  0.3249  0.3113
  721POPI   C3A 9751   8.133   9.521   6.851 -0.0816 -0.1588  0.0183
  721POPI   C4A 9752   7.811   9.591   7.023 -0.0814 -0.0970  0.1812
  721POPI   C1B 9753   7.471   8.750   6.462 -0.3801  0.0053  0.1784
  721POPI   C2B 9754   7.431   8.702   6.960 -0.1250 -0.1398  0.1976
  721POPI   C3B 9755   7.820   8.669   7.230  0.1687  0.0908 -0.1955
  721POPI   C4B 9756   7.952   8.712   7.707 -0.2383  0.0807 -0.0524
  722POPI    C1 9757   2.179  12.194   5.934  0.1115 -0.1348 -0.0218
  722POPI    C2 9758   2.495  12.389   5.785  0.0883 -0.2452 -0.2196
  722POPI    C3 9759   2.439  12.003   5.698 -0.0190 -0.2668 -0.0604
  722POPI   PO4 9760   2.150  12.232   6.222 -0.1384  0.1209 -0.1239
  722POPI   GL1 9761   2.252  12.372   6.641 -0.0710  0.0784  0.3430
  722POPI   GL2 9762   2.434  12.642   6.783  0.0822  0.4135 -0.1523
  722POPI   C1A 9763   2.300  12.339   7.215 -0.1977  0.1351  0.1348
  722POPI   D2A 9764   2.488  12.436   7.666 -0.1972 -0.2967  0.1851
  722POPI   C3A 9765   2.681  12.150   7.996  0.0593 -0.0158 -0.1003
  722POPI   C4A 9766   2.518  11.999   8.309 -0.1451  0.0174  0.3220
  722POPI   C1B 9767   2.478  12.746   7.244 -0.1744  0.0297  0.1519
  722POPI   C2B 9768   2.325  12.988   7.688  0.2766 -0.2441  0.0694
  722POPI   C3B 9769   2.495  13.068   8.067 -0.0014 -0.0220  0.1988
  722POPI   C4B 9770   2.564  12.933   8.396 -0.0142 -0.0227 -0.0902
  723POPI    C1 9771   3.568  16.638   5.202  0.0950  0.0109  0.2130
  723POPI    C2 9772   3.439  16.259   5.208 -0.2261  0.1174  0.1999
  723POPI    C3 9773   3.826  16.337   5.143 -0.1993 -0.1974 -0.0437
  723POPI   PO4 9774   3.623  16.742   5.498 -0.0571  0.0290 -0.2154
  723POPI   GL1 9775   3.497  16.443   5.748 -0.0005 -0.3755  0.1453
  723POPI   GL2 9776   3.233  16.300   5.815 -0.0966 -0.0292 -0.0435
  723POPI   C1A 9777   3.423  16.555   6.215 -0.0259 -0.0866 -0.4797
  723POPI   D2A 9778   3.930  16.692   6.420  0.1763 -0.0213 -0.1422
  723POPI   C3A 9779   3.803  16.630   6.903 -0.1613 -0.0183 -0.0644
  723POPI   C4A 9780   3.867  16.637   7.363  0.2849  0.0380 -0.2549
  723POPI   C1B 9781   3.453  16.006   6.140  0.2952  0.2366 -0.0335
  723POPI   C2B 9782   3.564  15.747   6.463 -0.2012  0.0001  0.4072
  723POPI   C3B 9783   3.942  15.600   6.750  0.2750 -0.2927  0.0154
  723POPI   C4B 9784   4.382  15.487   6.972  0.2978 -0.0115 -0.0072
  724POPI    C1 9785   2.275   0.449   5.807  0.1821 -0.0714  0.0152
  724POPI    C2 9786   2.141   0.304   5.459 -0.1744  0.1516  0.0554
  724POPI    C3 9787   2.310   0.667   5.473 -0.1231  0.1257  0.1081
  724POPI   PO4 9788   2.342   0.208   5.946  0.2566  0.1645  0.3183
  724POPI   GL1 9789   2.591   0.200   6.293 -0.0032  0.2442 -0.2971
  724POPI   GL2 9790   2.450  -0.142   6.314  0.0663 -0.0841 -0.1357
  724POPI   C1A 9791   2.797   0.133   6.650  0.1008 -0.2367  0.1332
  724POPI   D2A 9792   2.969   0.001   7.017  0.0650 -0.0310  0.0601
  724POPI   C3A 9793   3.270  -0.253   6.968  0.1209  0.0695  0.0289
  724POPI   C4A 9794   3.367  -0.539   6.698  0.0162  0.0138  0.1962
  724POPI   C1B 9795   2.293   0.080   6.699  0.2534 -0.0338  0.2103
  724POPI   C2B 9796   2.479   0.165   7.097 -0.2584 -0.1779  0.0460
  724POPI   C3B 9797   2.449   0.396   7.421 -0.1208  0.2472  0.0275
  724POPI   C4B 9798   2.046   0.559   7.556 -0.0155  0.3535 -0.3002
  725POPI    C1 9799  18.164  11.746   6.137  0.2508  0.1071  0.0286
  725POPI    C2 9800  17.766  11.775   6.118  0.2385  0.0557  0.1932
  725POPI    C3 9801  17.985  11.815   5.786  0.0683 -0.3503  0.0262
  725POPI   PO4 9802  18.164  11.873   6.447 -0.1162  0.0021 -0.0803
  725POPI   GL1 9803  18.110  12.143   6.799 -0.0806 -0.0035  0.0404
  725POPI   GL2 9804  18.311  12.209   6.948 -0.0406  0.0933 -0.0228
  725POPI   C1A 9805  17.863  11.947   7.103 -0.0981 -0.2339  0.2285
  725POPI   D2A 9806  17.784  11.586   7.365  0.0621 -0.0694  0.0208
  725POPI   C3A 9807  17.658  11.672   7.702  0.1833 -0.1964  0.0446
  725POPI   C4A 9808  17.425  11.697   8.039 -0.0627  0.1731  0.0035
  725POPI   C1B 9809  18.215  12.343   7.321  0.1353  0.1160  0.1713
  725POPI   C2B 9810  17.800  12.147   7.615 -0.1871  0.2278 -0.0112
  725POPI   C3B 9811  17.454  12.130   7.799 -0.0308  0.4817 -0.1560
  725POPI   C4B 9812  17.313  12.209   8.185 -0.0085 -0.1334 -0.1770
  726POPI    C1 9813   0.235   1.368   5.551  0.2324  0.1011 -0.1467
  726POPI    C2 9814  -0.143   1.454   5.452  0.1484 -0.1572 -0.0579
  726POPI    C3 9815   0.130   1.391   5.166  0.0874 -0.1276 -0.1226
  726POPI   PO4 9816   0.233   1.204   5.894 -0.1382 -0.0483  0.2943
  726POPI   GL1 9817   0.263   1.244   6.348 -0.0689 -0.0895  0.0446
  726POPI   GL2 9818   0.333   1.576   6.267 -0.0723  0.2492 -0.1388
  726POPI   C1A 9819   0.436   1.124   6.781  0.0015  0.1524  0.0185
  726POPI   D2A 9820   0.664   0.939   7.120  0.1492 -0.1566  0.2828
  726POPI   C3A 9821   0.439   0.518   7.214 -0.0175  0.0598  0.1449
  726POPI   C4A 9822   0.143   0.489   7.622  0.0923 -0.0705 -0.0051
  726POPI   C1B 9823   0.495   1.632   6.653  0.1826 -0.1574 -0.1130
  726POPI   C2B 9824   0.701   1.422   7.058  0.0538  0.0718 -0.0699
  726POPI   C3B 9825   0.658   1.413   7.496  0.2968  0.0118  0.0635
  726POPI   C4B 9826   0.902   1.192   7.740 -0.1805 -0.1971  0.1049
  727POPI    C1 9827   6.723  14.883   5.660  0.0478  0.0667  0.2287
  727POPI    C2 9828   6.634  14.819   5.275 -0.1852  0.0946  0.2763
  727POPI    C3 9829   6.997  14.725   5.415 -0.1330 -0.0111  0.0738
  727POPI   PO4 9830   6.690  15.082   5.729 -0.1286  0.0709  0.2005
  727POPI   GL1 9831   6.761  15.195   6.078 -0.2682 -0.0397 -0.0320
  727POPI   GL2 9832   6.485  15.437   6.220 -0.0441  0.0343  0.1165
  727POPI   C1A 9833   6.683  15.199   6.595 -0.1036 -0.0745  0.1094
  727POPI   D2A 9834   6.286  14.981   6.799 -0.0581 -0.0838 -0.0454
  727POPI   C3A 9835   6.319  14.847   7.180 -0.4814 -0.0436 -0.1105
  727POPI   C4A 9836   6.334  14.543   7.487 -0.0240 -0.2600  0.2193
  727POPI   C1B 9837   6.242  15.385   6.583 -0.0813 -0.0852  0.0127
  727POPI   C2B 9838   6.451  15.411   6.979  0.0889  0.0940  0.0370
  727POPI   C3B 9839   6.466  15.826   7.269  0.1735 -0.2868 -0.3411
  727POPI   C4B 9840   6.577  16.125   7.536 -0.1517  0.0402 -0.1105
  728POPI    C1 9841   3.984  17.994   5.419  0.0900 -0.2456 -0.0151
  728POPI    C2 9842   3.834  17.639   5.314 -0.1297 -0.1408 -0.0617
  728POPI    C3 9843   3.594  17.958   5.340  0.1208  0.0756 -0.3423
  728POPI   PO4 9844   4.116  17.961   5.622 -0.3925 -0.1157 -0.4873
  728POPI   GL1 9845   4.114  17.814   6.095 -0.0649 -0.2328  0.0470
  728POPI   GL2 9846   3.881  17.860   6.280 -0.1264 -0.0146  0.1228
  728POPI   C1A 9847   4.332  17.968   6.545 -0.0783  0.0808 -0.0018
  728POPI   D2A 9848   4.268  18.316   6.847  0.1495  0.0640  0.0597
  728POPI   C3A 9849   4.240  18.351   7.297  0.0333 -0.2578  0.1868
  728POPI   C4A 9850   4.442  18.625   7.591  0.1912 -0.1972  0.4014
  728POPI   C1B 9851   3.904  17.972   6.677  0.5348 -0.0028  0.2018
  728POPI   C2B 9852   3.680  17.982   7.119 -0.3756  0.0809  0.2061
  728POPI   C3B 9853   3.328  18.034   7.416  0.1532 -0.1294  0.1278
  728POPI   C4B 9854   2.841  18.324   7.476  0.0171 -0.0894 -0.0043
  729POPI    C1 9855  12.209  15.787   5.409 -0.0250  0.1151 -0.2730
  729POPI    C2 9856  12.486  15.886   5.138  0.4427 -0.1932  0.0750
  729POPI    C3 9857  12.527  16.005   5.518 -0.0154 -0.0739  0.0934
  729POPI   PO4 9858  12.219  15.565   5.424  0.1226  0.0996 -0.0884
  729POPI   GL1 9859  12.261  15.564   5.872 -0.0556  0.1120 -0.1226
  729POPI   GL2 9860  12.587  15.793   5.975 -0.1467 -0.2069 -0.0954
  729POPI   C1A 9861  12.187  15.587   6.356 -0.2515 -0.2057  0.0485
  729POPI   D2A 9862  12.041  15.574   6.755  0.0797 -0.0406 -0.1310
  729POPI   C3A 9863  12.315  15.474   7.149 -0.0145  0.1756  0.0131
  729POPI   C4A 9864  12.470  15.690   7.477 -0.0204 -0.1289 -0.3207
  729POPI   C1B 9865  12.605  15.860   6.425 -0.0475  0.0174 -0.2165
  729POPI   C2B 9866  12.530  15.911   6.940  0.0549 -0.1595  0.1057
  729POPI   C3B 9867  12.245  15.965   7.128 -0.2918 -0.2529 -0.4277
  729POPI   C4B 9868  11.811  15.638   7.308 -0.0453 -0.0901  0.1968
  730POPI    C1 9869  13.437  18.281   5.828 -0.2101  0.1087  0.1068
  730POPI    C2 9870  13.406  18.515   5.505 -0.0705 -0.0473 -0.0209
  730POPI    C3 9871  13.276  18.137   5.492 -0.1442 -0.0284  0.1334
  730POPI   PO4 9872  13.615  18.491   5.984 -0.4194  0.1186 -0.2921
  730POPI   GL1 9873  13.617  18.623   6.406  0.1430 -0.2107 -0.3160
  730POPI   GL2 9874  13.269  18.719   6.370 -0.3603 -0.1928  0.1492
  730POPI   C1A 9875  13.522  18.716   6.872  0.2723  0.2574  0.1717
  730POPI   D2A 9876  13.592  18.737   7.191  0.0566  0.2059 -0.1205
  730POPI   C3A 9877  13.488  18.950   7.475 -0.0082  0.0734 -0.2372
  730POPI   C4A 9878  13.527  19.015   7.883  0.0504 -0.0907 -0.3565
  730POPI   C1B 9879  13.061  18.470   6.715  0.1993 -0.2640  0.4298
  730POPI   C2B 9880  13.088  18.607   7.089 -0.5270 -0.3035 -0.0700
  730POPI   C3B 9881  13.142  18.576   7.519 -0.2068  0.1555  0.0816
  730POPI   C4B 9882  13.084  18.618   7.990  0.0121 -0.1367 -0.2994
  731POPI    C1 9883   4.225  13.034   5.561  0.2399 -0.0063 -0.0918
  731POPI    C2 9884   4.172  13.430   5.568 -0.0788 -0.0493  0.1824
  731POPI    C3 9885   3.867  13.189   5.473  0.0089 -0.2444  0.3880
  731POPI   PO4 9886   4.354  13.089   5.885 -0.2773  0.1387  0.1847
  731POPI   GL1 9887   4.154  13.042   6.337  0.0623  0.1865 -0.0416
  731POPI   GL2 9888   3.814  12.999   6.433 -0.2303 -0.4155 -0.1181
  731POPI   C1A 9889   4.495  13.059   6.596  0.0777  0.1417 -0.3277
  731POPI   D2A 9890   4.475  13.131   7.076 -0.1125 -0.0993  0.1039
  731POPI   C3A 9891   4.140  13.095   7.379  0.0885 -0.2611 -0.2093
  731POPI   C4A 9892   3.840  13.002   7.799 -0.1725  0.3099  0.1834
  731POPI   C1B 9893   4.011  13.034   6.858  0.0888 -0.0709 -0.0787
  731POPI   C2B 9894   3.759  13.278   7.140  0.0192 -0.1111  0.1636
  731POPI   C3B 9895   3.839  13.563   7.535  0.0487  0.3756 -0.1444
  731POPI   C4B 9896   3.986  13.881   7.913  0.0857  0.0692 -0.1566
  732POPI    C1 9897   7.784  12.675   5.542 -0.0357 -0.0511 -0.0249
  732POPI    C2 9898   7.602  12.374   5.733 -0.0978  0.1001  0.1581
  732POPI    C3 9899   7.559  12.415   5.337 -0.2041 -0.0489  0.1531
  732POPI   PO4 9900   7.939  12.748   5.788  0.1154 -0.1458 -0.1837
  732POPI   GL1 9901   7.661  12.927   6.182  0.3222  0.0574  0.0246
  732POPI   GL2 9902   7.664  12.550   6.178 -0.0353 -0.3050  0.0535
  732POPI   C1A 9903   7.504  13.012   6.516  0.3609  0.1647  0.0164
  732POPI   D2A 9904   7.452  12.991   6.941 -0.0021  0.0557  0.2186
  732POPI   C3A 9905   7.608  13.238   7.312  0.1548 -0.0108 -0.3709
  732POPI   C4A 9906   7.399  13.605   7.570  0.1194  0.2477  0.0603
  732POPI   C1B 9907   7.881  12.656   6.531  0.1578  0.0341  0.1876
  732POPI   C2B 9908   7.968  12.683   6.992  0.1455  0.1510  0.0679
  732POPI   C3B 9909   8.036  12.854   7.443 -0.0425  0.1483  0.0008
  732POPI   C4B 9910   8.249  13.069   7.826  0.0903 -0.1872  0.0432
  733POPI    C1 9911  18.469   9.907   6.222  0.0658  0.0848 -0.1470
  733POPI    C2 9912  18.841   9.764   6.257  0.0746  0.0645 -0.3164
  733POPI    C3 9913  18.764  10.058   5.998  0.0086  0.1996 -0.1454
  733POPI   PO4 9914  18.339   9.725   6.227  0.1663  0.2753 -0.2577
  733POPI   GL1 9915  18.227   9.589   6.651  0.0158 -0.1116 -0.1214
  733POPI   GL2 9916  17.998   9.568   6.884 -0.0616  0.0542  0.2549
  733POPI   C1A 9917  18.547   9.444   6.956 -0.2325 -0.0437  0.1950
  733POPI   D2A 9918  18.701   9.565   7.392 -0.1002 -0.4110 -0.3106
  733POPI   C3A 9919  18.882   9.419   7.772 -0.0509  0.0707  0.1515
  733POPI   C4A 9920  18.745   9.595   8.140  0.1640  0.0665 -0.1402
  733POPI   C1B 9921  18.128   9.492   7.334 -0.2048  0.0860  0.3561
  733POPI   C2B 9922  18.362   9.443   7.767 -0.0115  0.1025  0.1292
  733POPI   C3B 9923  18.234   9.705   8.136  0.0591  0.1388 -0.3840
  733POPI   C4B 9924  18.105  10.124   8.296 -0.0975 -0.0233 -0.3421
  734POPI    C1 9925   8.760   1.947   5.771  0.1736  0.3153 -0.0033
  734POPI    C2 9926   8.520   2.002   5.456 -0.1273 -0.1341  0.1367
  734POPI    C3 9927   8.902   1.896   5.400 -0.0938  0.0906 -0.0783
  734POPI   PO4 9928   8.718   2.094   5.963 -0.0326  0.4719  0.2001
  734POPI   GL1 9929   8.975   2.220   6.287  0.0630  0.0006 -0.1968
  734POPI   GL2 9930   8.823   2.602   6.440  0.1789  0.1151 -0.5033
  734POPI   C1A 9931   9.198   2.202   6.645  0.0986  0.3733 -0.2402
  734POPI   D2A 9932   9.281   2.498   7.015  0.2138  0.0099 -0.1904
  734POPI   C3A 9933   9.248   2.356   7.434  0.1116 -0.0798  0.1679
  734POPI   C4A 9934   9.388   2.023   7.745  0.0346  0.0339 -0.0812
  734POPI   C1B 9935   9.259   2.689   6.377 -0.2025  0.1027 -0.0006
  734POPI   C2B 9936   9.497   2.858   6.742 -0.1526  0.2156  0.1168
  734POPI   C3B 9937   9.739   2.704   7.130  0.0494 -0.1692  0.1241
  734POPI   C4B 9938   9.750   2.339   7.548  0.2935 -0.1952 -0.3001
  735POPI    C1 9939   8.378  14.891   4.953  0.1407  0.1047  0.1603
  735POPI    C2 9940   8.767  14.800   4.929  0.1200  0.1108 -0.2895
  735POPI    C3 9941   8.502  14.608   4.699 -0.1251  0.2190 -0.1023
  735POPI   PO4 9942   8.320  14.932   5.159 -0.0536  0.1361 -0.1481
  735POPI   GL1 9943   8.284  14.939   5.650 -0.1662 -0.2057  0.2033
  735POPI   GL2 9944   8.278  15.256   5.744 -0.0305 -0.0555 -0.1051
  735POPI   C1A 9945   8.669  14.792   5.866  0.2153  0.1149  0.1543
  735POPI   D2A 9946   8.903  14.797   6.167  0.2089  0.0018  0.1236
  735POPI   C3A 9947   8.982  14.957   6.586 -0.2240  0.1566 -0.4091
  735POPI   C4A 9948   8.997  15.105   7.046  0.2074  0.0266 -0.1388
  735POPI   C1B 9949   8.476  15.224   6.100 -0.2003 -0.1169  0.2153
  735POPI   C2B 9950   8.596  15.166   6.405 -0.0406 -0.2565 -0.2644
  735POPI   C3B 9951   8.729  15.429   6.669 -0.0719 -0.3507  0.0798
  735POPI   C4B 9952   8.903  15.684   7.041  0.1061 -0.0517 -0.0115
  736POPI    C1 9953  18.438   5.522   5.571  0.0595 -0.1202 -0.2123
  736POPI    C2 9954  18.078   5.647   5.693  0.1541 -0.0974  0.0514
  736POPI    C3 9955  18.142   5.568   5.306 -0.0851  0.0615 -0.0233
  736POPI   PO4 9956  18.532   5.319   5.821  0.4786  0.0407  0.1815
  736POPI   GL1 9957  18.459   4.916   6.039 -0.0806  0.0904  0.0689
  736POPI   GL2 9958  18.610   4.580   6.011  0.1415  0.1533  0.1776
  736POPI   C1A 9959  18.514   5.203   6.474  0.0353  0.2082  0.3437
  736POPI   D2A 9960  18.786   5.004   6.902  0.2271 -0.2549  0.0249
  736POPI   C3A 9961  18.745   5.018   7.336 -0.1714 -0.0269 -0.4038
  736POPI   C4A 9962  18.851   5.160   7.695 -0.0167 -0.1359  0.1334
  736POPI   C1B 9963  18.668   4.608   6.421 -0.0068 -0.1432 -0.2248
  736POPI   C2B 9964  18.674   4.495   6.786  0.0860 -0.0256 -0.2634
  736POPI   C3B 9965  18.449   4.399   7.064 -0.0267 -0.0669  0.0531
  736POPI   C4B 9966  18.358   4.427   7.543  0.1033  0.0846  0.0459
  737POPI    C1 9967   2.009   9.188   5.848  0.0182 -0.1260  0.0733
  737POPI    C2 9968   2.118   8.917   5.574  0.0761  0.1712 -0.2035
  737POPI    C3 9969   1.731   8.970   5.659  0.0749 -0.1288 -0.0074
  737POPI   PO4 9970   2.144   9.115   6.088 -0.1144  0.2549 -0.1162
  737POPI   GL1 9971   2.073   8.746   6.191  0.1148  0.2872 -0.5830
  737POPI   GL2 9972   2.084   8.898   6.522 -0.2858 -0.0247  0.1374
  737POPI   C1A 9973   1.677   8.640   6.600  0.2735 -0.1386  0.2209
  737POPI   D2A 9974   1.555   8.348   6.972 -0.0463 -0.2644  0.1868
  737POPI   C3A 9975   1.516   8.437   7.402 -0.1487 -0.1437 -0.1810
  737POPI   C4A 9976   1.449   8.503   7.729 -0.1517 -0.1502 -0.3330
  737POPI   C1B 9977   2.223   8.738   6.810  0.0945  0.2225 -0.4448
  737POPI   C2B 9978   1.973   8.673   7.026 -0.0282 -0.2412 -0.0448
  737POPI   C3B 9979   2.002   8.660   7.379  0.0317 -0.2196 -0.0168
  737POPI   C4B 9980   1.904   8.743   7.747 -0.1033  0.0878  0.1903
  738POPI    C1 9981   5.234  15.408   5.383  0.1425  0.0076 -0.0886
  738POPI    C2 9982   5.157  15.618   5.052 -0.1492  0.0566  0.0069
  738POPI    C3 9983   5.307  15.248   5.024 -0.2540  0.0271 -0.1822
  738POPI   PO4 9984   5.024  15.408   5.550 -0.4573  0.0160 -0.1263
  738POPI   GL1 9985   4.905  15.413   5.955  0.1578 -0.2264  0.1836
  738POPI   GL2 9986   5.164  15.485   6.072 -0.0644  0.2241  0.3981
  738POPI   C1A 9987   4.928  15.253   6.429  0.1708 -0.1651 -0.2051
  738POPI   D2A 9988   4.873  15.528   6.777  0.0439 -0.3532  0.1503
  738POPI   C3A 9989   4.861  15.836   7.216 -0.3244 -0.0773  0.0054
  738POPI   C4A 9990   4.740  15.661   7.425  0.2088  0.2902 -0.0487
  738POPI   C1B 9991   4.804  15.743   6.286 -0.0720 -0.4246 -0.1377
  738POPI   C2B 9992   4.578  15.903   6.756  0.1566  0.2612 -0.2355
  738POPI   C3B 9993   4.721  16.211   6.960  0.1376  0.0818 -0.0041
  738POPI   C4B 9994   4.642  16.304   7.382 -0.1844  0.1623 -0.0457
  739POPI    C1 9995   8.118  13.050   5.399 -0.0865  0.0739  0.0489
  739POPI    C2 9996   7.785  13.255   5.315 -0.2210 -0.1756 -0.0406
  739POPI    C3 9997   7.966  13.042   5.029  0.1526  0.1450 -0.0525
  739POPI   PO4 9998   8.295  13.227   5.609 -0.0808  0.1437  0.3886
  739POPI   GL1 9999   8.302  13.027   6.048 -0.0028 -0.1968  0.0244
  739POPI   GL210000   8.159  12.808   6.200 -0.2163  0.1473  0.0491
  739POPI   C1A10001   8.456  13.191   6.391  0.0356 -0.0465 -0.1251
  739POPI   D2A10002   8.707  13.422   6.569 -0.1233 -0.1733 -0.0999
  739POPI   C3A10003   8.682  13.447   7.017  0.0798  0.0106 -0.1232
  739POPI   C4A10004   8.933  13.223   7.256  0.2510 -0.2656 -0.0041
  739POPI   C1B10005   8.358  12.799   6.695 -0.1575  0.1972 -0.0316
  739POPI   C2B10006   8.345  13.150   6.948  0.1720  0.1543 -0.0936
  739POPI   C3B10007   8.076  13.367   7.402  0.1627  0.1667 -0.1562
  739POPI   C4B10008   7.929  13.616   7.723  0.1053 -0.2634  0.1965
  740POPI    C110009   8.312   4.945   5.684 -0.0144 -0.2044  0.2249
  740POPI    C210010   8.374   5.130   6.033 -0.1756 -0.3050  0.3080
  740POPI    C310011   8.002   5.038   5.919 -0.1635  0.1044 -0.0869
  740POPI   PO410012   8.525   4.683   5.832  0.2163  0.1912 -0.3118
  740POPI   GL110013   8.538   4.581   6.299 -0.0520 -0.1260 -0.0151
  740POPI   GL210014   8.207   4.786   6.284 -0.2530  0.2228  0.1432
  740POPI   C1A10015   8.371   4.322   6.509  0.3447  0.0522 -0.2612
  740POPI   D2A10016   8.061   4.116   6.791 -0.1369  0.1011  0.3896
  740POPI   C3A10017   8.154   4.068   7.257 -0.0324 -0.1173  0.4463
  740POPI   C4A10018   8.452   3.785   7.569 -0.0716 -0.3126  0.1513
  740POPI   C1B10019   8.093   5.096   6.513  0.1041  0.0747 -0.0544
  740POPI   C2B10020   8.254   5.381   6.840 -0.1928  0.0978 -0.0860
  740POPI   C3B10021   8.414   5.424   7.302  0.1482  0.2884 -0.0842
  740POPI   C4B10022   8.669   5.302   7.625 -0.0043  0.0372  0.2648
  741POPI    C110023   3.953  10.557   5.634 -0.0511  0.1616  0.1339
  741POPI    C210024   4.221  10.852   5.596 -0.0830  0.2027  0.2260
  741POPI    C310025   4.041  10.702   5.271 -0.0202  0.2413  0.1732
  741POPI   PO410026   4.087  10.303   5.704  0.2648 -0.2718  0.0677
  741POPI   GL110027   4.107  10.188   6.165 -0.2349  0.0917 -0.0277
  741POPI   GL210028   3.913  10.411   6.399  0.0253  0.1173 -0.2405
  741POPI   C1A10029   4.143   9.934   6.542  0.1464  0.1027  0.0549
  741POPI   D2A10030   4.130   9.823   6.900  0.1653 -0.2178 -0.0210
  741POPI   C3A10031   4.013  10.076   7.188  0.3569 -0.1088  0.0455
  741POPI   C4A10032   3.903  10.098   7.675  0.1167 -0.0402 -0.2054
  741POPI   C1B10033   4.196  10.422   6.728 -0.0464  0.1191  0.0026
  741POPI   C2B10034   4.289  10.501   7.152 -0.2635  0.2658 -0.3066
  741POPI   C3B10035   4.424  10.225   7.543 -0.1947  0.1147 -0.1844
  741POPI   C4B10036   4.397  10.291   7.928  0.1949 -0.2282 -0.1550
  742POPS   CNO10037  15.881   7.857   5.786  0.0294  0.0779 -0.2473
  742POPS   PO410038  15.575   7.669   6.126 -0.0998 -0.2922 -0.0855
  742POPS   GL110039  15.690   7.504   6.551  0.3512 -0.2399  0.0091
  742POPS   GL210040  15.934   7.292   6.547  0.0229 -0.2356  0.0157
  742POPS   C1A10041  15.533   7.579   6.988  0.1213 -0.1254  0.2365
  742POPS   D2A10042  15.337   7.683   7.411 -0.0208  0.0403 -0.1993
  742POPS   C3A10043  15.442   7.384   7.818 -0.1152  0.3677  0.1806
  742POPS   C4A10044  15.519   7.460   8.311  0.0892  0.3406  0.2185
  742POPS   C1B10045  16.028   7.314   6.953 -0.0452  0.1096 -0.0509
  742POPS   C2B10046  15.955   7.487   7.386  0.2615  0.0554 -0.0847
  742POPS   C3B10047  16.191   7.451   7.788 -0.4054 -0.3234  0.1117
  742POPS   C4B10048  16.450   7.461   7.990  0.0314 -0.0812  0.1238
  743POPS   CNO10049   3.322   2.454   5.962 -0.0067 -0.0864 -0.2053
  743POPS   PO410050   3.415   2.829   5.690  0.0022 -0.2175 -0.0098
  743POPS   GL110051   3.656   2.848   6.051 -0.2205  0.2708 -0.0676
  743POPS   GL210052   3.525   2.653   6.351  0.1117  0.2320 -0.0340
  743POPS   C1A10053   3.506   3.099   6.482  0.1280 -0.5120 -0.2750
  743POPS   D2A10054   3.868   3.182   6.750  0.0289 -0.1971  0.3235
  743POPS   C3A10055   4.302   3.216   6.629 -0.1590 -0.1137  0.1667
  743POPS   C4A10056   4.625   3.236   6.858 -0.1648 -0.1042 -0.0327
  743POPS   C1B10057   3.895   2.751   6.480 -0.1194  0.1893 -0.4330
  743POPS   C2B10058   4.162   2.718   6.811 -0.0640 -0.2243 -0.0888
  743POPS   C3B10059   4.205   3.005   7.100 -0.0884 -0.0566 -0.0168
  743POPS   C4B10060   4.492   3.287   7.342 -0.0074 -0.0805 -0.1291
  744POPS   CNO10061  12.903  14.905   5.135 -0.1794  0.0049 -0.3101
  744POPS   PO410062  12.638  14.719   5.447  0.0174  0.0221  0.1112
  744POPS   GL110063  12.613  14.627   5.876 -0.0918  0.0880 -0.0118
  744POPS   GL210064  12.653  14.322   5.935 -0.2135 -0.0301 -0.3230
  744POPS   C1A10065  12.781  14.735   6.310 -0.0375 -0.1292 -0.1374
  744POPS   D2A10066  12.937  14.904   6.697  0.2043  0.3638  0.1859
  744POPS   C3A10067  13.318  14.789   6.918 -0.2687  0.0886  0.4622
  744POPS   C4A10068  13.647  14.560   7.131  0.0864 -0.3249 -0.3751
  744POPS   C1B10069  12.742  14.159   6.413  0.2182  0.0976 -0.2226
  744POPS   C2B10070  12.701  14.037   6.813  0.0002  0.1601 -0.1033
  744POPS   C3B10071  12.310  14.164   7.050  0.0805  0.1934  0.1064
  744POPS   C4B10072  12.086  13.964   7.357 -0.0490 -0.4661 -0.3959
  745POPS   CNO10073   1.610  11.037   6.049 -0.0272  0.1251 -0.1252
  745POPS   PO410074   1.835  10.946   6.435  0.2591  0.3849  0.0713
  745POPS   GL110075   1.883  10.565   6.733 -0.0709 -0.1943 -0.0530
  745POPS   GL210076   1.558  10.440   6.795  0.0925  0.2958 -0.1758
  745POPS   C1A10077   2.006  10.287   7.049 -0.1719  0.0675 -0.0876
  745POPS   D2A10078   1.960  10.344   7.489  0.0355 -0.0773  0.0273
  745POPS   C3A10079   1.928  10.349   7.861 -0.0283 -0.1970  0.0246
  745POPS   C4A10080   1.929  10.207   8.294 -0.0796 -0.2200 -0.0940
  745POPS   C1B10081   1.463  10.468   7.312 -0.0531 -0.0216 -0.0161
  745POPS   C2B10082   1.334  10.475   7.736 -0.0158  0.2623  0.2076
  745POPS   C3B10083   1.540  10.517   8.124 -0.0363  0.1821 -0.1549
  745POPS   C4B10084   1.837  10.745   8.342  0.3424  0.2168 -0.0445
  746POPS   CNO10085   1.201   3.854   6.079  0.2311  0.1631 -0.1518
  746POPS   PO410086   0.827   3.795   5.690  0.0857 -0.0540 -0.0618
  746POPS   GL110087   0.750   3.638   5.979 -0.0506 -0.1605 -0.0173
  746POPS   GL210088   0.795   3.277   5.965 -0.3104 -0.0030  0.0796
  746POPS   C1A10089   0.435   3.547   6.298  0.0851 -0.2770  0.1246
  746POPS   D2A10090   0.194   3.376   6.574  0.0656 -0.0525 -0.2769
  746POPS   C3A10091   0.222   3.469   6.946 -0.0834 -0.0424 -0.0924
  746POPS   C4A10092   0.148   3.410   7.306 -0.2635 -0.3945 -0.0651
  746POPS   C1B10093   0.932   3.481   6.391  0.0964  0.0537  0.2479
  746POPS   C2B10094   0.758   3.372   6.763  0.1649  0.1992  0.3992
  746POPS   C3B10095   0.604   3.234   7.182 -0.0092  0.3980 -0.0099
  746POPS   C4B10096   0.866   3.201   7.609 -0.0242  0.0864  0.0748
  747POPS   CNO10097  12.111   4.488   5.075  0.1398  0.2753 -0.2154
  747POPS   PO410098  12.376   4.463   5.457  0.0277 -0.2532  0.1366
  747POPS   GL110099  12.216   4.277   5.814 -0.2656  0.6716 -0.3249
  747POPS   GL210100  12.084   4.417   5.943 -0.0522  0.0333  0.3773
  747POPS   C1A10101  12.470   4.134   6.150  0.0531 -0.0179  0.1588
  747POPS   D2A10102  12.883   4.194   6.400 -0.0577 -0.1563 -0.2133
  747POPS   C3A10103  12.883   4.286   6.785  0.1124  0.0265 -0.0955
  747POPS   C4A10104  12.622   4.045   7.139  0.3860 -0.1165 -0.0977
  747POPS   C1B10105  12.277   4.571   6.288 -0.3427 -0.2372 -0.1330
  747POPS   C2B10106  12.473   4.504   6.557 -0.3745  0.2261  0.0424
  747POPS   C3B10107  12.426   4.614   6.916 -0.3619  0.2405 -0.2519
  747POPS   C4B10108  12.570   4.486   7.324 -0.0405 -0.1113 -0.1624
  748POPS   CNO10109  11.463  18.443   5.438 -0.0351  0.1368 -0.0077
  748POPS   PO410110  11.087  18.500   5.280  0.2450 -0.2648  0.1654
  748POPS   GL110111  11.039  18.450   5.701  0.1520  0.0479  0.1484
  748POPS   GL210112  11.369  18.665   5.879  0.1396 -0.0425  0.1562
  748POPS   C1A10113  11.049  18.080   6.076  0.4238 -0.1981  0.1513
  748POPS   D2A10114  11.047  17.999   6.511  0.1292 -0.1817 -0.0011
  748POPS   C3A10115  10.985  18.274   6.761  0.3072  0.0244 -0.4206
  748POPS   C4A10116  11.040  18.297   7.261  0.0438 -0.1215  0.1004
  748POPS   C1B10117  11.197  18.830   6.224  0.0720 -0.0919 -0.0458
  748POPS   C2B10118  11.030  18.771   6.621  0.0906  0.1739  0.1345
  748POPS   C3B10119  10.899  18.783   6.963 -0.0222  0.4449  0.0784
  748POPS   C4B10120  10.964  18.796   7.452 -0.0620  0.0137  0.1986
  749POPS   CNO10121  12.978  12.234   5.363 -0.0766  0.3070 -0.0931
  749POPS   PO410122  13.455  12.294   5.499  0.1688  0.1190 -0.0803
  749POPS   GL110123  13.576  12.370   5.886  0.0516 -0.0702  0.3266
  749POPS   GL210124  13.770  12.656   5.846 -0.1039 -0.1698 -0.4032
  749POPS   C1A10125  13.328  12.591   6.323 -0.1138 -0.3445  0.0295
  749POPS   D2A10126  13.258  12.879   6.620 -0.2803 -0.2218 -0.1247
  749POPS   C3A10127  12.911  13.176   6.632  0.0180 -0.2588  0.1358
  749POPS   C4A10128  12.488  13.288   6.694  0.6093 -0.0832  0.0972
  749POPS   C1B10129  13.887  12.407   6.259  0.0954  0.0555  0.0466
  749POPS   C2B10130  14.117  12.436   6.582  0.1181 -0.1101  0.1586
  749POPS   C3B10131  14.115  12.514   7.071  0.2828  0.1480  0.0774
  749POPS   C4B10132  13.889  12.508   7.431  0.0525  0.2103  0.1599
  750POPS   CNO10133  10.002   5.782   5.781 -0.2589 -0.2317 -0.0488
  750POPS   PO410134   9.685   5.376   5.633 -0.1095 -0.0813 -0.2662
  750POPS   GL110135   9.744   5.513   6.097  0.0680 -0.2022 -0.0993
  750POPS   GL210136   9.550   5.760   6.149  0.0372 -0.2484  0.0694
  750POPS   C1A10137  10.026   5.737   6.386 -0.1246 -0.3740 -0.0771
  750POPS   D2A10138  10.307   5.970   6.612  0.1555  0.0227 -0.1230
  750POPS   C3A10139  10.348   5.996   7.126  0.2915  0.0359 -0.1104
  750POPS   C4A10140  10.571   5.990   7.482  0.0782 -0.1782  0.1506
  750POPS   C1B10141   9.615   5.644   6.604  0.0558  0.0946 -0.1981
  750POPS   C2B10142   9.647   5.519   6.985  0.0873  0.0111 -0.1920
  750POPS   C3B10143   9.900   5.678   7.302 -0.1042  0.1215 -0.0803
  750POPS   C4B10144  10.080   5.470   7.724  0.5951  0.1611 -0.4001
  751POPS   CNO10145   6.309  18.117   5.540  0.4087  0.0024 -0.0115
  751POPS   PO410146   6.779  18.107   5.430 -0.2583 -0.0259 -0.1008
  751POPS   GL110147   6.944  18.193   5.850 -0.0999  0.3946  0.0998
  751POPS   GL210148   7.199  18.213   5.882 -0.0137  0.3790  0.1179
  751POPS   C1A10149   6.888  18.134   6.269  0.2741  0.0917 -0.1362
  751POPS   D2A10150   6.837  18.132   6.706  0.2819 -0.1114 -0.1086
  751POPS   C3A10151   7.036  17.937   7.055 -0.0048  0.3209 -0.1154
  751POPS   C4A10152   6.887  17.721   7.451 -0.4890 -0.0282  0.0465
  751POPS   C1B10153   7.529  18.020   6.165 -0.0005  0.0777  0.0092
  751POPS   C2B10154   7.659  17.966   6.533 -0.0203  0.2095  0.0448
  751POPS   C3B10155   8.064  17.887   6.786  0.0983  0.1979  0.2387
  751POPS   C4B10156   8.096  17.937   7.122 -0.3449  0.1086  0.0563
  752POPS   CNO10157  12.330  10.387   5.695  0.1784  0.1439 -0.1340
  752POPS   PO410158  12.414  10.801   5.701  0.0481  0.1017 -0.4076
  752POPS   GL110159  12.548  10.673   6.194  0.1345  0.1087 -0.0824
  752POPS   GL210160  12.587  10.271   6.192 -0.0989 -0.1617 -0.1236
  752POPS   C1A10161  12.880  10.823   6.516 -0.4691  0.0727 -0.3594
  752POPS   D2A10162  12.860  10.811   7.000  0.0404 -0.0760 -0.0950
  752POPS   C3A10163  12.962  10.848   7.364 -0.0375  0.3255  0.1333
  752POPS   C4A10164  13.255  10.988   7.614  0.2480 -0.1655 -0.2032
  752POPS   C1B10165  12.617  10.303   6.642  0.0251 -0.0709 -0.0173
  752POPS   C2B10166  12.623  10.343   7.109 -0.3352 -0.3684  0.1486
  752POPS   C3B10167  12.631  10.435   7.493 -0.0088 -0.1937  0.2958
  752POPS   C4B10168  12.817  10.158   7.728 -0.0824  0.0261 -0.0267
  753POPS   CNO10169  14.020   1.931   5.451  0.2363 -0.0783 -0.3753
  753POPS   PO410170  14.122   2.257   5.805 -0.1269 -0.1491  0.3208
  753POPS   GL110171  14.489   2.154   6.116  0.0910 -0.1267  0.0175
  753POPS   GL210172  14.746   2.396   6.081 -0.0473 -0.4571  0.1804
  753POPS   C1A10173  14.793   1.983   6.518  0.2616 -0.1902  0.1829
  753POPS   D2A10174  14.736   1.951   6.878  0.2826  0.1022  0.1145
  753POPS   C3A10175  14.582   2.119   7.396 -0.0117  0.0977  0.1525
  753POPS   C4A10176  14.625   1.912   7.810 -0.1578 -0.0731  0.0111
  753POPS   C1B10177  14.690   2.468   6.479 -0.1579 -0.0501 -0.2645
  753POPS   C2B10178  14.522   2.370   6.822 -0.0223  0.1859 -0.0286
  753POPS   C3B10179  14.397   2.621   7.201  0.1924  0.0569 -0.0146
  753POPS   C4B10180  14.347   2.917   7.500  0.1699  0.1896 -0.0629
  754POPS   CNO10181   2.209  17.947   5.569 -0.1537 -0.0353  0.0214
  754POPS   PO410182   2.408  17.744   5.756 -0.0711 -0.0859 -0.0368
  754POPS   GL110183   2.516  17.893   6.163  0.1819 -0.1945 -0.0472
  754POPS   GL210184   2.435  17.587   6.339  0.2392  0.0638  0.0662
  754POPS   C1A10185   2.152  18.035   6.430  0.0384  0.0948 -0.2018
  754POPS   D2A10186   1.923  18.031   6.813 -0.0394  0.2266  0.1788
  754POPS   C3A10187   1.530  18.150   6.704 -0.0754  0.3754  0.0284
  754POPS   C4A10188   1.250  18.538   6.897 -0.0136  0.2348 -0.0501
  754POPS   C1B10189   2.448  17.695   6.720 -0.1317  0.2827 -0.1060
  754POPS   C2B10190   2.459  17.588   7.037  0.0227 -0.0984 -0.0726
  754POPS   C3B10191   2.518  17.565   7.439  0.1666  0.3036  0.0099
  754POPS   C4B10192   2.555  17.474   7.896 -0.4522 -0.5443  0.1521
  755POPS   CNO10193   9.305  10.462   5.435  0.0011 -0.0207  0.1347
  755POPS   PO410194   9.688  10.613   5.552  0.2154  0.0753  0.0761
  755POPS   GL110195   9.539  10.533   5.946 -0.1116  0.0552  0.0025
  755POPS   GL210196   9.486  10.776   6.186  0.0971 -0.1131  0.1881
  755POPS   C1A10197   9.578  10.269   6.287  0.3617 -0.1036 -0.0319
  755POPS   D2A10198   9.870  10.315   6.546 -0.1960 -0.2089 -0.1930
  755POPS   C3A10199   9.937  10.203   7.031 -0.0329  0.1709 -0.0403
  755POPS   C4A10200   9.868  10.424   7.336 -0.0246 -0.1849  0.1452
  755POPS   C1B10201   9.555  10.694   6.600 -0.1270 -0.1190  0.0738
  755POPS   C2B10202   9.531  10.504   6.953  0.0979  0.0201  0.2333
  755POPS   C3B10203   9.385  10.511   7.385  0.1596  0.0696  0.1103
  755POPS   C4B10204   9.271  10.710   7.724 -0.0249  0.1480  0.0560
  756POPS   CNO10205  10.024  17.641   5.022 -0.2586 -0.4778 -0.1115
  756POPS   PO410206   9.603  17.600   5.165 -0.0663 -0.2072  0.1854
  756POPS   GL110207   9.678  17.583   5.642  0.2928 -0.2608  0.0644
  756POPS   GL210208   9.627  17.173   5.671  0.1544  0.4037 -0.0049
  756POPS   C1A10209   9.528  17.814   6.045 -0.0929 -0.1483 -0.0721
  756POPS   D2A10210   9.254  17.923   6.326  0.0025 -0.1856  0.2471
  756POPS   C3A10211   9.219  17.743   6.683 -0.1057 -0.1363 -0.0717
  756POPS   C4A10212   9.336  17.646   7.025  0.1297  0.0127  0.1496
  756POPS   C1B10213   9.558  17.326   6.187  0.1024  0.1215  0.2848
  756POPS   C2B10214   9.662  17.607   6.504  0.1252  0.2627 -0.0674
  756POPS   C3B10215   9.819  17.705   6.860  0.0917  0.0949 -0.2001
  756POPS   C4B10216   9.727  17.974   7.192 -0.1488  0.2412  0.2715
  757POPS   CNO10217   0.543  15.771   5.621  0.0281  0.0046 -0.1293
  757POPS   PO410218   0.665  15.993   5.984  0.0286  0.1721 -0.1528
  757POPS   GL110219   0.870  16.021   6.363 -0.1571 -0.1312 -0.1014
  757POPS   GL210220   1.150  15.975   6.390 -0.3261  0.0045 -0.2184
  757POPS   C1A10221   0.854  16.000   6.795  0.1240  0.0589  0.0978
  757POPS   D2A10222   0.872  16.112   7.158 -0.1212  0.2885 -0.1805
  757POPS   C3A10223   0.544  16.396   7.360  0.0540 -0.0499  0.1059
  757POPS   C4A10224   0.595  16.475   7.795 -0.0160  0.1840 -0.0547
  757POPS   C1B10225   1.262  15.741   6.694 -0.0833  0.1455  0.0299
  757POPS   C2B10226   1.169  15.722   7.141  0.1083  0.1295 -0.2909
  757POPS   C3B10227   1.335  15.816   7.577  0.1083  0.0988  0.0287
  757POPS   C4B10228   1.340  15.899   7.975 -0.0584 -0.1310  0.1363
  758POPS   CNO10229   7.058   0.603   5.323 -0.0026  0.1561  0.0181
  758POPS   PO410230   6.828   0.887   5.346  0.0671 -0.3760  0.1999
  758POPS   GL110231   6.897   0.831   5.823 -0.2053 -0.1516  0.1183
  758POPS   GL210232   6.606   0.960   5.950  0.1406  0.1292 -0.1794
  758POPS   C1A10233   7.202   0.711   6.106 -0.0750  0.1072  0.2891
  758POPS   D2A10234   7.251   1.057   6.521 -0.1670 -0.0130  0.0352
  758POPS   C3A10235   7.188   1.134   6.960  0.0839  0.3324  0.2087
  758POPS   C4A10236   7.092   1.024   7.338  0.0481  0.1203  0.2672
  758POPS   C1B10237   6.757   0.805   6.371 -0.0652  0.0900 -0.1823
  758POPS   C2B10238   7.002   0.712   6.744 -0.3079 -0.1353  0.0528
  758POPS   C3B10239   7.174   0.610   7.029  0.0393  0.5117  0.0999
  758POPS   C4B10240   7.097   0.362   7.497 -0.2017 -0.1253  0.3719
  759POPS   CNO10241   8.047   9.458   5.984 -0.1615 -0.1702  0.0139
  759POPS   PO410242   7.759   9.719   5.710  0.0516 -0.0486 -0.0161
  759POPS   GL110243   7.855   9.901   6.206  0.2302  0.1128  0.0116
  759POPS   GL210244   7.727  10.252   6.195  0.0034 -0.2795 -0.3317
  759POPS   C1A10245   7.683   9.865   6.547  0.0533  0.1039 -0.0205
  759POPS   D2A10246   7.719  10.113   6.975 -0.2144 -0.0061 -0.1186
  759POPS   C3A10247   7.646   9.975   7.371 -0.1015  0.0876 -0.0296
  759POPS   C4A10248   7.483  10.020   7.809  0.1800 -0.1253 -0.3750
  759POPS   C1B10249   7.981  10.290   6.629  0.0130 -0.1776 -0.0226
  759POPS   C2B10250   8.081  10.547   6.883 -0.0884  0.1792  0.0208
  759POPS   C3B10251   7.970  10.984   6.914 -0.0024  0.2284 -0.2126
  759POPS   C4B10252   7.734  11.186   6.687  0.3737  0.0497  0.2392
  760POPS   CNO10253   3.818  14.822   5.432 -0.1890 -0.1535 -0.0864
  760POPS   PO410254   3.984  14.655   5.823  0.2667  0.1092 -0.0188
  760POPS   GL110255   4.011  15.025   6.116  0.2427 -0.0254  0.1456
  760POPS   GL210256   3.682  15.238   6.346 -0.1238  0.0538  0.2642
  760POPS   C1A10257   4.300  15.267   6.462  0.0659  0.0961 -0.0701
  760POPS   D2A10258   4.540  15.015   6.772 -0.1087  0.2238  0.1492
  760POPS   C3A10259   4.659  15.096   7.073 -0.1731  0.0730  0.0715
  760POPS   C4A10260   4.906  14.898   7.382  0.1844 -0.1357  0.1342
  760POPS   C1B10261   3.212  15.166   6.487 -0.0045  0.3667  0.0104
  760POPS   C2B10262   2.913  15.154   6.826  0.1989 -0.1279  0.2820
  760POPS   C3B10263   3.031  15.411   7.236  0.4846  0.0883  0.0701
  760POPS   C4B10264   3.020  15.673   7.661  0.1382 -0.0758 -0.1346
  761POPS   CNO10265   8.558  14.061   4.720  0.0479  0.0018 -0.4277
  761POPS   PO410266   8.371  13.922   5.165 -0.2195  0.0602 -0.1970
  761POPS   GL110267   8.552  14.026   5.524  0.3646  0.0930  0.1971
  761POPS   GL210268   8.840  14.255   5.536  0.2596 -0.0328  0.1655
  761POPS   C1A10269   8.432  14.181   5.850 -0.1540  0.2256  0.0715
  761POPS   D2A10270   8.523  14.132   6.154  0.0999  0.0528  0.2133
  761POPS   C3A10271   8.794  13.810   6.186 -0.1794  0.0806 -0.2257
  761POPS   C4A10272   8.782  13.406   6.032  0.1979 -0.3035  0.0040
  761POPS   C1B10273   8.939  14.259   5.986 -0.1498 -0.3300  0.1742
  761POPS   C2B10274   8.824  14.401   6.439  0.2870  0.1484  0.0396
  761POPS   C3B10275   8.870  14.020   6.695  0.3427  0.2004  0.2616
  761POPS   C4B10276   9.101  13.647   6.779  0.1569 -0.0287  0.0249
  762POPS   CNO10277   6.322  18.393   5.131  0.3346 -0.0844 -0.1979
  762POPS   PO410278   6.711  18.615   5.398  0.1273 -0.0547 -0.0497
  762POPS   GL110279   6.509  18.521   5.759  0.1034 -0.0538 -0.1283
  762POPS   GL210280   6.481  18.326   6.011 -0.1132 -0.3290  0.3725
  762POPS   C1A10281   6.461  18.813   6.151  0.1240 -0.2906  0.0185
  762POPS   D2A10282   6.353  18.771   6.500  0.3319  0.4936 -0.3167
  762POPS   C3A10283   6.546  19.017   6.760 -0.2506  0.0659  0.2138
  762POPS   C4A10284   6.712  18.988   7.182  0.0034 -0.0433 -0.0377
  762POPS   C1B10285   6.452  18.266   6.404  0.1559 -0.0965 -0.1889
  762POPS   C2B10286   6.510  18.534   6.892  0.1173 -0.1524 -0.1550
  762POPS   C3B10287   6.625  18.517   7.302  0.1304 -0.0865  0.1093
  762POPS   C4B10288   6.813  18.202   7.470 -0.0271 -0.1133 -0.3750
  763POPS   CNO10289   4.495  13.963   6.167  0.2082 -0.0213  0.0580
  763POPS   PO410290   4.161  13.787   5.959  0.1724  0.1748 -0.1397
  763POPS   GL110291   4.113  13.591   6.382  0.0716  0.0206 -0.4015
  763POPS   GL210292   3.878  13.519   6.571 -0.1298  0.0059 -0.0525
  763POPS   C1A10293   4.323  13.522   6.825 -0.3114  0.0045  0.0669
  763POPS   D2A10294   4.232  13.590   7.188  0.2721  0.1582 -0.0135
  763POPS   C3A10295   4.285  13.493   7.664 -0.1661  0.2224  0.0230
  763POPS   C4A10296   4.261  13.310   8.082 -0.1414  0.2125 -0.3493
  763POPS   C1B10297   3.831  13.777   6.895  0.2826  0.0808 -0.4800
  763POPS   C2B10298   3.995  14.034   7.216 -0.2985  0.2436 -0.1389
  763POPS   C3B10299   4.183  14.267   7.421  0.2031 -0.1273  0.3184
  763POPS   C4B10300   4.522  14.597   7.673 -0.0768 -0.0489  0.0097
  764POPS   CNO10301  16.376   2.410   5.613 -0.0234  0.2101 -0.3236
  764POPS   PO410302  16.564   2.594   5.972 -0.1020 -0.4151 -0.1794
  764POPS   GL110303  16.474   2.552   6.429  0.3936 -0.1325  0.0410
  764POPS   GL210304  16.168   2.561   6.487  0.0111  0.0908 -0.2147
  764POPS   C1A10305  16.388   2.883   6.759  0.1992  0.2936  0.0027
  764POPS   D2A10306  16.329   2.965   7.239 -0.3303  0.1804  0.0118
  764POPS   C3A10307  16.662   3.125   7.546  0.0030  0.0338 -0.1760
  764POPS   C4A10308  16.947   3.306   7.768 -0.0454  0.1043  0.1646
  764POPS   C1B10309  15.993   2.591   6.844  0.0963  0.1423 -0.2435
  764POPS   C2B10310  15.838   2.708   7.266  0.1197  0.1471 -0.1030
  764POPS   C3B10311  16.037   2.933   7.684  0.0667  0.0237  0.3072
  764POPS   C4B10312  16.282   3.190   7.897 -0.0628 -0.0665  0.0035
  765POPS   CNO10313  18.423  18.048   6.001  0.0167  0.2181  0.2506
  765POPS   PO410314  18.195  17.784   5.878 -0.3008 -0.1862 -0.1344
  765POPS   GL110315  18.125  17.532   6.307  0.1200  0.5232 -0.0333
  765POPS   GL210316  18.401  17.669   6.369  0.3704  0.2121 -0.2476
  765POPS   C1A10317  18.086  17.337   6.646  0.1857  0.0316  0.0195
  765POPS   D2A10318  17.844  17.430   6.995 -0.2436  0.0293  0.0636
  765POPS   C3A10319  17.923  17.527   7.412  0.1954 -0.2208  0.0830
  765POPS   C4A10320  18.038  17.746   7.799 -0.1856  0.0624 -0.0189
  765POPS   C1B10321  18.400  17.710   6.801  0.0725  0.0254 -0.0567
  765POPS   C2B10322  18.335  17.776   7.215  0.1573  0.0749 -0.1753
  765POPS   C3B10323  18.527  17.783   7.681  0.1777  0.0126 -0.1630
  765POPS   C4B10324  18.386  18.147   7.846 -0.1033 -0.0625 -0.3600
  766POPS   CNO10325  17.540   1.238   6.143 -0.0215  0.2221  0.1994
  766POPS   PO410326  17.177   1.393   5.925 -0.0452 -0.2221  0.1028
  766POPS   GL110327  17.089   1.396   6.358  0.0924 -0.2312 -0.2671
  766POPS   GL210328  17.153   0.998   6.387 -0.1154 -0.2444  0.1057
  766POPS   C1A10329  17.125   1.525   6.807  0.1541  0.1185  0.1182
  766POPS   D2A10330  17.084   1.661   7.218  0.3803 -0.1243  0.5268
  766POPS   C3A10331  17.053   1.678   7.621  0.3318 -0.2408 -0.1783
  766POPS   C4A10332  16.763   1.819   7.969  0.3162  0.1431  0.0583
  766POPS   C1B10333  17.283   1.045   6.791  0.2600  0.0034  0.2722
  766POPS   C2B10334  17.274   0.966   7.168 -0.2107 -0.0062  0.1377
  766POPS   C3B10335  17.266   0.926   7.628 -0.0030  0.4087  0.1219
  766POPS   C4B10336  17.154   0.832   8.015  0.1202  0.0300 -0.1927
  767POPS   CNO10337  13.193  13.366   6.111  0.0774  0.2323  0.0009
  767POPS   PO410338  13.403  13.044   5.820 -0.0081 -0.0366  0.0780
  767POPS   GL110339  13.679  13.072   6.166  0.0839  0.0528  0.1412
  767POPS   GL210340  13.588  13.263   6.373  0.0342  0.2303 -0.2141
  767POPS   C1A10341  13.878  12.870   6.452 -0.1669 -0.2887  0.0625
  767POPS   D2A10342  13.691  12.695   6.827 -0.0805  0.5239 -0.0882
  767POPS   C3A10343  13.429  12.701   7.140 -0.1889  0.2684  0.1877
  767POPS   C4A10344  13.066  12.760   7.389 -0.0170 -0.0496  0.3398
  767POPS   C1B10345  13.655  13.205   6.753  0.2576  0.3447 -0.0711
  767POPS   C2B10346  13.772  13.168   7.234 -0.0314  0.1012  0.0007
  767POPS   C3B10347  14.004  13.082   7.649 -0.0577 -0.3204 -0.1634
  767POPS   C4B10348  14.440  12.975   7.779  0.0226 -0.1870 -0.0009
  768POPS   CNO10349  10.891   4.146   5.394 -0.0520 -0.1000  0.1518
  768POPS   PO410350  11.065   4.430   5.707  0.1062 -0.2442 -0.2780
  768POPS   GL110351  10.824   4.142   6.000  0.1665 -0.1448  0.1035
  768POPS   GL210352  10.526   3.971   6.020  0.1615  0.0689  0.3569
  768POPS   C1A10353  10.678   4.219   6.483 -0.0925  0.1679 -0.1227
  768POPS   D2A10354  10.767   4.212   6.969 -0.1713  0.2796 -0.1068
  768POPS   C3A10355  10.787   3.774   7.201 -0.1921  0.2177 -0.1132
  768POPS   C4A10356  10.691   3.618   7.692 -0.0404 -0.2085 -0.0630
  768POPS   C1B10357  10.403   3.774   6.410 -0.0171 -0.2530 -0.1813
  768POPS   C2B10358  10.631   3.654   6.725 -0.2367  0.2990 -0.1294
  768POPS   C3B10359  10.374   3.395   7.050  0.2073 -0.1249 -0.0408
  768POPS   C4B10360  10.236   3.354   7.514  0.2547 -0.3653  0.0859
  769POPS   CNO10361   0.060   1.911   5.426  0.1098 -0.0939  0.2307
  769POPS   PO410362  -0.026   2.113   5.757 -0.2349  0.1579 -0.2105
  769POPS   GL110363   0.237   2.211   6.068  0.1377 -0.0995 -0.3262
  769POPS   GL210364   0.052   2.123   6.268 -0.1268  0.1372 -0.1686
  769POPS   C1A10365   0.242   2.613   6.289  0.1192 -0.2795 -0.0732
  769POPS   D2A10366   0.398   3.004   6.133 -0.3089 -0.2332  0.1890
  769POPS   C3A10367  -0.032   3.152   6.140  0.0287  0.3807 -0.0574
  769POPS   C4A10368  -0.121   3.611   6.232 -0.0129 -0.0818 -0.2260
  769POPS   C1B10369  -0.017   2.274   6.565  0.4176 -0.2629 -0.1731
  769POPS   C2B10370   0.414   2.474   6.768  0.0327 -0.0252  0.1173
  769POPS   C3B10371   0.741   2.371   7.068  0.1038 -0.1961  0.2285
  769POPS   C4B10372   0.827   2.274   7.457  0.1701  0.0375 -0.1552
  770POPS   CNO10373   0.393   5.306   5.410 -0.0917 -0.1272 -0.0404
  770POPS   PO410374   0.530   5.312   5.782  0.1803 -0.1105 -0.0593
  770POPS   GL110375   0.402   5.266   6.202 -0.0410 -0.1276  0.0877
  770POPS   GL210376   0.325   5.528   6.342  0.0188  0.3188 -0.1328
  770POPS   C1A10377   0.512   5.016   6.452 -0.2215 -0.0901  0.2180
  770POPS   D2A10378   0.678   4.793   6.776  0.0631 -0.0554  0.4291
  770POPS   C3A10379   0.503   4.673   7.184  0.2141 -0.0605 -0.2804
  770POPS   C4A10380   0.356   4.581   7.607 -0.0186 -0.3204  0.0794
  770POPS   C1B10381   0.311   5.528   6.798 -0.1893 -0.1546 -0.4471
  770POPS   C2B10382   0.256   5.510   7.168  0.1340 -0.1701  0.0342
  770POPS   C3B10383   0.089   5.594   7.514  0.0561  0.3241  0.0196
  770POPS   C4B10384  -0.148   5.810   7.846 -0.1153 -0.0099 -0.0841
  771POPS   CNO10385  11.348   7.857   5.655 -0.2146  0.2512 -0.0376
  771POPS   PO410386  10.999   7.741   5.746 -0.2130  0.2378 -0.2208
  771POPS   GL110387  10.874   8.051   6.053 -0.0567 -0.1124 -0.5334
  771POPS   GL210388  10.902   7.894   6.321 -0.1254 -0.0052 -0.0463
  771POPS   C1A10389  10.659   8.386   6.409 -0.0141  0.2502  0.1090
  771POPS   D2A10390  10.684   8.703   6.585 -0.0378 -0.3813  0.0361
  771POPS   C3A10391  10.733   8.601   7.092 -0.4205 -0.1062 -0.1991
  771POPS   C4A10392  10.767   8.636   7.570  0.0817  0.0164 -0.0366
  771POPS   C1B10393  10.944   7.858   6.753 -0.2325 -0.0523  0.0011
  771POPS   C2B10394  11.071   7.793   7.127 -0.2412  0.0367  0.1907
  771POPS   C3B10395  11.138   7.845   7.556  0.1388 -0.1514  0.0952
  771POPS   C4B10396  11.149   8.171   7.825  0.2989  0.0095  0.0553
  772POPS   CNO10397   1.175   2.495   5.932 -0.4960  0.0623 -0.0269
  772POPS   PO410398   0.802   2.598   5.714  0.1081 -0.0866  0.0565
  772POPS   GL110399   0.871   2.864   6.137  0.1392  0.0452 -0.0369
  772POPS   GL210400   1.200   2.869   6.331 -0.2088  0.0338 -0.1843
  772POPS   C1A10401   0.591   2.961   6.555  0.3283  0.3697  0.3174
  772POPS   D2A10402   0.318   3.005   6.868  0.1298 -0.1263  0.1492
  772POPS   C3A10403   0.412   2.754   7.205  0.0457  0.2522  0.0374
  772POPS   C4A10404   0.319   2.331   7.351  0.1097 -0.0485 -0.1750
  772POPS   C1B10405   1.320   2.797   6.588  0.3319 -0.0816 -0.0104
  772POPS   C2B10406   1.523   2.944   7.009  0.2167  0.2789  0.4724
  772POPS   C3B10407   1.723   2.975   7.407 -0.1357  0.3043  0.5800
  772POPS   C4B10408   2.032   3.193   7.664  0.0750 -0.0686  0.1753
  773POPS   CNO10409   6.137   3.616   5.718  0.1217 -0.0323  0.2247
  773POPS   PO410410   6.147   3.726   6.065 -0.0961  0.2396 -0.2163
  773POPS   GL110411   6.125   3.730   6.437  0.0465 -0.0372 -0.0751
  773POPS   GL210412   6.367   3.440   6.551  0.1157 -0.2953 -0.1330
  773POPS   C1A10413   5.983   3.691   6.858  0.1844 -0.0628 -0.0476
  773POPS   D2A10414   5.950   3.567   7.311  0.1405 -0.0374 -0.6357
  773POPS   C3A10415   6.127   3.783   7.652 -0.3376 -0.2846  0.2188
  773POPS   C4A10416   6.385   4.181   7.787 -0.0282 -0.0844 -0.0963
  773POPS   C1B10417   6.346   3.342   6.978 -0.0530  0.1313 -0.2801
  773POPS   C2B10418   6.187   3.070   7.211 -0.0608 -0.1184 -0.5090
  773POPS   C3B10419   5.993   2.942   7.518 -0.1189  0.1254 -0.1251
  773POPS   C4B10420   5.956   2.597   7.675 -0.1358 -0.1337 -0.1270
  774POPS   CNO10421  12.412   8.436   4.897  0.1991 -0.1069  0.2500
  774POPS   PO410422  12.280   8.350   5.331  0.0981  0.2391  0.1405
  774POPS   GL110423  12.541   8.593   5.721  0.2474 -0.0340  0.4636
  774POPS   GL210424  12.331   8.787   5.991 -0.0510 -0.0834  0.2631
  774POPS   C1A10425  12.758   8.712   6.189 -0.4025 -0.4250 -0.1985
  774POPS   D2A10426  13.021   8.775   6.465 -0.0468 -0.0029  0.0864
  774POPS   C3A10427  12.870   8.908   6.863 -0.2115  0.1581  0.2304
  774POPS   C4A10428  12.904   8.914   7.257 -0.3357  0.1623 -0.1747
  774POPS   C1B10429  12.404   9.056   6.227  0.0223  0.4137  0.1491
  774POPS   C2B10430  12.380   8.879   6.595 -0.1116 -0.4182  0.0055
  774POPS   C3B10431  12.178   8.593   6.791 -0.1916 -0.1373 -0.0607
  774POPS   C4B10432  11.819   8.406   7.056  0.0025  0.4437 -0.1443
  775POPS   CNO10433   9.791   6.691   6.036 -0.0259  0.0232  0.1966
  775POPS   PO410434   9.898   6.897   5.705  0.0271 -0.1877  0.1000
  775POPS   GL110435  10.300   6.722   5.982 -0.0570  0.0332 -0.1580
  775POPS   GL210436  10.529   6.792   6.144 -0.2266  0.1234 -0.3857
  775POPS   C1A10437  10.172   6.519   6.342 -0.0309 -0.0354 -0.2964
  775POPS   D2A10438  10.227   6.400   6.791 -0.0443 -0.1061 -0.1951
  775POPS   C3A10439  10.355   6.550   7.155  0.1097 -0.2765  0.1942
  775POPS   C4A10440  10.464   6.505   7.578  0.0318 -0.0480  0.0115
  775POPS   C1B10441  10.754   6.777   6.535 -0.4191 -0.1776 -0.0569
  775POPS   C2B10442  10.776   6.816   6.930 -0.1037  0.1921 -0.0030
  775POPS   C3B10443  10.721   6.888   7.313  0.2800  0.0882  0.0623
  775POPS   C4B10444  10.725   7.193   7.619 -0.0826  0.0947 -0.2478
  776POPS   CNO10445   1.777   2.240   5.356  0.0978 -0.1739  0.1034
  776POPS   PO410446   2.079   2.268   5.571 -0.0138  0.0638  0.1940
  776POPS   GL110447   2.016   2.353   6.005 -0.3695  0.3781  0.1029
  776POPS   GL210448   2.391   2.238   6.221 -0.1369 -0.1488  0.0901
  776POPS   C1A10449   2.152   2.614   6.364  0.2103  0.1648  0.0328
  776POPS   D2A10450   2.474   2.653   6.574  0.2304 -0.0732  0.1143
  776POPS   C3A10451   2.770   2.344   6.721  0.1079 -0.1501 -0.0867
  776POPS   C4A10452   3.051   1.977   6.624 -0.0246  0.0419 -0.0222
  776POPS   C1B10453   2.506   1.813   6.359 -0.0027 -0.3336 -0.2895
  776POPS   C2B10454   2.466   1.766   6.743  0.2358 -0.0772 -0.2668
  776POPS   C3B10455   2.489   1.739   7.218 -0.1162 -0.0742 -0.3098
  776POPS   C4B10456   2.767   1.932   7.489  0.3168 -0.3201 -0.0762
  777POPS   CNO10457   6.028   6.251   5.838 -0.2287  0.0489  0.1531
  777POPS   PO410458   6.434   6.186   5.924 -0.0493  0.1684  0.0541
  777POPS   GL110459   6.682   6.166   6.423 -0.0263  0.1834 -0.0812
  777POPS   GL210460   6.529   5.868   6.396  0.1088  0.0734  0.2206
  777POPS   C1A10461   6.761   6.283   6.843  0.1024  0.0834 -0.2664
  777POPS   D2A10462   6.758   6.354   7.245  0.1441  0.2909  0.4443
  777POPS   C3A10463   6.661   6.216   7.626 -0.3840 -0.1364  0.0090
  777POPS   C4A10464   6.640   5.766   7.514  0.2961 -0.2841  0.1251
  777POPS   C1B10465   6.535   5.786   6.780  0.3136 -0.3511  0.0294
  777POPS   C2B10466   6.430   5.961   7.132  0.1735  0.2426  0.0298
  777POPS   C3B10467   6.230   6.277   7.448  0.1818  0.1387  0.1983
  777POPS   C4B10468   6.296   6.477   7.799 -0.0635  0.2472  0.0724
  778POPS   CNO10469   4.216  17.272   5.188  0.1079 -0.0187 -0.2211
  778POPS   PO410470   3.995  17.157   5.515  0.1065 -0.2064  0.1429
  778POPS   GL110471   4.223  16.939   5.827  0.1535  0.1716  0.4230
  778POPS   GL210472   4.188  17.097   6.137  0.3525  0.0154 -0.4843
  778POPS   C1A10473   4.122  16.581   5.991  0.2550 -0.0448  0.0103
  778POPS   D2A10474   3.942  16.241   6.114 -0.0378  0.1065  0.2323
  778POPS   C3A10475   3.599  16.300   6.561 -0.1441 -0.0061 -0.0944
  778POPS   C4A10476   3.431  16.036   6.839  0.0155 -0.3718 -0.1839
  778POPS   C1B10477   4.100  17.388   6.298  0.1527 -0.3116  0.2045
  778POPS   C2B10478   4.141  17.555   6.716  0.0676  0.1194  0.1579
  778POPS   C3B10479   4.222  17.852   7.049 -0.0736  0.0815 -0.0207
  778POPS   C4B10480   4.417  17.903   7.383 -0.2078 -0.0339 -0.2151
  779POPS   CNO10481  11.469   7.207   5.347  0.1892 -0.1790 -0.1844
  779POPS   PO410482  11.361   7.364   5.720  0.0150  0.3425 -0.2249
  779POPS   GL110483  11.337   7.571   6.160  0.0278  0.0715  0.1216
  779POPS   GL210484  11.623   7.395   6.203  0.4430  0.1202  0.0757
  779POPS   C1A10485  11.395   7.762   6.569  0.0751  0.1771 -0.1832
  779POPS   D2A10486  11.651   7.839   6.834 -0.3506 -0.2331  0.2141
  779POPS   C3A10487  11.530   7.980   7.227  0.1962  0.1056 -0.0545
  779POPS   C4A10488  11.596   8.209   7.563  0.1045 -0.1611 -0.2452
  779POPS   C1B10489  11.716   7.287   6.525  0.0682 -0.1046  0.1356
  779POPS   C2B10490  11.618   7.356   6.989 -0.1199  0.0214  0.0619
  779POPS   C3B10491  11.340   7.431   7.360  0.0319 -0.0005  0.3430
  779POPS   C4B10492  11.135   7.452   7.791 -0.2513  0.2133 -0.2021
  780POPS   CNO10493   3.642   1.737   5.804  0.1267 -0.0695  0.1611
  780POPS   PO410494   3.998   1.356   5.779  0.0224 -0.0917  0.2189
  780POPS   GL110495   3.899   1.422   6.206  0.0422 -0.3052 -0.2142
  780POPS   GL210496   3.960   1.669   6.507  0.0146  0.2244  0.0802
  780POPS   C1A10497   3.909   1.182   6.562  0.0719 -0.1055  0.1819
  780POPS   D2A10498   4.198   0.825   6.707  0.2201 -0.0713 -0.0546
  780POPS   C3A10499   4.229   0.794   7.188  0.1904  0.0461  0.1311
  780POPS   C4A10500   3.955   0.845   7.551 -0.1857 -0.1848  0.1793
  780POPS   C1B10501   3.987   1.933   6.813 -0.0268 -0.0010  0.0320
  780POPS   C2B10502   3.941   2.017   7.305  0.1305 -0.2817 -0.0851
  780POPS   C3B10503   3.837   2.226   7.769  0.3468 -0.0367  0.0123
  780POPS   C4B10504   3.672   2.668   7.882  0.1095 -0.3105  0.1078
  781POPS   CNO10505  17.593   0.039   5.692  0.0463  0.2813  0.1659
  781POPS   PO410506  17.568   0.384   5.938  0.0003 -0.0344  0.0345
  781POPS   GL110507  17.581   0.463   6.294 -0.2216  0.0732  0.3107
  781POPS   GL210508  17.304   0.558   6.437  0.0403 -0.1947 -0.3465
  781POPS   C1A10509  17.834   0.423   6.692  0.0336 -0.0060 -0.2194
  781POPS   D2A10510  17.971   0.465   7.145 -0.0941  0.1774 -0.0325
  781POPS   C3A10511  18.238   0.250   7.345 -0.1036 -0.0665  0.0428
  781POPS   C4A10512  18.561   0.042   7.436  0.3840  0.1919 -0.0312
  781POPS   C1B10513  17.398   0.566   6.956  0.0050  0.1716  0.0331
  781POPS   C2B10514  17.543   0.536   7.411  0.0996 -0.0425 -0.5111
  781POPS   C3B10515  17.420   0.423   7.813 -0.3578 -0.0107  0.1880
  781POPS   C4B10516  17.298   0.167   8.181 -0.1700 -0.0792  0.1512
  782POPS   CNO10517   9.330  15.900   5.322 -0.0115 -0.1573  0.0310
  782POPS   PO410518   9.805  15.740   5.207 -0.1545  0.1150  0.2622
  782POPS   GL110519   9.667  15.435   5.564 -0.1300 -0.1872  0.1881
  782POPS   GL210520   9.362  15.455   5.571 -0.0083 -0.0084 -0.0175
  782POPS   C1A10521   9.530  15.032   5.748 -0.1971  0.2681 -0.2704
  782POPS   D2A10522   9.894  14.746   6.079 -0.1479 -0.1147 -0.0901
  782POPS   C3A10523  10.044  14.892   6.493  0.1195  0.1760  0.0640
  782POPS   C4A10524  10.073  14.762   6.829 -0.3403 -0.4170  0.0646
  782POPS   C1B10525   9.512  15.537   5.974 -0.1122 -0.1734 -0.0086
  782POPS   C2B10526   9.731  15.316   6.210  0.0980  0.0780 -0.1656
  782POPS   C3B10527  10.119  15.361   6.330  0.2842 -0.2933 -0.1643
  782POPS   C4B10528  10.431  15.592   6.269 -0.0660  0.0182 -0.0774
  783POPS   CNO10529  17.706  10.368   5.818  0.5788 -0.0813 -0.2908
  783POPS   PO410530  17.602  10.243   6.188 -0.0766  0.0951 -0.1239
  783POPS   GL110531  17.672  10.107   6.525  0.0033 -0.3549  0.0552
  783POPS   GL210532  18.078  10.040   6.581 -0.3624  0.0875  0.1041
  783POPS   C1A10533  17.682  10.019   6.991 -0.3066  0.0653  0.0904
  783POPS   D2A10534  17.532  10.052   7.498 -0.1005  0.0090 -0.1585
  783POPS   C3A10535  17.261   9.819   7.716  0.0055  0.1519 -0.1578
  783POPS   C4A10536  16.838   9.721   8.049 -0.1864 -0.0582 -0.0304
  783POPS   C1B10537  17.829  10.484   6.796  0.3899  0.0296  0.0738
  783POPS   C2B10538  17.404  10.522   6.949  0.1439  0.3546  0.0342
  783POPS   C3B10539  17.257  10.624   7.330 -0.1689  0.3166  0.3536
  783POPS   C4B10540  17.376  10.595   7.764 -0.0316  0.0551  0.0254
  784POPS   CNO10541   3.659   4.753   6.197  0.0240 -0.0861  0.1652
  784POPS   PO410542   3.841   5.085   5.886 -0.0263 -0.1949 -0.1631
  784POPS   GL110543   3.802   5.304   6.227 -0.0393 -0.0690 -0.2275
  784POPS   GL210544   3.997   5.504   6.363 -0.2611 -0.1002  0.1319
  784POPS   C1A10545   3.614   5.190   6.542  0.0194  0.0407  0.1840
  784POPS   D2A10546   3.495   5.314   6.993  0.2738 -0.1090 -0.0424
  784POPS   C3A10547   3.598   5.248   7.463 -0.0511  0.0134  0.1858
  784POPS   C4A10548   3.935   4.977   7.690  0.3085  0.3025  0.4757
  784POPS   C1B10549   3.764   5.625   6.712 -0.0870 -0.1687  0.1981
  784POPS   C2B10550   3.779   5.698   7.150 -0.0148 -0.2704 -0.0306
  784POPS   C3B10551   3.534   5.753   7.428  0.1303  0.0378 -0.2883
  784POPS   C4B10552   3.340   6.144   7.717  0.1958 -0.1501 -0.3512
  785POPS   CNO10553   2.617  10.450   5.869 -0.0314  0.0923 -0.0539
  785POPS   PO410554   2.482  10.108   5.607  0.0946  0.1539  0.0302
  785POPS   GL110555   2.463   9.905   6.000 -0.0600 -0.2996  0.0693
  785POPS   GL210556   2.750   9.986   6.245  0.0005 -0.2824 -0.1676
  785POPS   C1A10557   2.235   9.881   6.418 -0.1975  0.2186  0.1917
  785POPS   D2A10558   2.068   9.876   6.818  0.3368  0.0928 -0.0690
  785POPS   C3A10559   2.107   9.748   7.192 -0.1694  0.0049  0.0566
  785POPS   C4A10560   1.998   9.763   7.586  0.0235 -0.1036 -0.0154
  785POPS   C1B10561   2.952  10.074   6.640  0.0744  0.2663 -0.2320
  785POPS   C2B10562   3.282  10.342   6.486  0.0912 -0.0739  0.1211
  785POPS   C3B10563   3.506  10.674   6.569  0.1626  0.1045  0.0621
  785POPS   C4B10564   3.820  10.693   6.935 -0.0178  0.1644  0.1330
  786POPS   CNO10565   5.990  11.223   5.528 -0.1765  0.0237 -0.3068
  786POPS   PO410566   6.152  10.842   5.784 -0.3131 -0.2360 -0.1486
  786POPS   GL110567   6.169  10.874   6.237 -0.1421  0.0819  0.0473
  786POPS   GL210568   6.450  10.763   6.305 -0.0427  0.0336 -0.2731
  786POPS   C1A10569   6.203  10.958   6.717 -0.0790 -0.0834 -0.0828
  786POPS   D2A10570   6.319  10.898   7.128 -0.3685  0.0597 -0.1919
  786POPS   C3A10571   6.296  10.485   7.209  0.0906 -0.1265  0.1924
  786POPS   C4A10572   6.195  10.348   7.575  0.0446  0.0020 -0.2382
  786POPS   C1B10573   6.334  10.395   6.704 -0.5640 -0.1921 -0.1126
  786POPS   C2B10574   5.972  10.115   6.794  0.1545  0.0861 -0.0936
  786POPS   C3B10575   5.479  10.139   6.750  0.2233 -0.1276  0.0239
  786POPS   C4B10576   5.087   9.950   6.780 -0.0306  0.1792  0.0256
  787POPS   CNO10577  16.950   9.570   5.972 -0.1196  0.1733  0.1041
  787POPS   PO410578  16.672   9.296   6.226  0.1697 -0.1396  0.0110
  787POPS   GL110579  16.763   9.289   6.615 -0.1935  0.1261 -0.1340
  787POPS   GL210580  16.840   9.009   6.770  0.0373 -0.2347  0.0628
  787POPS   C1A10581  16.626   9.403   7.075  0.3245 -0.1554  0.0688
  787POPS   D2A10582  16.381   9.417   7.408 -0.0949  0.0230 -0.0045
  787POPS   C3A10583  16.441   9.680   7.751  0.2104  0.2491 -0.2217
  787POPS   C4A10584  16.302   9.907   8.087  0.1396  0.2364 -0.2220
  787POPS   C1B10585  17.110   9.218   7.114 -0.1524  0.0916  0.2250
  787POPS   C2B10586  17.002   9.386   7.433 -0.0467 -0.0166 -0.0330
  787POPS   C3B10587  16.809   9.286   7.786  0.0919 -0.0937  0.2593
  787POPS   C4B10588  16.783   9.244   8.241 -0.0219 -0.4088 -0.2965
  788POPS   CNO10589  18.437   3.227   5.631 -0.2555  0.0799  0.3052
  788POPS   PO410590  18.245   3.589   5.636  0.2495 -0.0471 -0.0678
  788POPS   GL110591  18.039   3.442   5.880  0.1043  0.3274 -0.0111
  788POPS   GL210592  17.938   3.737   6.111 -0.0541  0.1259  0.3177
  788POPS   C1A10593  18.000   3.260   6.296  0.0926  0.1822  0.0236
  788POPS   D2A10594  18.239   3.291   6.692 -0.0422  0.0374  0.0080
  788POPS   C3A10595  18.419   3.051   7.085 -0.0576 -0.0057 -0.1520
  788POPS   C4A10596  18.505   2.682   7.474  0.0552 -0.2320 -0.0499
  788POPS   C1B10597  17.914   3.664   6.566 -0.0557  0.4588 -0.2215
  788POPS   C2B10598  17.694   3.665   7.034 -0.1571 -0.2871  0.1032
  788POPS   C3B10599  17.492   3.557   7.364 -0.0216 -0.2647 -0.1080
  788POPS   C4B10600  17.522   3.542   7.827  0.0753  0.1757 -0.1455
  789POPS   CNO10601   7.423   0.673   5.696  0.0554 -0.0002  0.2454
  789POPS   PO410602   7.467   0.318   5.419 -0.0843  0.3402 -0.2065
  789POPS   GL110603   7.750   0.004   5.583  0.0776 -0.0297  0.0473
  789POPS   GL210604   7.669  -0.304   5.744 -0.2577  0.1325  0.1538
  789POPS   C1A10605   8.135  -0.094   5.911  0.3178  0.1067  0.2231
  789POPS   D2A10606   8.433  -0.144   6.070  0.3517 -0.2625  0.2171
  789POPS   C3A10607   8.479   0.156   6.330  0.3019 -0.1415 -0.2906
  789POPS   C4A10608   8.399   0.129   6.694 -0.1507 -0.1321 -0.2726
  789POPS   C1B10609   7.926  -0.645   5.909  0.0981 -0.0984 -0.0639
  789POPS   C2B10610   8.030  -0.899   6.297 -0.2010  0.2076 -0.0039
  789POPS   C3B10611   8.275  -1.026   6.622  0.1244 -0.2405 -0.0328
  789POPS   C4B10612   8.387  -0.974   7.047 -0.0595 -0.0261  0.0830
  790POPS   CNO10613  17.696   2.104   5.771  0.2806 -0.0583 -0.0002
  790POPS   PO410614  17.263   2.051   5.939 -0.2914 -0.2754  0.2721
  790POPS   GL110615  17.177   1.885   6.344 -0.3344 -0.0066 -0.2199
  790POPS   GL210616  17.451   1.818   6.505  0.4081 -0.0720  0.1612
  790POPS   C1A10617  17.094   2.085   6.771  0.5152  0.2717 -0.1221
  790POPS   D2A10618  16.970   2.212   7.260 -0.3947  0.0569  0.2856
  790POPS   C3A10619  17.017   2.235   7.626  0.0446 -0.0883 -0.3007
  790POPS   C4A10620  16.992   2.429   8.053 -0.0037  0.2024 -0.0391
  790POPS   C1B10621  17.590   2.015   6.775  0.2566 -0.2084 -0.1103
  790POPS   C2B10622  17.621   2.104   7.233 -0.0548 -0.0521 -0.0486
  790POPS   C3B10623  17.454   2.027   7.626  0.2765 -0.2307 -0.1029
  790POPS   C4B10624  17.277   1.892   8.018 -0.1645  0.2827  0.1645
  791POPS   CNO10625   6.674  12.598   5.853  0.0194 -0.1421 -0.0241
  791POPS   PO410626   6.333  12.452   5.903 -0.0989 -0.2337  0.1485
  791POPS   GL110627   6.457  12.431   6.288  0.3092 -0.2300  0.0257
  791POPS   GL210628   6.804  12.364   6.283 -0.0490 -0.0134  0.0004
  791POPS   C1A10629   6.327  12.516   6.693 -0.1614  0.0394 -0.1968
  791POPS   D2A10630   6.530  12.619   7.033  0.2376 -0.2547 -0.0555
  791POPS   C3A10631   6.330  12.471   7.448 -0.1119 -0.0528  0.0987
  791POPS   C4A10632   6.356  12.135   7.680  0.1799  0.0615 -0.1125
  791POPS   C1B10633   6.845  12.314   6.665  0.1400 -0.2063 -0.2333
  791POPS   C2B10634   6.971  12.419   7.033 -0.1541  0.0334  0.2460
  791POPS   C3B10635   6.938  12.494   7.457  0.0431  0.5326 -0.3770
  791POPS   C4B10636   6.867  12.240   7.884 -0.3093  0.4965  0.0372
  792POPS   CNO10637  14.875  12.654   5.377  0.2050 -0.2266  0.0336
  792POPS   PO410638  14.584  12.359   5.657 -0.2212 -0.0954  0.1677
  792POPS   GL110639  14.800  12.496   5.985 -0.0874 -0.1527 -0.1671
  792POPS   GL210640  14.815  12.857   6.023  0.2160  0.2133  0.2093
  792POPS   C1A10641  14.946  12.518   6.458 -0.1794 -0.0984  0.3997
  792POPS   D2A10642  14.918  12.654   6.895 -0.1269 -0.1476  0.1650
  792POPS   C3A10643  14.619  12.889   7.172 -0.0547  0.2949 -0.3931
  792POPS   C4A10644  14.456  12.482   7.441 -0.3926  0.1204  0.0067
  792POPS   C1B10645  14.793  13.017   6.402 -0.1635  0.5037 -0.0964
  792POPS   C2B10646  15.022  13.131   6.734 -0.0725 -0.0040 -0.1139
  792POPS   C3B10647  15.160  13.117   7.127 -0.0391 -0.2775 -0.2012
  792POPS   C4B10648  15.155  13.034   7.586 -0.0455  0.3051 -0.2856
  793POPS   CNO10649  10.730  16.323   4.617  0.1273 -0.0105 -0.0892
  793POPS   PO410650  10.927  16.258   5.048  0.1249  0.1204  0.5041
  793POPS   GL110651  11.102  16.380   5.430  0.1173 -0.0420  0.0245
  793POPS   GL210652  11.378  16.629   5.504  0.2024  0.1843 -0.1627
  793POPS   C1A10653  11.010  16.495   5.794  0.2379  0.2788  0.1322
  793POPS   D2A10654  10.678  16.588   6.147 -0.4019  0.2655  0.3351
  793POPS   C3A10655  10.262  16.303   6.265 -0.3568 -0.0624 -0.1693
  793POPS   C4A10656   9.841  16.494   6.425  0.1111  0.0714  0.1449
  793POPS   C1B10657  11.519  16.366   5.779  0.0037  0.0620  0.1622
  793POPS   C2B10658  11.468  16.216   6.251 -0.0169 -0.1804  0.0242
  793POPS   C3B10659  11.371  16.266   6.753  0.1718  0.0183  0.0073
  793POPS   C4B10660  11.136  16.470   7.100 -0.0183 -0.2399 -0.1889
  794POPS   CNO10661   7.600   0.897   5.241  0.2511 -0.2448  0.2291
  794POPS   PO410662   7.739   1.085   5.609 -0.1466  0.0656 -0.0637
  794POPS   GL110663   7.894   0.913   5.901 -0.0806 -0.1380 -0.0818
  794POPS   GL210664   8.178   0.814   6.086  0.1362 -0.2343 -0.0164
  794POPS   C1A10665   7.671   0.705   6.226 -0.3845 -0.0053 -0.1146
  794POPS   D2A10666   7.421   0.551   6.533  0.1014  0.0021 -0.2520
  794POPS   C3A10667   7.580   0.322   6.847  0.1551 -0.0083  0.1189
  794POPS   C4A10668   7.582   0.265   7.272  0.2160  0.0218  0.1979
  794POPS   C1B10669   8.243   0.730   6.395 -0.0283  0.0636  0.1577
  794POPS   C2B10670   7.958   0.532   6.641  0.0384 -0.2126  0.3176
  794POPS   C3B10671   8.024   0.185   6.958 -0.0672  0.3068  0.0509
  794POPS   C4B10672   7.844  -0.180   7.056  0.1000 -0.1674  0.0056
  795POPS   CNO10673   4.273   2.036   5.170  0.2173 -0.2489  0.0637
  795POPS   PO410674   4.119   2.151   5.632  0.0475  0.2319  0.0155
  795POPS   GL110675   4.055   2.301   6.086 -0.1782 -0.3313 -0.0814
  795POPS   GL210676   3.790   2.105   6.165  0.4094  0.0100 -0.1539
  795POPS   C1A10677   4.225   2.270   6.462  0.0054  0.1691  0.1543
  795POPS   D2A10678   4.538   2.344   6.750  0.0527 -0.3982 -0.2854
  795POPS   C3A10679   4.344   2.318   7.186 -0.0429 -0.4479  0.0474
  795POPS   C4A10680   4.289   2.435   7.581 -0.0461  0.1208 -0.1587
  795POPS   C1B10681   3.573   2.111   6.548 -0.2255 -0.2341  0.0368
  795POPS   C2B10682   3.481   2.036   7.005 -0.2016  0.1112 -0.0550
  795POPS   C3B10683   3.448   2.114   7.416  0.0932 -0.1518 -0.0475
  795POPS   C4B10684   3.352   2.322   7.672 -0.0617 -0.0644  0.1336
  796POPS   CNO10685  11.002  12.830   4.950 -0.3866 -0.2355  0.0318
  796POPS   PO410686  10.811  12.906   5.296  0.0355 -0.2636 -0.2227
  796POPS   GL110687  10.613  13.082   5.649  0.2596 -0.0917  0.1533
  796POPS   GL210688  10.307  13.315   5.706  0.1726 -0.0275  0.1158
  796POPS   C1A10689  10.557  13.167   6.094 -0.2177 -0.3186  0.3089
  796POPS   D2A10690  10.395  13.222   6.466  0.0592 -0.0392  0.0757
  796POPS   C3A10691  10.091  13.603   6.551  0.0435 -0.2375  0.0909
  796POPS   C4A10692   9.949  13.685   6.878 -0.1127 -0.4406 -0.1179
  796POPS   C1B10693  10.029  13.525   6.011  0.0396 -0.1876 -0.1393
  796POPS   C2B10694   9.729  13.780   6.259  0.2078  0.1355  0.2524
  796POPS   C3B10695   9.549  13.911   6.689 -0.4107  0.3115  0.1867
  796POPS   C4B10696   9.243  14.151   7.013  0.0329  0.1325 -0.0078
  797POPS   CNO10697   1.266   7.682   6.039  0.0053  0.0158 -0.0740
  797POPS   PO410698   1.352   7.324   5.897 -0.0773  0.1325  0.0584
  797POPS   GL110699   1.464   6.850   6.079  0.1400  0.0873 -0.0750
  797POPS   GL210700   1.490   6.917   6.373  0.2113 -0.0389 -0.0503
  797POPS   C1A10701   1.314   6.459   6.295  0.1969  0.2911  0.2921
  797POPS   D2A10702   1.155   6.057   6.380  0.2973  0.0498  0.2319
  797POPS   C3A10703   1.408   5.788   6.550  0.0669 -0.3180  0.1545
  797POPS   C4A10704   1.591   5.415   6.341 -0.0615 -0.0380 -0.2539
  797POPS   C1B10705   1.346   6.796   6.690  0.2890 -0.0027  0.0485
  797POPS   C2B10706   1.139   6.352   6.772  0.2993 -0.2802 -0.1134
  797POPS   C3B10707   1.141   5.943   6.968 -0.1785  0.4106 -0.0612
  797POPS   C4B10708   0.945   5.653   7.175  0.0641 -0.1495  0.0540
  798POPS   CNO10709  16.754  12.190   6.092 -0.0488 -0.0567 -0.1095
  798POPS   PO410710  17.086  12.371   5.793 -0.1817 -0.1173 -0.0739
  798POPS   GL110711  17.033  12.620   6.204  0.0360  0.2697  0.2062
  798POPS   GL210712  17.196  12.468   6.392  0.1600  0.2507  0.0350
  798POPS   C1A10713  16.796  12.787   6.530 -0.0869 -0.2318  0.0698
  798POPS   D2A10714  16.476  13.019   6.754 -0.0054  0.1363 -0.0554
  798POPS   C3A10715  16.056  13.062   6.628 -0.1415 -0.1987 -0.2194
  798POPS   C4A10716  15.594  13.105   6.728  0.1021  0.0806  0.1540
  798POPS   C1B10717  17.231  12.609   6.772 -0.1078  0.0370  0.0280
  798POPS   C2B10718  17.197  12.519   7.163  0.1212 -0.0638  0.0648
  798POPS   C3B10719  17.201  12.213   7.303  0.0864  0.0450  0.2564
  798POPS   C4B10720  17.353  11.895   7.374 -0.2081  0.1568 -0.4838
  799POPS   CNO10721   2.270   7.527   5.524  0.2777  0.1672  0.2247
  799POPS   PO410722   2.265   7.646   5.954 -0.1058  0.0317  0.0911
  799POPS   GL110723   2.285   7.642   6.260  0.3273 -0.3100  0.0667
  799POPS   GL210724   2.449   7.952   6.359  0.0443 -0.3432 -0.2571
  799POPS   C1A10725   2.563   7.513   6.644 -0.2187 -0.0661  0.1089
  799POPS   D2A10726   2.836   7.442   6.958 -0.0626  0.0735  0.3567
  799POPS   C3A10727   2.827   7.532   7.331  0.1986 -0.4374 -0.0756
  799POPS   C4A10728   2.800   7.462   7.789  0.2864  0.3129 -0.2563
  799POPS   C1B10729   2.498   7.977   6.785  0.0239  0.1909  0.2272
  799POPS   C2B10730   2.432   7.712   7.056  0.0422 -0.1373  0.0454
  799POPS   C3B10731   2.332   7.599   7.529 -0.2570  0.1345 -0.0677
  799POPS   C4B10732   2.319   7.357   7.923  0.0840 -0.3524  0.2037
  800POPS   CNO10733  15.699   5.367   5.829 -0.1094  0.2209 -0.1247
  800POPS   PO410734  15.645   5.767   5.895  0.0547 -0.0758  0.0260
  800POPS   GL110735  15.552   5.673   6.232 -0.0178 -0.1884 -0.1985
  800POPS   GL210736  15.864   5.705   6.328 -0.2165 -0.1012  0.1910
  800POPS   C1A10737  15.637   5.648   6.739 -0.1379  0.0047 -0.4731
  800POPS   D2A10738  15.728   5.576   7.247 -0.3235 -0.2069 -0.2757
  800POPS   C3A10739  15.642   5.386   7.608  0.0084  0.0830  0.0465
  800POPS   C4A10740  15.884   5.102   8.004  0.1356  0.3688 -0.1665
  800POPS   C1B10741  16.090   5.768   6.668 -0.2830  0.0549  0.2142
  800POPS   C2B10742  16.064   5.856   7.026  0.0518  0.1004 -0.2210
  800POPS   C3B10743  16.078   6.072   7.401 -0.0062  0.1082  0.0943
  800POPS   C4B10744  16.363   6.186   7.679 -0.0703 -0.1494  0.0269
  801POPS   CNO10745  10.522   1.252   5.607  0.0742  0.1508  0.0611
  801POPS   PO410746  10.241   1.018   5.835 -0.3184  0.2460  0.3451
  801POPS   GL110747  10.398   0.960   6.227  0.0845 -0.2128  0.0212
  801POPS   GL210748  10.661   1.194   6.229  0.1505  0.2063 -0.2296
  801POPS   C1A10749  10.378   0.772   6.641  0.0783 -0.3089  0.0625
  801POPS   D2A10750  10.414   0.550   7.014 -0.2809 -0.0693 -0.0616
  801POPS   C3A10751  10.160   0.221   7.284 -0.3100  0.4256  0.0905
  801POPS   C4A10752  10.038  -0.168   7.252  0.0850 -0.4091 -0.1346
  801POPS   C1B10753  10.696   1.132   6.590  0.5392 -0.0795  0.3432
  801POPS   C2B10754  10.769   1.215   7.108  0.2241 -0.2012  0.0524
  801POPS   C3B10755  10.991   1.157   7.420  0.3597 -0.1091  0.1061
  801POPS   C4B10756  11.040   0.782   7.647 -0.1395 -0.1044 -0.2334
  802POPS   CNO10757  11.114  12.161   5.539  0.2189 -0.1369 -0.0125
  802POPS   PO410758  11.309  11.797   5.746 -0.0646 -0.1038  0.0987
  802POPS   GL110759  11.271  12.052   6.045  0.0076 -0.1204 -0.3000
  802POPS   GL210760  11.356  12.334   6.001  0.0271 -0.0415 -0.4569
  802POPS   C1A10761  11.245  12.062   6.431  0.0085  0.0414 -0.2177
  802POPS   D2A10762  11.262  12.206   6.756  0.0425 -0.0914  0.2314
  802POPS   C3A10763  11.285  11.916   7.113  0.3336 -0.1002  0.1158
  802POPS   C4A10764  11.341  11.865   7.547  0.4315  0.2240  0.1001
  802POPS   C1B10765  11.082  12.498   6.359 -0.0061  0.1966 -0.1938
  802POPS   C2B10766  11.088  12.702   6.706  0.1561  0.2966 -0.0634
  802POPS   C3B10767  10.942  12.751   7.122 -0.3336 -0.0881  0.1609
  802POPS   C4B10768  10.688  12.644   7.424 -0.0116  0.2301  0.2472
  803POPS   CNO10769   0.265  15.410   5.374  0.0711  0.0043  0.0184
  803POPS   PO410770   0.404  15.293   5.794  0.1022 -0.0126  0.0507
  803POPS   GL110771   0.530  15.409   6.140 -0.0845 -0.0958  0.0102
  803POPS   GL210772   0.425  15.441   6.460  0.1459  0.0433  0.2896
  803POPS   C1A10773   0.967  15.489   6.385 -0.1271 -0.1682 -0.1911
  803POPS   D2A10774   1.396  15.569   6.237 -0.0983  0.1237  0.2770
  803POPS   C3A10775   1.794  15.594   6.334  0.0874  0.0738  0.0799
  803POPS   C4A10776   2.027  15.931   6.367  0.1107  0.1715  0.3629
  803POPS   C1B10777   0.639  15.577   6.942 -0.0689  0.1631  0.1764
  803POPS   C2B10778   0.737  15.569   7.386 -0.2167  0.0467  0.2873
  803POPS   C3B10779   0.946  15.401   7.712  0.0227 -0.0300  0.1368
  803POPS   C4B10780   0.957  15.240   8.026  0.0478 -0.1687  0.2574
  804POPS   CNO10781   4.247   3.970   5.631 -0.0856  0.4604 -0.0543
  804POPS   PO410782   3.857   4.119   5.824  0.0898  0.3188  0.0193
  804POPS   GL110783   3.925   4.122   6.265  0.0281  0.2117 -0.1979
  804POPS   GL210784   3.638   4.227   6.403  0.0864 -0.0874 -0.0162
  804POPS   C1A10785   3.998   4.170   6.811 -0.2920  0.2951 -0.2645
  804POPS   D2A10786   4.083   4.174   7.287 -0.3064 -0.0213 -0.0024
  804POPS   C3A10787   3.820   3.780   7.366 -0.4137 -0.1084  0.0509
  804POPS   C4A10788   3.936   3.348   7.276  0.2920  0.3007  0.0639
  804POPS   C1B10789   3.470   4.094   6.784  0.0216 -0.1780 -0.1842
  804POPS   C2B10790   3.540   4.104   7.150 -0.3639  0.0352 -0.0462
  804POPS   C3B10791   3.515   4.075   7.654 -0.0048 -0.3219 -0.0617
  804POPS   C4B10792   3.214   3.997   8.003  0.0948  0.1528  0.2292
  805POPS   CNO10793  12.174  10.193   5.241 -0.0023  0.0092 -0.1853
  805POPS   PO410794  11.870   9.856   5.385 -0.1389 -0.0833  0.0059
  805POPS   GL110795  12.066   9.974   5.741 -0.2865  0.1789  0.1758
  805POPS   GL210796  12.056   9.714   5.875 -0.0072 -0.2856  0.1958
  805POPS   C1A10797  11.954  10.355   6.077 -0.1258  0.0388 -0.1060
  805POPS   D2A10798  12.113  10.371   6.418  0.1052  0.0577 -0.3188
  805POPS   C3A10799  11.904  10.165   6.792 -0.1114  0.0939 -0.0097
  805POPS   C4A10800  11.746  10.221   7.274 -0.1786 -0.2324 -0.0431
  805POPS   C1B10801  11.898   9.846   6.268  0.0656  0.2843  0.2058
  805POPS   C2B10802  11.723   9.756   6.656  0.2523 -0.0331 -0.2160
  805POPS   C3B10803  11.561   9.783   7.074  0.1857  0.0688 -0.3041
  805POPS   C4B10804  11.461   9.939   7.569  0.2271  0.2816  0.2426
  806POPS   CNO10805  15.565   2.708   5.716  0.0847 -0.2269  0.3676
  806POPS   PO410806  15.896   2.874   5.845  0.2969  0.0461 -0.2413
  806POPS   GL110807  15.567   3.023   6.167 -0.1657 -0.1072 -0.1937
  806POPS   GL210808  15.201   2.956   6.268  0.0872  0.1256  0.0126
  806POPS   C1A10809  15.517   3.307   6.503 -0.2599 -0.1802 -0.1546
  806POPS   D2A10810  15.348   3.272   6.824 -0.3599 -0.0834  0.0021
  806POPS   C3A10811  15.370   3.109   7.157 -0.0741  0.1219  0.2598
  806POPS   C4A10812  15.574   3.144   7.533  0.1327  0.2273 -0.1023
  806POPS   C1B10813  15.041   2.846   6.634  0.1551  0.1843  0.0909
  806POPS   C2B10814  14.951   2.767   7.053  0.3354 -0.1013 -0.1040
  806POPS   C3B10815  14.835   2.530   7.447  0.0860 -0.2888 -0.2407
  806POPS   C4B10816  14.668   2.500   7.891  0.0486  0.0622 -0.1246
  807POPS   CNO10817  17.952   0.603   5.542  0.0617  0.2947  0.0916
  807POPS   PO410818  17.863   0.855   5.882 -0.0594  0.3275  0.1330
  807POPS   GL110819  17.931   0.869   6.312  0.3161  0.1946  0.0938
  807POPS   GL210820  17.669   0.901   6.529  0.2050  0.4234  0.1649
  807POPS   C1A10821  18.242   0.666   6.670  0.1425 -0.1130 -0.0079
  807POPS   D2A10822  18.553   0.544   6.966  0.0343  0.2594 -0.2630
  807POPS   C3A10823  18.348   0.724   7.353 -0.2348  0.3146  0.0803
  807POPS   C4A10824  18.352   0.973   7.651 -0.1998  0.0388  0.2688
  807POPS   C1B10825  17.752   0.936   7.021  0.3286  0.0174 -0.3251
  807POPS   C2B10826  17.846   0.929   7.475  0.1541  0.1257  0.0756
  807POPS   C3B10827  17.997   0.615   7.697  0.1151  0.2016 -0.0344
  807POPS   C4B10828  18.193   0.336   7.816  0.0145  0.2007  0.5386
  808POPS   CNO10829  15.851  14.153   5.905  0.0827 -0.2326  0.0095
  808POPS   PO410830  16.176  14.348   5.844 -0.0794 -0.2269  0.0458
  808POPS   GL110831  15.958  14.499   6.345  0.1253 -0.0063  0.0206
  808POPS   GL210832  16.075  14.736   6.503  0.0972  0.0889  0.0046
  808POPS   C1A10833  15.704  14.441   6.674  0.0708 -0.0124  0.3936
  808POPS   D2A10834  15.733  14.699   7.012 -0.0356  0.0329 -0.3893
  808POPS   C3A10835  15.521  14.556   7.364  0.0831 -0.2107  0.1487
  808POPS   C4A10836  15.422  14.601   7.760  0.1466  0.1978 -0.0322
  808POPS   C1B10837  16.186  14.595   6.905 -0.1572 -0.0173 -0.0767
  808POPS   C2B10838  16.088  14.456   7.313 -0.0331 -0.0736  0.2160
  808POPS   C3B10839  15.846  14.367   7.730 -0.1876 -0.0854  0.2768
  808POPS   C4B10840  15.748  14.312   8.171 -0.1530  0.0405  0.0138
  809POPS   CNO10841  14.031  15.412   5.517  0.1373  0.2938 -0.2714
  809POPS   PO410842  13.857  14.944   5.504 -0.1754  0.0333 -0.0058
  809POPS   GL110843  13.907  15.164   5.964 -0.3637  0.1967  0.1071
  809POPS   GL210844  14.190  15.104   6.071 -0.1419 -0.0264 -0.0605
  809POPS   C1A10845  13.717  15.264   6.216 -0.1305  0.1085  0.0468
  809POPS   D2A10846  13.560  15.593   6.431  0.0619  0.1222 -0.0891
  809POPS   C3A10847  13.692  15.802   6.666 -0.2040 -0.3695 -0.1107
  809POPS   C4A10848  13.779  15.635   7.140 -0.1325 -0.4344 -0.0823
  809POPS   C1B10849  14.213  14.902   6.446 -0.0320  0.0126  0.0650
  809POPS   C2B10850  14.325  14.867   6.862  0.1289 -0.1173 -0.0829
  809POPS   C3B10851  14.509  15.043   7.259 -0.1252  0.1307  0.2739
  809POPS   C4B10852  14.970  15.030   7.263 -0.1551  0.1280  0.0515
  810POPS   CNO10853  11.532  17.906   5.564  0.2627 -0.1728 -0.1251
  810POPS   PO410854  11.763  17.545   5.603 -0.1356 -0.0595  0.0330
  810POPS   GL110855  11.559  17.458   5.939 -0.0919  0.0113 -0.0859
  810POPS   GL210856  11.409  17.735   6.040  0.1546 -0.1484 -0.2368
  810POPS   C1A10857  11.415  17.213   6.278  0.0691  0.3035  0.1818
  810POPS   D2A10858  11.530  17.027   6.694 -0.0167 -0.0199 -0.0936
  810POPS   C3A10859  11.100  16.969   6.784  0.2218 -0.2047  0.3574
  810POPS   C4A10860  10.910  16.923   7.249 -0.0952  0.0025 -0.1911
  810POPS   C1B10861  11.547  17.926   6.462  0.1302  0.0267 -0.0234
  810POPS   C2B10862  11.479  17.951   6.905 -0.1012 -0.0883  0.2253
  810POPS   C3B10863  11.370  17.994   7.181  0.0578 -0.1125 -0.0319
  810POPS   C4B10864  11.474  18.075   7.571  0.0613  0.2709  0.0741
  811POPS   CNO10865   8.367  10.786   5.591 -0.2833  0.2117  0.0038
  811POPS   PO410866   7.999  10.908   5.789 -0.0745 -0.0446  0.1991
  811POPS   GL110867   7.970  10.674   6.036  0.0554 -0.3620  0.0078
  811POPS   GL210868   8.213  10.460   5.986  0.1499  0.2081  0.0141
  811POPS   C1A10869   8.107  10.765   6.433 -0.0245  0.2281 -0.0731
  811POPS   D2A10870   8.426  10.854   6.734 -0.0776  0.1761  0.4908
  811POPS   C3A10871   8.537  10.702   7.077 -0.1690  0.0060  0.1186
  811POPS   C4A10872   8.178  10.696   7.321 -0.0940 -0.2313  0.1110
  811POPS   C1B10873   8.555  10.419   6.301  0.1545  0.1331  0.1561
  811POPS   C2B10874   8.632  10.380   6.699  0.1030  0.1902 -0.2564
  811POPS   C3B10875   8.812  10.215   7.047  0.0330  0.0785 -0.0646
  811POPS   C4B10876   8.775   9.988   7.439 -0.1717  0.0191 -0.0479
  812YOPS   CNO10877  16.762  13.570   6.453  0.1239  0.0809 -0.1125
  812YOPS   PO410878  17.217  13.739   6.513  0.1431  0.0099 -0.0602
  812YOPS   GL110879  17.565  13.856   6.809  0.2415 -0.1050  0.0659
  812YOPS   GL210880  17.682  13.572   7.006  0.0438 -0.5344  0.0505
  812YOPS   C1A10881  17.671  14.028   7.254  0.2885  0.0926 -0.1329
  812YOPS   D2A10882  17.548  14.101   7.710  0.2615  0.0688 -0.1323
  812YOPS   C3A10883  17.396  14.243   8.083 -0.3562  0.1924 -0.1634
  812YOPS   C4A10884  17.480  13.947   8.293 -0.0821  0.0819  0.1236
  812YOPS   C1B10885  17.624  13.538   7.452  0.0518  0.1249 -0.1515
  812YOPS   C2B10886  17.851  13.487   7.894  0.1212 -0.1510 -0.0618
  812YOPS   D3B10887  17.803  13.610   8.308 -0.1643  0.0473  0.0521
  812YOPS   C4B10888  18.159  13.800   8.409  0.1301  0.0975 -0.0053
  813YOPS   CNO10889  13.027   6.979   5.452  0.1739 -0.2265  0.0307
  813YOPS   PO410890  13.513   7.092   5.517  0.3502  0.2621 -0.2875
  813YOPS   GL110891  13.509   7.026   6.005 -0.4068 -0.2686 -0.2597
  813YOPS   GL210892  13.800   6.938   6.072 -0.1888  0.0850  0.0930
  813YOPS   C1A10893  13.475   7.311   6.391  0.0978  0.0095  0.0678
  813YOPS   D2A10894  13.466   7.315   6.930 -0.1451 -0.4462 -0.0707
  813YOPS   C3A10895  13.479   7.423   7.355 -0.3121 -0.0025  0.4467
  813YOPS   C4A10896  13.837   7.604   7.524 -0.0118 -0.1625  0.0126
  813YOPS   C1B10897  13.889   7.031   6.509 -0.4011  0.0591 -0.2166
  813YOPS   C2B10898  14.047   7.016   6.968 -0.0148 -0.0252  0.4812
  813YOPS   D3B10899  13.859   7.099   7.421  0.0033  0.0489  0.0097
  813YOPS   C4B10900  14.024   7.169   7.837 -0.3908 -0.0180 -0.2128
  814YOPS   CNO10901   4.554   5.657   5.620  0.0868 -0.3662 -0.2042
  814YOPS   PO410902   4.517   5.782   6.097 -0.0203  0.0676 -0.0521
  814YOPS   GL110903   4.488   5.958   6.548 -0.2898  0.1585 -0.1196
  814YOPS   GL210904   4.291   6.187   6.448 -0.2837 -0.1259  0.0755
  814YOPS   C1A10905   4.260   5.751   6.966  0.3274  0.1217 -0.1563
  814YOPS   D2A10906   4.328   5.677   7.439  0.0488  0.0614  0.0249
  814YOPS   C3A10907   4.614   5.566   7.757  0.0370 -0.0141 -0.0038
  814YOPS   C4A10908   4.984   5.730   7.821  0.4254  0.2189  0.0715
  814YOPS   C1B10909   4.390   6.380   6.777 -0.0274 -0.1150 -0.5571
  814YOPS   C2B10910   4.278   6.558   7.066 -0.1441 -0.0377 -0.3313
  814YOPS   D3B10911   4.258   6.766   7.427 -0.1863  0.2297 -0.0780
  814YOPS   C4B10912   3.868   6.844   7.416 -0.2326  0.0975 -0.2230
  815YOPS   CNO10913  13.737   5.824   5.721 -0.2077 -0.0150  0.1034
  815YOPS   PO410914  14.229   5.965   5.834 -0.0496  0.0684  0.1375
  815YOPS   GL110915  13.889   6.260   5.970  0.0878 -0.1984 -0.1824
  815YOPS   GL210916  14.067   6.444   6.055  0.1245 -0.0916  0.0952
  815YOPS   C1A10917  13.716   6.164   6.359 -0.2432  0.0678 -0.0214
  815YOPS   D2A10918  13.821   6.102   6.780  0.1065 -0.0211 -0.2453
  815YOPS   C3A10919  13.810   6.040   7.179 -0.1421 -0.1420  0.0516
  815YOPS   C4A10920  13.976   6.264   7.470  0.0513  0.0636 -0.2058
  815YOPS   C1B10921  14.006   6.544   6.450  0.3488  0.0623 -0.0116
  815YOPS   C2B10922  14.121   6.472   6.899  0.1585  0.0591 -0.0583
  815YOPS   D3B10923  14.418   6.707   6.885 -0.0244 -0.4251  0.0948
  815YOPS   C4B10924  14.400   6.940   6.484 -0.5266  0.1889 -0.0878
  816YOPS   CNO10925   2.492   5.843   5.875  0.3244  0.0441 -0.0463
  816YOPS   PO410926   2.910   5.625   5.806  0.0203  0.0008  0.0884
  816YOPS   GL110927   2.873   5.604   6.208 -0.1680  0.0543  0.0868
  816YOPS   GL210928   2.577   5.671   6.360 -0.4258 -0.0429 -0.3620
  816YOPS   C1A10929   2.936   5.992   6.562 -0.0268  0.0799  0.0560
  816YOPS   D2A10930   2.884   6.077   6.970  0.0595  0.4283 -0.1123
  816YOPS   C3A10931   2.882   5.969   7.459  0.2544  0.2084  0.0363
  816YOPS   C4A10932   2.566   5.995   7.860  0.1821 -0.3825 -0.3221
  816YOPS   C1B10933   2.753   5.578   6.803 -0.1867  0.3739  0.0293
  816YOPS   C2B10934   3.014   5.207   6.957 -0.1930 -0.2127 -0.1600
  816YOPS   D3B10935   3.199   5.000   7.264 -0.0397 -0.0596 -0.0907
  816YOPS   C4B10936   2.987   4.865   7.540  0.1256 -0.0937 -0.4282
  817YOPS   CNO10937  17.178   6.201   5.949 -0.0970  0.0002 -0.0672
  817YOPS   PO410938  17.012   6.697   5.965  0.2972  0.1776 -0.1788
  817YOPS   GL110939  17.035   6.995   6.389  0.0916 -0.2355 -0.2989
  817YOPS   GL210940  17.039   7.364   6.382 -0.2126 -0.1181 -0.1307
  817YOPS   C1A10941  17.431   7.054   6.745  0.1971  0.1111  0.2705
  817YOPS   D2A10942  17.696   7.019   6.968 -0.1478 -0.0267 -0.2280
  817YOPS   C3A10943  17.909   6.727   7.238 -0.0782  0.0953  0.0310
  817YOPS   C4A10944  17.837   6.435   7.626  0.0287  0.1089  0.0003
  817YOPS   C1B10945  16.982   7.293   6.819 -0.1717 -0.2546  0.0204
  817YOPS   C2B10946  16.829   7.290   7.237  0.5078 -0.0207 -0.1986
  817YOPS   D3B10947  16.850   7.525   7.686  0.2344  0.1088  0.0432
  817YOPS   C4B10948  16.890   7.303   8.106  0.0983  0.0941  0.3394
  818YOPS   CNO10949   5.970   9.543   5.695  0.0315  0.3762 -0.1559
  818YOPS   PO410950   5.885   9.983   5.844  0.0357 -0.0103  0.0567
  818YOPS   GL110951   6.076   9.820   6.243 -0.0342  0.0177  0.0770
  818YOPS   GL210952   5.992   9.524   6.195 -0.1845  0.0652 -0.0022
  818YOPS   C1A10953   5.788   9.668   6.597  0.1096  0.1904  0.0235
  818YOPS   D2A10954   5.833   9.584   7.022  0.0599 -0.0475  0.0842
  818YOPS   C3A10955   5.994   9.509   7.348  0.0989  0.2621 -0.1807
  818YOPS   C4A10956   5.871   9.833   7.697 -0.3126 -0.0052 -0.1715
  818YOPS   C1B10957   6.280   9.415   6.517 -0.2141  0.1906 -0.1561
  818YOPS   C2B10958   6.265   9.361   6.941 -0.0814 -0.0379  0.0585
  818YOPS   D3B10959   6.438   9.104   7.207 -0.1307 -0.0456 -0.1697
  818YOPS   C4B10960   6.147   9.032   7.623  0.1552 -0.1982 -0.0420
  819YOPS   CNO10961  11.805  16.136   5.346  0.0119 -0.1706 -0.1071
  819YOPS   PO410962  11.378  15.974   5.090 -0.3484  0.0839  0.0686
  819YOPS   GL110963  11.415  15.851   5.518  0.0158 -0.2887  0.0704
  819YOPS   GL210964  11.711  15.818   5.716 -0.0654  0.1211  0.2873
  819YOPS   C1A10965  11.200  15.976   5.860 -0.3956  0.1095 -0.0549
  819YOPS   D2A10966  10.994  16.130   6.124  0.0959 -0.0378 -0.2946
  819YOPS   C3A10967  10.753  15.986   6.441  0.2076  0.2135 -0.2322
  819YOPS   C4A10968  10.870  16.011   6.918 -0.2883 -0.1791  0.1691
  819YOPS   C1B10969  11.631  15.785   6.119 -0.1132 -0.5308  0.1765
  819YOPS   C2B10970  11.600  15.574   6.485 -0.0563  0.0518  0.0864
  819YOPS   D3B10971  11.511  15.308   6.839 -0.4139  0.0585 -0.0411
  819YOPS   C4B10972  11.292  15.402   7.261 -0.0482 -0.1919 -0.2775
  820YOPS   CNO10973  15.537  18.389   5.678 -0.0685  0.1033 -0.1338
  820YOPS   PO410974  15.574  18.180   6.054 -0.4110 -0.0937  0.0283
  820YOPS   GL110975  15.405  18.199   6.336  0.0893  0.4268 -0.0550
  820YOPS   GL210976  15.089  18.403   6.540  0.1517 -0.1998 -0.0098
  820YOPS   C1A10977  15.265  17.956   6.681  0.1131 -0.2012  0.0118
  820YOPS   D2A10978  15.454  17.937   7.132  0.1653  0.2164  0.1027
  820YOPS   C3A10979  15.203  17.694   7.408 -0.0328 -0.1708  0.0236
  820YOPS   C4A10980  15.099  17.696   7.906  0.0252 -0.0612  0.1983
  820YOPS   C1B10981  15.158  18.354   6.951 -0.0566 -0.3104  0.2361
  820YOPS   C2B10982  15.034  18.242   7.248 -0.1075  0.0682  0.1751
  820YOPS   D3B10983  14.948  18.230   7.595 -0.1175 -0.0730 -0.3300
  820YOPS   C4B10984  15.115  18.331   7.885 -0.2841  0.0692  0.3528
  821YOPS   CNO10985   8.888   2.572   5.922  0.0598 -0.1064  0.0493
  821YOPS   PO410986   8.998   2.968   5.868 -0.0470  0.0387 -0.2376
  821YOPS   GL110987   9.027   3.076   6.318 -0.0718 -0.0853  0.1572
  821YOPS   GL210988   9.344   3.134   6.388 -0.0715  0.0333  0.2122
  821YOPS   C1A10989   8.993   2.882   6.817  0.1637 -0.4459  0.2158
  821YOPS   D2A10990   9.328   2.967   7.163  0.1628  0.1388  0.1139
  821YOPS   C3A10991   9.468   2.765   7.529  0.0382 -0.1788 -0.3207
  821YOPS   C4A10992   9.836   2.807   7.731  0.0585  0.3615  0.2228
  821YOPS   C1B10993   9.275   3.341   6.794  0.0574 -0.0501 -0.1460
  821YOPS   C2B10994   9.382   3.510   7.228  0.3329  0.1525 -0.3073
  821YOPS   D3B10995   9.559   3.697   7.608  0.3381  0.0788  0.1699
  821YOPS   C4B10996  10.011   3.733   7.840  0.3489 -0.1141  0.1428
  822YOPS   CNO10997  10.650  17.007   4.857  0.0479 -0.2121 -0.1991
  822YOPS   PO410998  10.380  17.051   5.169 -0.1673  0.2375 -0.0195
  822YOPS   GL110999  10.130  16.981   5.654 -0.0822 -0.0190  0.1884
  822YOPS   GL211000  10.217  16.707   5.821  0.0032  0.1334  0.5988
  822YOPS   C1A11001  10.008  17.264   6.001 -0.0059 -0.2427 -0.2958
  822YOPS   D2A11002   9.989  17.258   6.370  0.0086  0.1378 -0.3384
  822YOPS   C3A11003   9.840  17.176   6.782 -0.0097  0.0779  0.0900
  822YOPS   C4A11004   9.816  17.210   7.197 -0.1141 -0.0307  0.0041
  822YOPS   C1B11005  10.288  16.837   6.190  0.0440  0.2284 -0.0179
  822YOPS   C2B11006  10.112  16.826   6.592  0.2226  0.1992 -0.3672
  822YOPS   D3B11007  10.185  16.842   7.073 -0.3257 -0.1388 -0.1592
  822YOPS   C4B11008  10.254  16.511   7.418 -0.1354  0.1512 -0.0641
  823YOPS   CNO11009   8.333   8.120   5.434  0.2042  0.3387 -0.1049
  823YOPS   PO411010   8.146   8.564   5.443  0.4236 -0.0260 -0.3007
  823YOPS   GL111011   8.263   8.523   5.957  0.0239  0.1542 -0.2885
  823YOPS   GL211012   8.568   8.786   6.093  0.1623  0.0581 -0.0285
  823YOPS   C1A11013   8.040   8.465   6.285 -0.1972  0.1605  0.1285
  823YOPS   D2A11014   7.872   8.706   6.723 -0.1670  0.0338 -0.0372
  823YOPS   C3A11015   7.789   9.017   6.886  0.2922  0.0241 -0.1403
  823YOPS   C4A11016   7.994   9.187   7.235  0.0533  0.3999 -0.0421
  823YOPS   C1B11017   8.610   8.502   6.379 -0.3144  0.2157  0.3117
  823YOPS   C2B11018   8.282   8.358   6.690 -0.0092  0.1393  0.0839
  823YOPS   D3B11019   8.224   8.296   7.042  0.1765  0.1642 -0.1422
  823YOPS   C4B11020   8.463   7.920   7.255 -0.1439 -0.0709 -0.3761
  824YOPS   CNO11021   5.690  17.265   5.015  0.3173 -0.2802  0.0972
  824YOPS   PO411022   5.689  17.357   5.487 -0.0931 -0.0273 -0.1030
  824YOPS   GL111023   5.748  17.660   5.816  0.1006  0.2417  0.0537
  824YOPS   GL211024   6.019  17.809   5.775 -0.0007  0.0366  0.0682
  824YOPS   C1A11025   5.474  17.950   6.067  0.0127 -0.1042 -0.0949
  824YOPS   D2A11026   5.135  18.234   6.189  0.0277 -0.0279 -0.0595
  824YOPS   C3A11027   5.128  18.560   6.455  0.0254 -0.2883 -0.3439
  824YOPS   C4A11028   5.340  18.849   6.273 -0.0103 -0.1869  0.3236
  824YOPS   C1B11029   6.010  17.936   6.216 -0.1940 -0.0187 -0.2926
  824YOPS   C2B11030   5.640  17.810   6.531  0.2139 -0.1234 -0.1573
  824YOPS   D3B11031   5.593  17.817   7.006 -0.1076 -0.0983  0.0645
  824YOPS   C4B11032   5.863  17.829   7.247 -0.1895 -0.1137 -0.0980
  825YOPS   CNO11033   9.289   2.194   5.215  0.0997  0.0123 -0.0689
  825YOPS   PO411034   9.255   2.177   5.669  0.0101  0.3708 -0.0451
  825YOPS   GL111035   9.259   1.869   6.059 -0.3639  0.1843 -0.0875
  825YOPS   GL211036   9.033   1.670   6.220  0.1461 -0.0009  0.0049
  825YOPS   C1A11037   9.496   1.898   6.379 -0.0602  0.2062  0.0274
  825YOPS   D2A11038   9.673   1.658   6.737 -0.0178  0.2339 -0.2146
  825YOPS   C3A11039   9.809   1.541   7.184 -0.2250 -0.0554 -0.1536
  825YOPS   C4A11040  10.070   1.441   7.529 -0.1029 -0.1922 -0.1080
  825YOPS   C1B11041   9.159   1.638   6.640 -0.0583  0.0483 -0.0029
  825YOPS   C2B11042   9.327   1.487   7.030  0.2046  0.1415 -0.2728
  825YOPS   D3B11043   9.150   1.524   7.449 -0.2508 -0.0966  0.1200
  825YOPS   C4B11044   9.526   1.547   7.836 -0.1099 -0.1860 -0.1142
  826YOPS   CNO11045  12.899  13.157   5.716  0.2171  0.2140  0.1863
  826YOPS   PO411046  12.674  12.675   5.808  0.4197  0.2280 -0.4072
  826YOPS   GL111047  12.620  12.410   6.238 -0.2224  0.0704  0.1720
  826YOPS   GL211048  12.682  12.716   6.396  0.1856  0.2101 -0.2035
  826YOPS   C1A11049  12.529  12.393   6.734  0.1041 -0.0563 -0.1076
  826YOPS   D2A11050  12.219  12.298   6.900  0.3188 -0.0040 -0.1474
  826YOPS   C3A11051  12.265  12.029   7.358 -0.4201  0.3916  0.0625
  826YOPS   C4A11052  12.206  12.178   7.700  0.1617  0.0496 -0.2438
  826YOPS   C1B11053  12.694  12.802   6.944 -0.0574 -0.0229  0.1048
  826YOPS   C2B11054  12.801  13.097   7.122  0.0944 -0.0363 -0.0038
  826YOPS   D3B11055  12.755  13.562   6.973  0.2208  0.1809 -0.2770
  826YOPS   C4B11056  13.065  13.788   7.124 -0.0215  0.0758  0.0071
  827YOPS   CNO11057   0.658   8.071   5.378  0.0885  0.1653  0.1940
  827YOPS   PO411058   0.853   7.928   5.787 -0.3315  0.1008 -0.0817
  827YOPS   GL111059   0.804   8.090   6.258  0.1514 -0.0065 -0.2320
  827YOPS   GL211060   1.133   7.976   6.413  0.0391  0.2914  0.2407
  827YOPS   C1A11061   0.768   8.179   6.747 -0.0642 -0.3705 -0.1584
  827YOPS   D2A11062   1.137   8.061   7.082 -0.2473 -0.0533 -0.2550
  827YOPS   C3A11063   1.134   8.007   7.599 -0.1702  0.0629 -0.0526
  827YOPS   C4A11064   1.398   7.826   7.829 -0.1158 -0.1482 -0.0776
  827YOPS   C1B11065   0.985   7.758   6.706 -0.2075 -0.1122  0.0520
  827YOPS   C2B11066   1.089   7.559   7.180 -0.0220  0.1769 -0.1057
  827YOPS   D3B11067   1.176   7.425   7.542  0.3308  0.0260 -0.0274
  827YOPS   C4B11068   1.459   7.333   7.865 -0.0102 -0.1809 -0.0047
  828YOPS   CNO11069   7.343  16.724   4.593  0.0129  0.1011  0.3065
  828YOPS   PO411070   7.316  16.486   4.968  0.1702 -0.1869 -0.0987
  828YOPS   GL111071   7.588  16.491   5.401 -0.0700 -0.2099 -0.1163
  828YOPS   GL211072   7.826  16.599   5.311 -0.0171 -0.3146 -0.0452
  828YOPS   C1A11073   7.537  16.441   5.760  0.1855  0.0587  0.1553
  828YOPS   D2A11074   7.542  16.483   6.211  0.1888  0.1485  0.1705
  828YOPS   C3A11075   7.791  16.611   6.516  0.3437  0.0041 -0.0555
  828YOPS   C4A11076   7.631  16.937   6.734  0.2818 -0.0476 -0.1545
  828YOPS   C1B11077   8.114  16.416   5.616 -0.2827 -0.1276 -0.0709
  828YOPS   C2B11078   8.269  16.062   5.867 -0.1606  0.0464  0.0642
  828YOPS   D3B11079   8.563  15.738   5.961 -0.2897  0.0464 -0.1603
  828YOPS   C4B11080   8.781  15.756   6.339  0.4242  0.0470 -0.2730
  829YOPS   CNO11081   6.446  13.918   6.128  0.2180 -0.2693  0.3635
  829YOPS   PO411082   6.703  13.532   6.103  0.1824 -0.0176  0.0992
  829YOPS   GL111083   6.698  13.492   6.517 -0.0097 -0.0306 -0.1719
  829YOPS   GL211084   6.440  13.714   6.579  0.1289 -0.3417 -0.3865
  829YOPS   C1A11085   6.980  13.376   6.897 -0.2882  0.2445 -0.0719
  829YOPS   D2A11086   7.119  13.299   7.229 -0.1449 -0.2229 -0.2046
  829YOPS   C3A11087   7.269  12.951   7.476  0.2041 -0.6120 -0.2871
  829YOPS   C4A11088   7.226  12.695   7.829  0.1476 -0.0477 -0.0030
  829YOPS   C1B11089   6.705  13.738   7.000  0.2541  0.0235  0.1588
  829YOPS   C2B11090   7.003  13.802   7.270  0.0435  0.0686  0.1346
  829YOPS   D3B11091   7.323  14.141   7.363  0.0497  0.4664 -0.1800
  829YOPS   C4B11092   7.712  14.002   7.624  0.0905 -0.0469 -0.0091
  830YOPS   CNO11093   6.374   6.833   5.230 -0.2758 -0.2458 -0.3114
  830YOPS   PO411094   6.502   7.027   5.653 -0.2098 -0.3358  0.1264
  830YOPS   GL111095   6.197   6.923   5.998  0.0415 -0.1404 -0.1610
  830YOPS   GL211096   6.346   6.612   6.151 -0.1447 -0.1659  0.0987
  830YOPS   C1A11097   6.295   7.010   6.438 -0.0312 -0.2010 -0.2177
  830YOPS   D2A11098   5.981   7.134   6.800 -0.3207  0.4833  0.4199
  830YOPS   C3A11099   5.839   7.434   7.116 -0.3878  0.1615 -0.0810
  830YOPS   C4A11100   5.747   7.237   7.531  0.0466 -0.0525 -0.0760
  830YOPS   C1B11101   5.916   6.653   6.311 -0.1121 -0.0214 -0.0104
  830YOPS   C2B11102   5.446   6.708   6.327 -0.3042 -0.1711  0.2554
  830YOPS   D3B11103   5.126   6.595   6.581  0.2615  0.3905  0.4015
  830YOPS   C4B11104   5.140   6.854   6.943  0.0006  0.0545  0.3352
  831YOPS   CNO11105  16.372  10.714   6.149  0.0454 -0.1001  0.0739
  831YOPS   PO411106  16.070  10.983   6.012  0.0184 -0.1282 -0.3669
  831YOPS   GL111107  15.968  11.134   6.381  0.0742  0.0303  0.2067
  831YOPS   GL211108  15.646  10.898   6.354 -0.3754  0.0673 -0.1360
  831YOPS   C1A11109  15.874  11.127   6.789  0.0150  0.2083  0.1213
  831YOPS   D2A11110  16.040  11.191   7.281  0.0723  0.0185 -0.5051
  831YOPS   C3A11111  16.273  10.976   7.563 -0.2027  0.1471  0.1201
  831YOPS   C4A11112  16.156  10.980   8.030 -0.2775  0.2873 -0.2016
  831YOPS   C1B11113  15.391  11.228   6.573 -0.0124 -0.0165 -0.2162
  831YOPS   C2B11114  15.327  11.562   6.737 -0.1004 -0.0326 -0.0002
  831YOPS   D3B11115  15.345  11.601   7.055  0.1022 -0.2362 -0.0378
  831YOPS   C4B11116  14.906  11.666   7.181  0.0071  0.2126 -0.3137
  832YOPS   CNO11117  16.889   4.052   5.425  0.0256  0.1906 -0.0355
  832YOPS   PO411118  17.356   3.905   5.452 -0.2024 -0.0484  0.0163
  832YOPS   GL111119  17.345   4.002   5.870 -0.2020 -0.1035 -0.2272
  832YOPS   GL211120  17.084   3.921   6.131  0.2578 -0.1016 -0.1323
  832YOPS   C1A11121  17.523   3.974   6.304 -0.1872 -0.0256  0.1807
  832YOPS   D2A11122  17.561   4.028   6.736 -0.1906 -0.0658 -0.0214
  832YOPS   C3A11123  17.550   4.184   7.202 -0.0369  0.0400 -0.1736
  832YOPS   C4A11124  17.454   4.043   7.684  0.0111  0.0440  0.2595
  832YOPS   C1B11125  16.740   3.871   6.427  0.1482 -0.4358 -0.1724
  832YOPS   C2B11126  16.615   4.078   6.727  0.0535 -0.0728 -0.0323
  832YOPS   D3B11127  16.524   4.140   7.197 -0.3402  0.0559  0.0379
  832YOPS   C4B11128  16.284   4.054   7.559 -0.0624 -0.1579  0.0668
  833YOPS   CNO11129   5.888  14.115   5.706 -0.1620  0.2395  0.1610
  833YOPS   PO411130   6.231  14.263   5.868  0.2949  0.2361 -0.0557
  833YOPS   GL111131   6.600  14.405   6.266 -0.1207  0.3154  0.1262
  833YOPS   GL211132   6.672  14.712   6.305  0.1678 -0.0712  0.1206
  833YOPS   C1A11133   6.616  14.126   6.580  0.0741 -0.1879  0.2324
  833YOPS   D2A11134   6.236  13.920   6.951  0.0265 -0.0902 -0.3817
  833YOPS   C3A11135   6.018  13.880   7.340 -0.3022 -0.0829  0.0368
  833YOPS   C4A11136   6.246  13.908   7.789  0.1970  0.4325  0.0551
  833YOPS   C1B11137   6.654  14.597   6.760  0.2709  0.0657 -0.0771
  833YOPS   C2B11138   6.509  14.292   7.102  0.0372  0.1943  0.1281
  833YOPS   D3B11139   6.541  14.042   7.386  0.1970  0.0908 -0.3329
  833YOPS   C4B11140   6.911  14.187   7.594  0.1001  0.0065  0.1686
  834YOPS   CNO11141   7.535  16.910   5.043 -0.1115  0.0476  0.4026
  834YOPS   PO411142   7.788  17.180   5.309 -0.0435  0.1259  0.0517
  834YOPS   GL111143   7.669  16.962   5.591 -0.3214 -0.4487  0.0999
  834YOPS   GL211144   7.359  17.123   5.596  0.1958  0.1061  0.1006
  834YOPS   C1A11145   7.848  16.869   5.955 -0.1652  0.2318  0.1069
  834YOPS   D2A11146   8.127  16.464   6.164 -0.4619 -0.3515  0.0094
  834YOPS   C3A11147   8.149  16.091   6.405 -0.0170 -0.0585  0.2808
  834YOPS   C4A11148   8.561  16.026   6.810  0.2470  0.0504  0.0417
  834YOPS   C1B11149   7.329  16.881   6.018 -0.1095  0.2362 -0.1091
  834YOPS   C2B11150   7.190  16.711   6.482 -0.3059 -0.1203  0.0229
  834YOPS   D3B11151   7.348  16.397   6.697 -0.1793 -0.0658 -0.1700
  834YOPS   C4B11152   7.635  16.471   6.963 -0.0199 -0.1856 -0.0324
  835YOPS   CNO11153   2.512   1.024   5.710 -0.1402 -0.0734  0.1859
  835YOPS   PO411154   2.338   1.427   5.618 -0.0840 -0.1534  0.2372
  835YOPS   GL111155   2.270   1.467   6.080 -0.2988  0.0405 -0.0162
  835YOPS   GL211156   2.601   1.341   6.066  0.1263  0.0333 -0.2126
  835YOPS   C1A11157   2.033   1.544   6.567 -0.0002 -0.1569  0.1378
  835YOPS   D2A11158   1.947   1.673   6.993 -0.1413 -0.0058 -0.1516
  835YOPS   C3A11159   2.018   1.567   7.363  0.1646  0.0657  0.1866
  835YOPS   C4A11160   2.258   1.510   7.627 -0.1717  0.2273  0.3660
  835YOPS   C1B11161   2.525   1.261   6.481  0.0875  0.0345  0.2977
  835YOPS   C2B11162   2.667   0.959   6.728 -0.0227 -0.0089  0.3001
  835YOPS   D3B11163   2.839   0.580   6.950  0.1201  0.1827 -0.0479
  835YOPS   C4B11164   2.913   0.337   7.332 -0.0946 -0.1355 -0.1179
  836YOPS   CNO11165   4.174   7.790   5.351 -0.1040 -0.3304 -0.2269
  836YOPS   PO411166   4.064   7.878   5.874  0.5322 -0.0667 -0.0799
  836YOPS   GL111167   4.011   7.640   6.247  0.0275 -0.0330 -0.1451
  836YOPS   GL211168   4.186   7.382   6.274 -0.2474 -0.0583  0.3553
  836YOPS   C1A11169   3.856   7.706   6.626 -0.1217  0.0774  0.2685
  836YOPS   D2A11170   3.787   7.704   6.983  0.0585  0.0076 -0.3282
  836YOPS   C3A11171   3.913   7.850   7.428 -0.0894  0.2079 -0.1667
  836YOPS   C4A11172   3.721   7.723   7.726 -0.1469  0.1308  0.1033
  836YOPS   C1B11173   4.405   7.176   6.530 -0.1473 -0.0391 -0.0641
  836YOPS   C2B11174   4.674   6.926   6.830  0.1859 -0.0941  0.2154
  836YOPS   D3B11175   4.801   6.561   7.061  0.0733 -0.0358  0.0598
  836YOPS   C4B11176   4.776   6.570   7.554  0.0705  0.1952 -0.1368
  837YOPS   CNO11177   8.904   4.896   6.103 -0.4032 -0.1754 -0.0805
  837YOPS   PO411178   9.263   4.715   6.100 -0.1062 -0.1167 -0.0439
  837YOPS   GL111179   9.156   4.743   6.538 -0.2879 -0.2618  0.0666
  837YOPS   GL211180   8.879   5.076   6.551 -0.2201  0.1423 -0.1669
  837YOPS   C1A11181   9.029   4.846   6.954  0.0091  0.3256  0.0892
  837YOPS   D2A11182   8.831   4.938   7.331  0.1480  0.0574  0.0355
  837YOPS   C3A11183   8.478   4.825   7.539 -0.3011 -0.0568 -0.0655
  837YOPS   C4A11184   8.222   5.134   7.733  0.0593  0.0055  0.1687
  837YOPS   C1B11185   8.644   5.113   6.907 -0.1282 -0.2435  0.0614
  837YOPS   C2B11186   8.303   4.921   7.125 -0.4007  0.1773 -0.0387
  837YOPS   D3B11187   7.914   5.028   7.222  0.2385 -0.2692  0.3318
  837YOPS   C4B11188   7.529   4.854   6.984 -0.0559  0.0917 -0.1745
  838YOPS   CNO11189  11.456   2.775   5.315  0.0569  0.3520 -0.0076
  838YOPS   PO411190  11.349   2.866   5.730  0.2732  0.3325 -0.0730
  838YOPS   GL111191  11.272   3.024   6.086  0.2415 -0.2147 -0.0830
  838YOPS   GL211192  11.241   3.418   6.028 -0.1877  0.1462  0.2281
  838YOPS   C1A11193  11.369   3.132   6.506 -0.4883  0.1207  0.1893
  838YOPS   D2A11194  11.490   3.082   6.942  0.2152 -0.3098  0.1592
  838YOPS   C3A11195  11.781   3.117   7.344  0.0102  0.0425 -0.2103
  838YOPS   C4A11196  11.721   2.993   7.736 -0.1518 -0.2636  0.2002
  838YOPS   C1B11197  10.899   3.290   6.413  0.2320  0.2928 -0.1488
  838YOPS   C2B11198  11.028   3.287   6.843  0.2366 -0.2716 -0.0395
  838YOPS   D3B11199  10.941   3.329   7.300  0.1105  0.0067  0.1425
  838YOPS   C4B11200  11.340   3.454   7.412  0.0191 -0.0604  0.5181
  839YOPS   CNO11201   5.877  14.591   5.890 -0.2600  0.1735  0.3623
  839YOPS   PO411202   5.858  15.025   5.869  0.0560 -0.2973  0.1688
  839YOPS   GL111203   5.885  15.428   6.226  0.0643  0.0230  0.0682
  839YOPS   GL211204   5.595  15.313   6.216  0.3450  0.1476 -0.2456
  839YOPS   C1A11205   5.824  15.581   6.692  0.4086 -0.1483 -0.1278
  839YOPS   D2A11206   6.011  15.633   7.075  0.0143 -0.1042  0.1803
  839YOPS   C3A11207   6.135  15.270   7.393 -0.0631  0.0974 -0.3581
  839YOPS   C4A11208   6.561  15.187   7.439 -0.1272  0.0280 -0.0637
  839YOPS   C1B11209   5.338  15.535   6.614 -0.0566  0.1281 -0.0891
  839YOPS   C2B11210   5.430  15.703   6.981 -0.2506 -0.1539  0.0348
  839YOPS   D3B11211   5.705  15.814   7.418 -0.0853 -0.0646  0.1644
  839YOPS   C4B11212   6.058  15.760   7.641  0.0794 -0.2433  0.0353
  840YOPS   CNO11213  15.087   3.966   5.502  0.0310 -0.4479  0.1447
  840YOPS   PO411214  15.365   3.818   5.751  0.2818 -0.1266 -0.2653
  840YOPS   GL111215  15.507   3.931   6.127  0.3587  0.0525 -0.0390
  840YOPS   GL211216  15.328   4.114   6.262  0.2142  0.3182 -0.0610
  840YOPS   C1A11217  15.820   4.124   6.353 -0.3255 -0.0887  0.0532
  840YOPS   D2A11218  15.760   4.547   6.667  0.0852  0.1650 -0.0710
  840YOPS   C3A11219  15.683   4.749   7.088  0.0418  0.0639  0.4079
  840YOPS   C4A11220  15.797   5.093   7.280  0.0405  0.2021  0.0540
  840YOPS   C1B11221  15.373   4.176   6.641  0.1073 -0.0679  0.5157
  840YOPS   C2B11222  15.461   4.227   7.111 -0.3806 -0.1315 -0.2693
  840YOPS   D3B11223  15.390   4.024   7.504 -0.2648 -0.0360 -0.0923
  840YOPS   C4B11224  15.551   3.738   7.787  0.0931 -0.0467  0.2129
  841YOPS   CNO11225   3.254  18.250   5.639  0.0617 -0.3015 -0.2691
  841YOPS   PO411226   3.306  18.274   6.084 -0.0536  0.0857 -0.0882
  841YOPS   GL111227   3.617  18.360   6.267 -0.0605  0.2936 -0.2678
  841YOPS   GL211228   3.529  18.463   6.570 -0.0762 -0.2744 -0.0265
  841YOPS   C1A11229   4.019  18.390   6.461 -0.3990 -0.4061  0.1133
  841YOPS   D2A11230   4.477  18.388   6.385  0.1055 -0.0281  0.0582
  841YOPS   C3A11231   4.769  18.398   6.791  0.0898  0.1254 -0.0694
  841YOPS   C4A11232   4.759  17.949   7.012  0.0404  0.0065 -0.0195
  841YOPS   C1B11233   3.758  18.416   6.915  0.0148  0.1888  0.3095
  841YOPS   C2B11234   3.770  18.398   7.355 -0.0102  0.2421 -0.1488
  841YOPS   D3B11235   3.718  18.303   7.785  0.0546 -0.0992 -0.0499
  841YOPS   C4B11236   3.550  17.909   7.878 -0.1074  0.1184 -0.3524
  842POPE   NH311237   3.171  13.666   6.123  0.0682  0.0214  0.2199
  842POPE   PO411238   2.717  13.577   5.954 -0.1307  0.2160 -0.0755
  842POPE   GL111239   2.312  13.641   6.329  0.0409 -0.0898  0.0267
  842POPE   GL211240   2.042  13.837   6.252  0.1315  0.1930 -0.1304
  842POPE   C1A11241   2.297  13.665   6.697 -0.0512  0.0184  0.3154
  842POPE   D2A11242   2.405  13.570   7.198  0.0834 -0.1169 -0.0719
  842POPE   C3A11243   2.047  13.468   7.581  0.2313  0.3742  0.0684
  842POPE   C4A11244   2.014  13.253   8.025  0.1131 -0.3919  0.1276
  842POPE   C1B11245   2.112  14.272   6.453  0.0734  0.3136 -0.3595
  842POPE   C2B11246   2.116  14.346   6.828  0.6504  0.0263 -0.0678
  842POPE   C3B11247   2.079  14.553   7.236 -0.1444 -0.1021  0.1128
  842POPE   C4B11248   2.105  14.930   7.417  0.4204  0.0416 -0.2127
  843POPE   NH311249  12.393  18.303   5.450  0.0699 -0.0567  0.2206
  843POPE   PO411250  12.842  18.417   5.493  0.0617 -0.2173 -0.1348
  843POPE   GL111251  12.823  18.189   5.878  0.1032 -0.0614  0.2379
  843POPE   GL211252  12.472  18.082   5.889  0.1072  0.1061  0.2290
  843POPE   C1A11253  12.788  18.220   6.293 -0.0400 -0.1045 -0.2166
  843POPE   D2A11254  12.509  18.171   6.657 -0.1937  0.1217 -0.2727
  843POPE   C3A11255  12.683  18.357   7.029  0.2290  0.0184 -0.2208
  843POPE   C4A11256  12.664  18.772   7.274 -0.0646 -0.1506 -0.1753
  843POPE   C1B11257  12.334  17.958   6.281  0.3383  0.0793  0.2101
  843POPE   C2B11258  12.050  17.805   6.667 -0.0273  0.3345  0.1222
  843POPE   C3B11259  11.992  17.807   7.080 -0.1101  0.1259  0.0560
  843POPE   C4B11260  11.915  17.738   7.437  0.1357 -0.2197  0.2322
  844POPE   NH311261  12.123  17.246   5.421 -0.1424 -0.0127 -0.0112
  844POPE   PO411262  12.220  17.797   5.437 -0.0021  0.0226 -0.3443
  844POPE   GL111263  11.953  17.976   5.793 -0.0799 -0.0128 -0.1926
  844POPE   GL211264  11.948  17.770   6.091  0.0687 -0.4164  0.0728
  844POPE   C1A11265  11.578  18.185   5.944 -0.0275 -0.1090  0.1134
  844POPE   D2A11266  11.402  18.374   6.292  0.3005  0.1632  0.0940
  844POPE   C3A11267  11.523  18.481   6.695 -0.1092 -0.0087 -0.2423
  844POPE   C4A11268  11.451  18.579   7.186 -0.1447  0.1123  0.0776
  844POPE   C1B11269  11.814  17.501   6.355  0.0600  0.0231  0.0306
  844POPE   C2B11270  11.717  17.498   6.833  0.0722 -0.3593  0.3393
  844POPE   C3B11271  11.585  17.464   7.203 -0.1139  0.0117 -0.0792
  844POPE   C4B11272  11.370  17.588   7.568 -0.0919  0.1067 -0.0270
  845POPE   NH311273  15.586  14.997   6.061  0.0278  0.0113 -0.2914
  845POPE   PO411274  15.208  15.264   6.047  0.0112  0.3568  0.1961
  845POPE   GL111275  15.217  15.225   6.466 -0.0553 -0.0173 -0.2542
  845POPE   GL211276  15.542  15.361   6.506  0.2325  0.0608 -0.0205
  845POPE   C1A11277  15.409  15.104   6.983  0.0515 -0.1935 -0.0167
  845POPE   D2A11278  15.628  15.311   7.382 -0.1200 -0.0644  0.0428
  845POPE   C3A11279  15.573  15.068   7.598 -0.0922 -0.3954 -0.2630
  845POPE   C4A11280  15.743  14.877   8.075 -0.0978  0.2411 -0.1908
  845POPE   C1B11281  15.863  15.167   6.832  0.2851  0.0826 -0.0964
  845POPE   C2B11282  16.065  15.081   7.203  0.0060  0.1130 -0.0200
  845POPE   C3B11283  16.333  14.924   7.332  0.2631  0.2192 -0.0832
  845POPE   C4B11284  16.679  14.789   7.116 -0.2084  0.0115 -0.2301
  846POPE   NH311285   3.008  13.230   6.309  0.1359 -0.2095  0.0021
  846POPE   PO411286   3.469  13.361   6.327  0.1482  0.0555 -0.0187
  846POPE   GL111287   3.432  13.418   6.735  0.0871  0.2780  0.2344
  846POPE   GL211288   3.148  13.230   6.846 -0.0999  0.2191  0.3588
  846POPE   C1A11289   3.415  13.701   7.167  0.0741  0.0762 -0.3079
  846POPE   D2A11290   3.475  14.148   7.222 -0.0423 -0.0257  0.0300
  846POPE   C3A11291   3.386  14.531   7.519 -0.1568  0.1213 -0.0709
  846POPE   C4A11292   3.003  14.674   7.720  0.2918 -0.2331  0.0039
  846POPE   C1B11293   3.226  13.219   7.318  0.2076 -0.1808 -0.3103
  846POPE   C2B11294   3.394  13.288   7.641 -0.4527 -0.2173 -0.0485
  846POPE   C3B11295   3.665  13.496   8.024  0.3990  0.0417  0.0740
  846POPE   C4B11296   3.645  13.440   8.417  0.0486 -0.0859 -0.2552
  847POPE   NH311297  17.672   8.910   6.198  0.3667  0.0548  0.0030
  847POPE   PO411298  17.893   8.613   6.122  0.0594 -0.0889  0.0188
  847POPE   GL111299  18.093   8.617   6.480 -0.3147  0.2015  0.0367
  847POPE   GL211300  18.408   8.550   6.482 -0.1883 -0.0291 -0.1863
  847POPE   C1A11301  18.179   8.988   6.759  0.0019 -0.1803  0.0113
  847POPE   D2A11302  18.276   9.087   7.141  0.0449 -0.0205  0.0703
  847POPE   C3A11303  18.370   8.936   7.540 -0.2787 -0.0318  0.3588
  847POPE   C4A11304  18.432   8.578   7.780 -0.0247 -0.2762  0.1164
  847POPE   C1B11305  18.439   8.575   6.912  0.1503  0.0217  0.1958
  847POPE   C2B11306  18.595   8.534   7.261  0.2163 -0.0251 -0.0515
  847POPE   C3B11307  18.939   8.478   7.674 -0.1519 -0.0588 -0.0103
  847POPE   C4B11308  18.940   8.867   7.879  0.4701  0.0638 -0.0303
  848POPE   NH311309   8.395  15.481   5.080  0.1600 -0.4405 -0.3644
  848POPE   PO411310   8.642  15.979   4.976 -0.0084 -0.1364 -0.0516
  848POPE   GL111311   8.800  15.890   5.327 -0.2079 -0.2217 -0.0891
  848POPE   GL211312   8.909  15.718   5.525  0.2100  0.0268 -0.1095
  848POPE   C1A11313   8.758  16.121   5.672  0.1049 -0.0109  0.2986
  848POPE   D2A11314   8.943  16.252   6.100 -0.2282 -0.1489  0.1220
  848POPE   C3A11315   8.599  16.367   6.393  0.1123 -0.0048  0.2766
  848POPE   C4A11316   8.263  16.481   6.703 -0.0009 -0.2441 -0.0588
  848POPE   C1B11317   9.122  15.824   5.910 -0.1991  0.1810 -0.2135
  848POPE   C2B11318   9.234  15.913   6.319  0.1658  0.1406  0.2790
  848POPE   C3B11319   9.022  16.094   6.671  0.2202 -0.1443  0.3228
  848POPE   C4B11320   9.261  16.275   7.053 -0.2076 -0.0240  0.0947
  849POPE   NH311321  11.904   7.086   5.610  0.3170  0.1813 -0.0854
  849POPE   PO411322  12.174   7.409   5.806  0.2072  0.0648  0.4437
  849POPE   GL111323  12.029   7.111   6.147 -0.1433  0.0970  0.1899
  849POPE   GL211324  11.819   6.877   6.091  0.0281 -0.1376 -0.1845
  849POPE   C1A11325  12.173   7.025   6.517  0.3323  0.0452  0.0348
  849POPE   D2A11326  12.090   6.975   6.944  0.2059  0.2014 -0.1519
  849POPE   C3A11327  12.346   6.974   7.243 -0.1097 -0.2595 -0.1535
  849POPE   C4A11328  12.719   6.801   7.232 -0.0916  0.1646  0.0092
  849POPE   C1B11329  11.652   6.776   6.474  0.1533  0.2721  0.0809
  849POPE   C2B11330  11.570   6.895   6.801 -0.1848 -0.0217  0.2057
  849POPE   C3B11331  11.674   6.965   7.293  0.1628 -0.1893  0.0761
  849POPE   C4B11332  11.544   7.090   7.753  0.1059  0.1285  0.0513
  850POPE   NH311333  14.699  10.966   5.525 -0.3557 -0.0529  0.0384
  850POPE   PO411334  15.104  11.243   5.667  0.1503  0.0253 -0.0449
  850POPE   GL111335  15.130  11.209   6.126 -0.0817 -0.2810 -0.1185
  850POPE   GL211336  15.290  11.573   6.169 -0.0473 -0.3179  0.1903
  850POPE   C1A11337  15.118  10.857   6.460  0.0188  0.3403  0.5233
  850POPE   D2A11338  14.882  10.644   6.736  0.0962  0.2132  0.1542
  850POPE   C3A11339  14.910  10.701   7.225 -0.1576  0.1941 -0.0207
  850POPE   C4A11340  15.181  10.651   7.578 -0.1559  0.0340 -0.2003
  850POPE   C1B11341  15.303  11.938   6.379  0.1650  0.0093 -0.1403
  850POPE   C2B11342  15.424  12.027   6.756  0.2059 -0.0435  0.0425
  850POPE   C3B11343  15.541  12.108   7.169 -0.1002 -0.0306  0.0360
  850POPE   C4B11344  15.288  12.163   7.512 -0.1553  0.1008  0.1201
  851POPE   NH311345   1.287   0.396   5.958 -0.2790  0.0013  0.2103
  851POPE   PO411346   1.004   0.096   5.951  0.0535 -0.1698 -0.1782
  851POPE   GL111347   0.848   0.291   6.379 -0.1238 -0.1843  0.1089
  851POPE   GL211348   0.750   0.584   6.469  0.2602  0.1750 -0.0403
  851POPE   C1A11349   0.728   0.226   6.902  0.0266 -0.4463  0.4233
  851POPE   D2A11350   0.547   0.030   7.344 -0.1589  0.0288 -0.0353
  851POPE   C3A11351   0.418   0.020   7.816 -0.0179 -0.0795  0.2277
  851POPE   C4A11352   0.125   0.095   7.919  0.2697  0.1804 -0.0236
  851POPE   C1B11353   0.977   0.659   6.859  0.2257  0.3206  0.1567
  851POPE   C2B11354   0.948   0.344   7.297 -0.1055 -0.1814  0.0539
  851POPE   C3B11355   0.855   0.189   7.717 -0.3858 -0.0868  0.1034
  851POPE   C4B11356   0.672   0.351   8.085 -0.1468  0.3259  0.1154
  852POPE   NH311357  16.495  11.996   5.614 -0.3016 -0.0839 -0.1580
  852POPE   PO411358  16.114  11.850   5.590 -0.2516 -0.2379  0.0120
  852POPE   GL111359  16.227  11.823   5.986  0.0719  0.2459  0.0795
  852POPE   GL211360  16.232  11.537   6.180  0.1303 -0.4397 -0.2125
  852POPE   C1A11361  16.344  11.998   6.413 -0.0956  0.2560  0.1002
  852POPE   D2A11362  16.389  12.071   6.884 -0.1320 -0.3542 -0.3549
  852POPE   C3A11363  16.081  12.080   7.213  0.3635 -0.0726  0.2709
  852POPE   C4A11364  15.858  12.098   7.572 -0.2034  0.0671  0.1931
  852POPE   C1B11365  16.394  11.414   6.509  0.1024 -0.0048  0.2518
  852POPE   C2B11366  16.570  11.546   6.913  0.2919  0.1199  0.0541
  852POPE   C3B11367  16.464  11.749   7.317  0.0255 -0.1318 -0.1457
  852POPE   C4B11368  16.344  12.040   7.684 -0.1817 -0.2799  0.3402
  853POPE   NH311369   9.429  14.089   4.995 -0.2485 -0.0960  0.5056
  853POPE   PO411370   9.776  13.876   4.977  0.0337  0.1974  0.2106
  853POPE   GL111371   9.811  14.151   5.371 -0.1787  0.1679  0.1150
  853POPE   GL211372   9.858  13.885   5.649 -0.1287  0.1013 -0.0498
  853POPE   C1A11373   9.825  14.463   5.720 -0.0655 -0.0030 -0.0014
  853POPE   D2A11374   9.873  14.285   6.152 -0.2728  0.2716  0.0506
  853POPE   C3A11375   9.719  14.441   6.564 -0.2156 -0.3038 -0.0998
  853POPE   C4A11376   9.768  14.415   6.989  0.2302  0.2064 -0.2496
  853POPE   C1B11377  10.156  14.049   5.829 -0.1730 -0.0277 -0.2712
  853POPE   C2B11378  10.264  13.985   6.244 -0.5868 -0.1287  0.0791
  853POPE   C3B11379  10.623  14.139   6.594  0.2103  0.1744 -0.0396
  853POPE   C4B11380  10.678  14.230   7.005  0.1471  0.0384 -0.2252
  854POPE   NH311381  18.048  14.499   6.456 -0.0278 -0.0148  0.2782
  854POPE   PO411382  18.138  14.837   6.145  0.0008 -0.3455 -0.0231
  854POPE   GL111383  18.188  15.084   6.515  0.2130  0.3525  0.1111
  854POPE   GL211384  18.283  14.888   6.757  0.1879 -0.2207  0.2985
  854POPE   C1A11385  18.130  15.331   6.954 -0.3056 -0.0058  0.0099
  854POPE   D2A11386  18.098  15.365   7.389  0.2747 -0.0196  0.0829
  854POPE   C3A11387  18.165  15.255   7.848  0.1489  0.2192  0.0177
  854POPE   C4A11388  17.908  15.382   8.212  0.0724 -0.0732 -0.0148
  854POPE   C1B11389  18.273  14.773   7.200 -0.0700  0.0583  0.3030
  854POPE   C2B11390  18.190  14.880   7.548  0.0290  0.1115 -0.0591
  854POPE   C3B11391  18.303  14.520   7.907  0.3289 -0.0307 -0.1458
  854POPE   C4B11392  18.390  14.225   8.305  0.0242 -0.0892 -0.1005
  855POPE   NH311393  14.978  14.253   5.742 -0.2234  0.4257 -0.1348
  855POPE   PO411394  14.913  13.747   5.676 -0.2687  0.1685  0.1887
  855POPE   GL111395  14.834  13.831   6.098 -0.1185 -0.3346  0.0556
  855POPE   GL211396  14.810  14.192   6.170  0.0099 -0.0492  0.1241
  855POPE   C1A11397  14.960  13.863   6.534 -0.0176 -0.0079 -0.0519
  855POPE   D2A11398  14.962  13.578   6.891 -0.3215  0.0614  0.0022
  855POPE   C3A11399  14.751  13.385   7.287  0.1142  0.2071 -0.0162
  855POPE   C4A11400  14.563  13.496   7.586 -0.0345 -0.4935  0.0625
  855POPE   C1B11401  15.076  14.408   6.406  0.0785 -0.1225 -0.5816
  855POPE   C2B11402  15.267  14.221   6.680 -0.1013 -0.2579  0.1231
  855POPE   C3B11403  15.373  14.164   7.109  0.1855 -0.2718 -0.1786
  855POPE   C4B11404  15.337  14.115   7.564 -0.0740  0.1436  0.1187
  856POPE   NH311405   8.077   5.995   5.706  0.1902 -0.0057  0.5020
  856POPE   PO411406   8.020   6.361   5.982  0.3260  0.3775  0.4172
  856POPE   GL111407   7.765   6.537   6.386 -0.4241  0.0911  0.0600
  856POPE   GL211408   8.030   6.841   6.430  0.2578 -0.2348  0.1425
  856POPE   C1A11409   7.852   6.584   6.789  0.1680  0.1266  0.0023
  856POPE   D2A11410   8.195   6.554   7.132  0.3075 -0.0511  0.0681
  856POPE   C3A11411   8.186   6.537   7.647  0.1485 -0.3707 -0.5280
  856POPE   C4A11412   8.504   6.297   7.890  0.2407  0.2941 -0.0344
  856POPE   C1B11413   8.322   6.904   6.796  0.0494  0.2240  0.5428
  856POPE   C2B11414   8.463   6.975   7.159  0.2591  0.1680 -0.2311
  856POPE   C3B11415   8.488   6.933   7.586  0.1885 -0.0927 -0.1348
  856POPE   C4B11416   8.428   6.776   7.990  0.0424  0.0235  0.0602
  857POPE   NH311417  10.634  11.945   5.447  0.0749  0.1645 -0.1915
  857POPE   PO411418  10.335  12.227   5.389  0.2556  0.1002 -0.2104
  857POPE   GL111419  10.460  12.360   5.754  0.0647  0.1429  0.2038
  857POPE   GL211420  10.800  12.566   5.708 -0.0468 -0.0363 -0.0200
  857POPE   C1A11421  10.477  12.691   6.033 -0.0266  0.3893  0.2599
  857POPE   D2A11422  10.652  12.818   6.413 -0.1550 -0.1281  0.0562
  857POPE   C3A11423  10.740  13.051   6.747  0.0454  0.1439 -0.2842
  857POPE   C4A11424  10.762  13.295   7.208  0.3092 -0.0360  0.3236
  857POPE   C1B11425  10.938  12.852   6.036 -0.3429  0.1013 -0.5135
  857POPE   C2B11426  11.124  13.099   6.402  0.2327 -0.1085  0.0686
  857POPE   C3B11427  11.035  13.501   6.666 -0.2282 -0.2257 -0.1744
  857POPE   C4B11428  11.099  13.989   6.977 -0.3263  0.3432 -0.2152
  858POPE   NH311429  11.751  11.978   5.913 -0.0115 -0.1476 -0.0285
  858POPE   PO411430  12.183  12.268   6.044 -0.1328 -0.1076  0.2687
  858POPE   GL111431  12.206  12.213   6.424  0.0000  0.1145 -0.2225
  858POPE   GL211432  12.074  11.890   6.390  0.1708  0.0755  0.1353
  858POPE   C1A11433  11.780  12.170   6.768  0.1390 -0.3300  0.0234
  858POPE   D2A11434  11.776  12.193   7.187 -0.1693  0.2813 -0.3642
  858POPE   C3A11435  11.965  12.589   7.341  0.1990  0.1210 -0.0440
  858POPE   C4A11436  12.239  12.672   7.738  0.1144 -0.0021  0.1495
  858POPE   C1B11437  11.759  11.769   6.528 -0.0052  0.0445  0.0734
  858POPE   C2B11438  11.643  11.554   6.924  0.0068  0.1530 -0.1252
  858POPE   C3B11439  11.548  11.255   7.344  0.0529  0.0666 -0.2106
  858POPE   C4B11440  11.557  11.482   7.758 -0.2160  0.4565  0.1880
  859POPE   NH311441   3.912  13.333   6.018  0.3158  0.0796 -0.1628
  859POPE   PO411442   3.899  12.880   5.943 -0.0974 -0.2805 -0.0997
  859POPE   GL111443   3.957  12.545   6.189  0.1906  0.2352 -0.0630
  859POPE   GL211444   3.746  12.511   6.406 -0.2584 -0.0904 -0.1935
  859POPE   C1A11445   4.321  12.519   6.460  0.2167 -0.2336  0.2502
  859POPE   D2A11446   4.703  12.558   6.753 -0.0862 -0.0697  0.1319
  859POPE   C3A11447   4.824  12.699   7.133 -0.0862 -0.0968  0.0063
  859POPE   C4A11448   5.110  12.870   7.363 -0.2557 -0.0334  0.1154
  859POPE   C1B11449   3.973  12.424   6.786 -0.0749  0.2395  0.0635
  859POPE   C2B11450   4.292  12.647   7.067 -0.0198 -0.2983  0.0574
  859POPE   C3B11451   4.467  12.655   7.467 -0.2811 -0.1432 -0.2324
  859POPE   C4B11452   4.648  13.088   7.545  0.1146 -0.2285  0.0422
  860POPE   NH311453  14.241  12.715   5.434  0.0798 -0.2178  0.1990
  860POPE   PO411454  14.477  12.962   5.612 -0.0177  0.3147 -0.1280
  860POPE   GL111455  14.311  12.781   5.941 -0.0315  0.3576  0.1931
  860POPE   GL211456  14.224  13.122   6.016  0.1349 -0.1824 -0.1468
  860POPE   C1A11457  14.367  12.765   6.313 -0.0439 -0.1005  0.1026
  860POPE   D2A11458  14.463  12.748   6.737  0.2106 -0.0511  0.1344
  860POPE   C3A11459  14.161  12.999   6.932 -0.0437  0.1805 -0.0318
  860POPE   C4A11460  14.279  13.296   7.196  0.2412 -0.1523 -0.2572
  860POPE   C1B11461  14.235  13.240   6.418  0.0216 -0.0641  0.0390
  860POPE   C2B11462  14.047  13.481   6.766 -0.0515 -0.1039 -0.2217
  860POPE   C3B11463  13.850  13.641   7.244  0.0268  0.0582  0.0087
  860POPE   C4B11464  13.541  13.522   7.565 -0.0738 -0.0517 -0.1235
  861POPE   NH311465   4.035   9.773   5.822  0.0738 -0.0161 -0.2131
  861POPE   PO411466   4.407   9.473   5.797 -0.2404 -0.1562  0.0558
  861POPE   GL111467   4.431   9.658   6.196 -0.0352 -0.2197 -0.2825
  861POPE   GL211468   4.154   9.403   6.211 -0.0388  0.1280 -0.0967
  861POPE   C1A11469   4.751   9.705   6.440 -0.1999  0.1901  0.3756
  861POPE   D2A11470   4.763   9.483   6.852  0.0526 -0.1497 -0.3080
  861POPE   C3A11471   4.957   9.608   7.257  0.3208  0.2855 -0.1002
  861POPE   C4A11472   4.824   9.580   7.630  0.2680  0.2754  0.0593
  861POPE   C1B11473   4.366   9.424   6.593  0.6128 -0.1607 -0.0577
  861POPE   C2B11474   4.254   9.407   7.070  0.1011  0.3715  0.0214
  861POPE   C3B11475   4.447   9.245   7.384 -0.2428 -0.1109 -0.0586
  861POPE   C4B11476   4.616   9.165   7.777 -0.0559 -0.0598  0.1253
  862POPE   NH311477  11.853   2.678   5.828 -0.1368 -0.4779 -0.2670
  862POPE   PO411478  12.229   2.823   5.956  0.1599  0.0196 -0.0408
  862POPE   GL111479  12.383   2.822   6.280  0.1114  0.1332  0.0564
  862POPE   GL211480  12.687   2.925   6.254  0.2298 -0.0444 -0.3130
  862POPE   C1A11481  12.484   2.794   6.796  0.5884  0.0950  0.0136
  862POPE   D2A11482  12.479   2.865   7.204  0.0875 -0.2400 -0.0084
  862POPE   C3A11483  12.338   3.158   7.463 -0.0604 -0.1005  0.0143
  862POPE   C4A11484  12.394   3.097   7.840 -0.2364 -0.0293 -0.0845
  862POPE   C1B11485  12.906   3.085   6.686  0.0738 -0.0446  0.0120
  862POPE   C2B11486  13.148   3.064   7.001 -0.1163 -0.1667  0.2002
  862POPE   C3B11487  13.399   3.310   7.262  0.0071 -0.3276 -0.1290
  862POPE   C4B11488  13.553   3.600   7.592  0.2671  0.0307  0.2195
  863POPE   NH311489   2.345  12.724   6.297 -0.2578 -0.0226 -0.3360
  863POPE   PO411490   2.768  12.728   6.044  0.0719 -0.0430  0.0652
  863POPE   GL111491   2.862  12.827   6.595  0.1449 -0.1750 -0.0896
  863POPE   GL211492   2.643  13.098   6.731  0.2769  0.0357 -0.3439
  863POPE   C1A11493   3.035  12.775   6.973 -0.2031  0.4179  0.1767
  863POPE   D2A11494   2.946  12.870   7.503 -0.0400  0.2193  0.2021
  863POPE   C3A11495   3.319  12.717   7.689 -0.0370  0.3420  0.2333
  863POPE   C4A11496   3.556  12.538   7.924 -0.2124 -0.4426  0.0668
  863POPE   C1B11497   2.740  13.166   7.138  0.2043 -0.0221  0.0418
  863POPE   C2B11498   2.738  13.319   7.513 -0.1663  0.1098 -0.4561
  863POPE   C3B11499   2.629  13.534   7.773 -0.2601  0.0076  0.0798
  863POPE   C4B11500   2.514  13.904   7.903 -0.1207 -0.6288 -0.3376
  864POPE   NH311501  11.044   1.612   5.602  0.1175  0.0463  0.3404
  864POPE   PO411502  10.636   1.770   5.739 -0.0472  0.3793 -0.0613
  864POPE   GL111503  10.672   1.810   6.149 -0.1170  0.1176  0.0754
  864POPE   GL211504  10.974   1.586   6.094  0.3349  0.0343  0.1461
  864POPE   C1A11505  10.581   1.776   6.646  0.2160  0.4085 -0.3285
  864POPE   D2A11506  10.616   1.889   7.010 -0.1295  0.2545 -0.0413
  864POPE   C3A11507  10.448   1.659   7.212  0.1437  0.1030 -0.3444
  864POPE   C4A11508  10.540   1.298   7.615  0.0645  0.0549  0.3688
  864POPE   C1B11509  10.950   1.516   6.479  0.3908  0.1604 -0.0985
  864POPE   C2B11510  11.041   1.603   6.870  0.2317  0.3162 -0.1770
  864POPE   C3B11511  11.002   1.693   7.290 -0.0289  0.2414  0.1042
  864POPE   C4B11512  10.711   2.021   7.567  0.2013  0.0949  0.1673
  865POPE   NH311513  10.521   8.019   5.656 -0.2228  0.0881  0.1190
  865POPE   PO411514  10.184   7.782   5.620 -0.3107 -0.0853 -0.1327
  865POPE   GL111515  10.129   7.976   5.974 -0.0020 -0.3026  0.2756
  865POPE   GL211516  10.342   8.141   6.109  0.0634 -0.3158  0.4515
  865POPE   C1A11517   9.744   8.083   6.133 -0.2047  0.0538 -0.0933
  865POPE   D2A11518   9.605   8.203   6.487  0.0057 -0.0440 -0.1843
  865POPE   C3A11519   9.874   8.179   6.881 -0.1189  0.2468 -0.3133
  865POPE   C4A11520  10.168   8.266   7.194 -0.1619 -0.0210  0.0071
  865POPE   C1B11521  10.136   8.155   6.499  0.0089 -0.0076 -0.0237
  865POPE   C2B11522  10.299   8.393   6.746  0.1839  0.0553  0.0288
  865POPE   C3B11523  10.285   8.774   7.004  0.0443 -0.1344 -0.0964
  865POPE   C4B11524  10.339   9.081   7.277 -0.1136 -0.3733 -0.2917
  866POPE   NH311525   9.569   4.914   5.755 -0.0945  0.0071 -0.0082
  866POPE   PO411526   9.971   4.753   5.928  0.1328  0.2712  0.1371
  866POPE   GL111527   9.781   5.044   6.210 -0.0495  0.2221  0.0063
  866POPE   GL211528   9.489   5.074   6.293 -0.0923 -0.1283 -0.0268
  866POPE   C1A11529   9.905   5.207   6.665  0.0725  0.3028 -0.2648
  866POPE   D2A11530  10.125   5.484   6.875  0.2446 -0.1486 -0.4217
  866POPE   C3A11531  10.401   5.387   7.213 -0.0940 -0.1455 -0.0105
  866POPE   C4A11532  10.628   5.481   7.637  0.2228  0.0036  0.0406
  866POPE   C1B11533   9.343   5.160   6.726  0.1556 -0.1942 -0.2610
  866POPE   C2B11534   9.170   5.332   7.048  0.1890  0.2830 -0.0867
  866POPE   C3B11535   9.194   5.224   7.478  0.2821 -0.1067  0.1396
  866POPE   C4B11536   9.281   4.775   7.626 -0.5547  0.0797  0.0818
  867POPE   NH311537  11.845   1.580   5.980  0.0855 -0.1110 -0.0079
  867POPE   PO411538  12.054   1.206   6.009  0.1746  0.1981 -0.1708
  867POPE   GL111539  12.103   1.401   6.385 -0.0908  0.0826 -0.0736
  867POPE   GL211540  12.333   1.530   6.434  0.0866  0.3741 -0.1201
  867POPE   C1A11541  12.014   1.500   6.823 -0.0088  0.1798  0.3137
  867POPE   D2A11542  11.914   1.351   7.273  0.2475 -0.1443  0.5934
  867POPE   C3A11543  11.919   1.547   7.628 -0.2998  0.2845  0.3238
  867POPE   C4A11544  12.225   1.583   8.017 -0.2434  0.0462 -0.2646
  867POPE   C1B11545  12.467   1.216   6.695 -0.0777 -0.3463  0.2058
  867POPE   C2B11546  12.391   0.992   7.104  0.0586  0.0459  0.0163
  867POPE   C3B11547  12.652   0.827   7.535  0.2091  0.0024  0.0572
  867POPE   C4B11548  12.757   1.071   7.835  0.5875 -0.0253  0.0108
  868POPE   NH311549  14.952   3.113   5.868  0.0023  0.1120  0.2933
  868POPE   PO411550  14.425   3.166   5.887  0.0857 -0.0090 -0.0101
  868POPE   GL111551  14.396   3.395   6.219  0.2688 -0.0244 -0.0117
  868POPE   GL211552  14.426   3.672   6.055  0.3410 -0.0459 -0.0491
  868POPE   C1A11553  14.155   3.491   6.590 -0.0049 -0.2389 -0.0032
  868POPE   D2A11554  14.200   3.701   7.070 -0.2478 -0.0032  0.1108
  868POPE   C3A11555  14.053   3.794   7.442 -0.1668 -0.0459 -0.0187
  868POPE   C4A11556  14.221   3.777   7.812 -0.4530 -0.0155  0.2615
  868POPE   C1B11557  14.536   3.923   6.313  0.2831 -0.1207 -0.1239
  868POPE   C2B11558  14.606   3.705   6.654  0.1035  0.2931  0.4202
  868POPE   C3B11559  14.675   3.872   7.067  0.6672  0.4285  0.0795
  868POPE   C4B11560  14.548   3.995   7.442  0.1494 -0.0592 -0.0937
  869POPE   NH311561   2.321   4.809   6.029 -0.3411 -0.1308 -0.0884
  869POPE   PO411562   2.688   4.589   5.893 -0.0380  0.1218 -0.3227
  869POPE   GL111563   2.670   4.619   6.369  0.4490  0.0814 -0.1492
  869POPE   GL211564   2.373   4.691   6.520 -0.0501 -0.1897  0.3855
  869POPE   C1A11565   2.766   4.775   6.778 -0.1603 -0.1090 -0.1712
  869POPE   D2A11566   2.586   4.805   7.149  0.0659  0.1137 -0.4805
  869POPE   C3A11567   2.623   5.155   7.366 -0.2664 -0.1121 -0.3304
  869POPE   C4A11568   2.371   5.446   7.758 -0.4283 -0.0291  0.1052
  869POPE   C1B11569   2.183   4.663   6.803 -0.1843  0.1959  0.0173
  869POPE   C2B11570   1.874   4.642   7.093 -0.0914 -0.0922  0.3785
  869POPE   C3B11571   1.698   4.643   7.563  0.1045 -0.0501  0.1891
  869POPE   C4B11572   1.237   4.651   7.677 -0.1239  0.1010 -0.1945
  870POPE   NH311573   1.531  16.639   6.145 -0.2463  0.1446  0.0360
  870POPE   PO411574   1.588  16.242   5.887 -0.2070 -0.0676 -0.0726
  870POPE   GL111575   1.620  16.136   6.339  0.1153  0.1156 -0.0875
  870POPE   GL211576   1.434  16.368   6.568 -0.0339 -0.0045 -0.0859
  870POPE   C1A11577   1.801  15.823   6.770 -0.1611 -0.1113  0.0952
  870POPE   D2A11578   1.714  15.739   7.183 -0.2216 -0.0961 -0.0586
  870POPE   C3A11579   1.848  15.587   7.573 -0.5029  0.2214 -0.0761
  870POPE   C4A11580   2.111  15.318   7.738 -0.0322 -0.2061 -0.1695
  870POPE   C1B11581   1.286  16.277   6.855  0.1520 -0.2367  0.1219
  870POPE   C2B11582   1.455  16.239   7.235  0.1415 -0.1554 -0.2599
  870POPE   C3B11583   1.751  16.076   7.623  0.1910 -0.3170 -0.0127
  870POPE   C4B11584   2.121  16.202   7.970  0.0543 -0.0981  0.0383
  871POPE   NH311585  10.011   9.789   5.351 -0.0150 -0.4068  0.1696
  871POPE   PO411586  10.450   9.742   5.202  0.1777  0.3038 -0.1095
  871POPE   GL111587  10.422   9.466   5.575  0.1073 -0.0384  0.1740
  871POPE   GL211588  10.122   9.565   5.766 -0.2028  0.1706 -0.0765
  871POPE   C1A11589  10.377   9.121   5.877 -0.0456 -0.0007 -0.1338
  871POPE   D2A11590  10.525   9.059   6.221 -0.0018 -0.2947 -0.1460
  871POPE   C3A11591  10.375   9.114   6.576 -0.1372 -0.0194 -0.0292
  871POPE   C4A11592  10.262   9.357   6.836 -0.0468  0.0226 -0.0557
  871POPE   C1B11593  10.030   9.432   6.202 -0.4754  0.1741 -0.1071
  871POPE   C2B11594   9.904   9.258   6.560  0.1337 -0.1014  0.0709
  871POPE   C3B11595   9.849   9.234   7.050 -0.0142  0.0522 -0.2084
  871POPE   C4B11596   9.636   9.154   7.472  0.0637 -0.0877 -0.0028
  872YOPE   NH311597   4.477   1.256   5.721 -0.2828  0.1621 -0.4731
  872YOPE   PO411598   4.689   0.882   5.604 -0.2992  0.1259  0.0220
  872YOPE   GL111599   4.715   0.970   6.034 -0.0052 -0.3998 -0.1624
  872YOPE   GL211600   5.012   0.974   6.187 -0.2236 -0.1724  0.4849
  872YOPE   C1A11601   4.603   0.898   6.408  0.1024  0.2315  0.1857
  872YOPE   D2A11602   4.651   0.883   6.919  0.1250  0.0036 -0.0403
  872YOPE   C3A11603   5.050   0.863   6.995 -0.0680 -0.0073  0.0992
  872YOPE   C4A11604   5.342   0.871   7.308  0.0104 -0.5144  0.3415
  872YOPE   C1B11605   4.990   0.664   6.557  0.0330  0.1617  0.0319
  872YOPE   C2B11606   5.048   0.363   6.825  0.4796  0.0842  0.1202
  872YOPE   D3B11607   5.123   0.382   7.340 -0.1643  0.1975  0.1834
  872YOPE   C4B11608   5.495   0.391   7.596  0.2509  0.0610  0.3713
  873YOPE   NH311609   6.428  11.213   5.940 -0.0238 -0.0119 -0.1309
  873YOPE   PO411610   6.113  11.524   5.969  0.1147  0.3688 -0.1007
  873YOPE   GL111611   6.221  11.343   6.375  0.0270  0.0212  0.0073
  873YOPE   GL211612   6.557  11.237   6.401  0.4333 -0.2367  0.0343
  873YOPE   C1A11613   6.323  11.486   6.822  0.1843 -0.1669 -0.1457
  873YOPE   D2A11614   6.338  11.405   7.326 -0.1236  0.3028 -0.2046
  873YOPE   C3A11615   6.426  11.618   7.612 -0.3117 -0.3649 -0.1122
  873YOPE   C4A11616   6.566  11.745   7.974  0.1242  0.4209 -0.3358
  873YOPE   C1B11617   6.685  11.134   6.770  0.1442 -0.0094  0.0057
  873YOPE   C2B11618   6.785  11.226   7.216 -0.3055  0.2585 -0.4786
  873YOPE   D3B11619   6.690  11.123   7.603 -0.0463  0.0556 -0.2016
  873YOPE   C4B11620   6.274  11.257   7.890  0.2997 -0.1455  0.2339
  874YOPE   NH311621  14.466   0.435   6.056 -0.3178  0.3164 -0.1472
  874YOPE   PO411622  14.242   0.807   6.188 -0.0007  0.0272 -0.5284
  874YOPE   GL111623  14.356   0.727   6.503 -0.1669 -0.0186  0.2474
  874YOPE   GL211624  14.301   0.374   6.607 -0.1297  0.1338 -0.0816
  874YOPE   C1A11625  14.315   0.969   6.894  0.0552  0.3675  0.0637
  874YOPE   D2A11626  14.117   1.336   6.913  0.2332 -0.0253 -0.1457
  874YOPE   C3A11627  13.809   1.243   7.187  0.0236 -0.0505  0.0865
  874YOPE   C4A11628  13.714   1.397   7.448 -0.2571 -0.3610  0.0537
  874YOPE   C1B11629  14.425   0.437   6.967  0.0008  0.0270 -0.4831
  874YOPE   C2B11630  14.426   0.524   7.431  0.1946 -0.2819 -0.1182
  874YOPE   D3B11631  14.540   0.430   7.808  0.4172 -0.2793  0.1547
  874YOPE   C4B11632  14.818   0.177   8.047 -0.2230  0.1494  0.1264
  875YOPE   NH311633  16.381   5.128   5.704 -0.2086  0.1898  0.2034
  875YOPE   PO411634  16.325   4.627   5.764  0.1023 -0.2588 -0.1357
  875YOPE   GL111635  16.186   4.316   6.015 -0.2440 -0.0699  0.0778
  875YOPE   GL211636  16.314   4.011   6.098  0.0031 -0.1204  0.0905
  875YOPE   C1A11637  16.255   4.402   6.515  0.1545  0.0574 -0.0827
  875YOPE   D2A11638  16.101   4.167   6.833 -0.1017  0.2043 -0.3024
  875YOPE   C3A11639  16.061   4.430   7.209  0.3383 -0.1352  0.0098
  875YOPE   C4A11640  15.998   4.661   7.530  0.1201  0.1240 -0.0915
  875YOPE   C1B11641  16.183   3.827   6.416 -0.3479  0.0166 -0.0410
  875YOPE   C2B11642  15.870   3.672   6.618 -0.0070 -0.1944 -0.1150
  875YOPE   D3B11643  15.673   3.842   6.902 -0.1408  0.4595  0.1257
  875YOPE   C4B11644  15.529   3.596   7.268  0.0016  0.0788  0.1584
  876YOPE   NH311645  18.178  15.356   6.063  0.1225 -0.0728  0.3030
  876YOPE   PO411646  18.576  15.244   6.181  0.0092  0.0287 -0.2255
  876YOPE   GL111647  18.476  15.606   6.480 -0.0961  0.2128  0.0308
  876YOPE   GL211648  18.213  15.550   6.564 -0.3331 -0.0077 -0.0900
  876YOPE   C1A11649  18.687  15.749   6.923  0.1873 -0.0915 -0.0933
  876YOPE   D2A11650  18.974  15.909   7.245 -0.0095 -0.1594 -0.0262
  876YOPE   C3A11651  18.833  16.002   7.618 -0.0208 -0.2108 -0.3159
  876YOPE   C4A11652  18.992  16.112   8.084  0.2192  0.2731  0.0945
  876YOPE   C1B11653  18.195  15.832   6.954 -0.1731  0.2849  0.2993
  876YOPE   C2B11654  18.311  15.793   7.412  0.0851 -0.1031 -0.1513
  876YOPE   D3B11655  18.425  15.677   7.841 -0.2792 -0.2138  0.2068
  876YOPE   C4B11656  18.685  15.714   8.114  0.1143 -0.1464 -0.4724
  877YOPE   NH311657  13.542   2.886   5.550  0.1287 -0.0284  0.4202
  877YOPE   PO411658  13.657   2.573   5.948 -0.0100  0.2327  0.2629
  877YOPE   GL111659  13.858   2.572   6.318 -0.1471 -0.0781  0.5064
  877YOPE   GL211660  14.163   2.605   6.359  0.0664  0.0089  0.1338
  877YOPE   C1A11661  14.129   2.154   6.530 -0.2069  0.0566  0.1478
  877YOPE   D2A11662  14.308   1.773   6.739  0.2078  0.0366 -0.1529
  877YOPE   C3A11663  14.274   1.646   7.261 -0.1112 -0.0952 -0.0721
  877YOPE   C4A11664  14.103   1.736   7.661 -0.0901 -0.2204 -0.2845
  877YOPE   C1B11665  14.076   2.585   6.754  0.1139 -0.0237 -0.2377
  877YOPE   C2B11666  13.947   2.819   7.179 -0.1511  0.0390  0.1836
  877YOPE   D3B11667  13.875   2.833   7.610 -0.0064 -0.1299 -0.1158
  877YOPE   C4B11668  14.075   2.785   8.023 -0.0230  0.1734 -0.0053
  878YOPE   NH311669   3.476   1.083   5.768  0.2717  0.2854 -0.3848
  878YOPE   PO411670   3.154   1.537   5.807  0.1299 -0.3344 -0.3345
  878YOPE   GL111671   3.256   1.610   6.078  0.1611  0.4734 -0.0749
  878YOPE   GL211672   2.970   1.630   6.259  0.1642 -0.0156  0.1198
  878YOPE   C1A11673   3.370   1.594   6.608  0.3053 -0.1235  0.0732
  878YOPE   D2A11674   3.402   1.382   6.958 -0.0367 -0.0468 -0.1882
  878YOPE   C3A11675   3.619   1.605   7.216  0.1903 -0.1507  0.3372
  878YOPE   C4A11676   3.715   1.734   7.639 -0.0440  0.1504  0.0781
  878YOPE   C1B11677   2.925   1.514   6.686  0.3180  0.0158 -0.0446
  878YOPE   C2B11678   2.926   1.742   7.020 -0.2968  0.2279  0.1263
  878YOPE   D3B11679   2.999   2.169   7.145  0.0061 -0.0064 -0.1673
  878YOPE   C4B11680   3.210   2.561   7.191 -0.1479  0.1155  0.0374
  879YOPE   NH311681  10.726   0.812   5.865  0.1899  0.3674  0.1507
  879YOPE   PO411682  10.998   1.165   5.854  0.2829 -0.0525  0.0797
  879YOPE   GL111683  11.182   1.058   6.269 -0.0735 -0.0378 -0.2009
  879YOPE   GL211684  10.998   0.751   6.326  0.0438  0.0037 -0.0914
  879YOPE   C1A11685  11.156   1.095   6.709 -0.1045  0.0780 -0.2196
  879YOPE   D2A11686  11.325   1.092   7.032 -0.1929 -0.3201 -0.0242
  879YOPE   C3A11687  11.670   0.880   7.226 -0.1812  0.0722 -0.3141
  879YOPE   C4A11688  11.894   0.879   7.631 -0.0083  0.0961  0.3323
  879YOPE   C1B11689  10.869   0.730   6.753  0.0761 -0.2990 -0.0655
  879YOPE   C2B11690  10.858   0.727   7.214  0.1484 -0.0050  0.2929
  879YOPE   D3B11691  10.546   0.577   7.478 -0.0718 -0.1248  0.0625
  879YOPE   C4B11692  10.206   0.528   7.636  0.0034  0.1294 -0.0102
  880YOPE   NH311693  10.201   3.174   6.159 -0.0161 -0.0237 -0.2202
  880YOPE   PO411694   9.798   3.329   6.016 -0.3277  0.0015 -0.0826
  880YOPE   GL111695   9.771   3.351   6.528  0.3055 -0.0895 -0.0921
  880YOPE   GL211696  10.029   3.133   6.722  0.0843 -0.0443  0.0551
  880YOPE   C1A11697  10.030   3.625   6.755  0.0306 -0.3282  0.0743
  880YOPE   D2A11698  10.258   3.990   6.993 -0.1824  0.2993 -0.2061
  880YOPE   C3A11699  10.344   3.887   7.510 -0.1319  0.1854 -0.5096
  880YOPE   C4A11700  10.207   4.205   7.873  0.1013 -0.0359  0.1901
  880YOPE   C1B11701   9.794   3.271   7.040 -0.0349  0.1072 -0.1234
  880YOPE   C2B11702   9.711   3.228   7.528 -0.1802  0.1403  0.0366
  880YOPE   D3B11703   9.267   3.303   7.722 -0.0161 -0.4052 -0.0139
  880YOPE   C4B11704   8.973   3.006   8.027 -0.1953 -0.1599 -0.1318
  881YOPE   NH311705   7.882  15.133   5.054 -0.2809  0.1677 -0.0537
  881YOPE   PO411706   7.992  15.422   5.361  0.0405  0.1329 -0.2268
  881YOPE   GL111707   7.970  15.676   5.674  0.2427 -0.1339  0.0050
  881YOPE   GL211708   7.716  15.985   5.719 -0.1752 -0.0089  0.0081
  881YOPE   C1A11709   8.094  15.683   6.111  0.1282  0.0648 -0.0606
  881YOPE   D2A11710   8.294  15.578   6.462 -0.0162  0.0933  0.1569
  881YOPE   C3A11711   8.076  15.723   6.740 -0.2009 -0.4374  0.1699
  881YOPE   C4A11712   8.092  16.094   6.952 -0.1306  0.4776 -0.0479
  881YOPE   C1B11713   7.763  16.085   6.095  0.1994  0.0168  0.2218
  881YOPE   C2B11714   7.697  16.113   6.588  0.1736 -0.2304  0.1633
  881YOPE   D3B11715   7.623  15.931   7.049  0.2033  0.1572  0.0379
  881YOPE   C4B11716   7.685  16.017   7.334  0.5049 -0.0565 -0.0952
  882YOPE   NH311717   2.214  13.469   5.862  0.2966 -0.0841  0.1258
  882YOPE   PO411718   1.919  13.249   5.937 -0.2874  0.1820  0.0406
  882YOPE   GL111719   2.029  13.159   6.271 -0.0984 -0.1099  0.2685
  882YOPE   GL211720   1.886  12.901   6.487  0.2007  0.0794 -0.1077
  882YOPE   C1A11721   2.128  13.175   6.810  0.3042 -0.0049 -0.2176
  882YOPE   D2A11722   2.124  13.091   7.233  0.2633 -0.2541  0.2068
  882YOPE   C3A11723   1.829  12.985   7.493  0.1376 -0.1603 -0.2688
  882YOPE   C4A11724   1.500  13.083   7.760  0.5934 -0.6255  0.0727
  882YOPE   C1B11725   1.865  12.632   6.830 -0.1387 -0.0238  0.1827
  882YOPE   C2B11726   1.897  12.628   7.168 -0.2523  0.2760  0.2804
  882YOPE   D3B11727   2.031  12.519   7.605  0.0126 -0.0029  0.2538
  882YOPE   C4B11728   1.886  12.793   7.941  0.0725  0.3664 -0.2717
  883YOPE   NH311729  14.164   2.755   5.909  0.2045 -0.1418  0.1619
  883YOPE   PO411730  14.014   3.076   5.562  0.3839 -0.0032 -0.2725
  883YOPE   GL111731  13.744   3.085   5.941 -0.5475 -0.0471 -0.0311
  883YOPE   GL211732  13.976   3.123   6.195 -0.2360 -0.1392  0.0559
  883YOPE   C1A11733  13.486   3.073   6.361  0.0197 -0.2465 -0.1973
  883YOPE   D2A11734  13.290   3.341   6.617  0.1324  0.0845 -0.2738
  883YOPE   C3A11735  13.432   3.623   6.819 -0.0839 -0.2399  0.2588
  883YOPE   C4A11736  13.621   3.829   7.150 -0.3226 -0.1094  0.1484
  883YOPE   C1B11737  13.967   2.997   6.600  0.0254 -0.1225 -0.1583
  883YOPE   C2B11738  13.534   2.819   6.852  0.0174  0.1085 -0.0573
  883YOPE   D3B11739  13.490   2.816   7.270  0.0749  0.0930 -0.1174
  883YOPE   C4B11740  13.279   3.007   7.675 -0.2192 -0.0975  0.0819
  884YOPE   NH311741  16.185   5.858   5.955  0.0224  0.1971  0.1847
  884YOPE   PO411742  16.125   5.432   6.006 -0.3238  0.1530 -0.1157
  884YOPE   GL111743  16.127   5.223   6.425  0.0502 -0.1532 -0.1947
  884YOPE   GL211744  16.088   4.834   6.383 -0.2384 -0.1530 -0.0058
  884YOPE   C1A11745  16.079   5.326   6.913  0.1014 -0.0691  0.2006
  884YOPE   D2A11746  16.201   5.477   7.401  0.0662  0.3286 -0.1375
  884YOPE   C3A11747  16.213   5.186   7.643  0.1810  0.5024  0.0028
  884YOPE   C4A11748  16.354   4.835   7.864 -0.0366 -0.1004 -0.2708
  884YOPE   C1B11749  16.181   4.783   6.876  0.0216  0.0386 -0.2757
  884YOPE   C2B11750  16.391   4.860   7.253 -0.2517 -0.2580 -0.2016
  884YOPE   D3B11751  16.533   4.491   7.558  0.0665  0.0291  0.1139
  884YOPE   C4B11752  16.824   4.356   7.908 -0.1088 -0.1156  0.1122
  885YOPE   NH311753  13.482   3.583   5.508  0.1229 -0.0447 -0.0898
  885YOPE   PO411754  13.542   3.920   5.649 -0.1008  0.0866  0.2648
  885YOPE   GL111755  13.629   3.802   5.972 -0.0448  0.0163 -0.0836
  885YOPE   GL211756  13.456   3.479   6.064 -0.2810 -0.3508 -0.1088
  885YOPE   C1A11757  13.332   3.848   6.369  0.2000  0.0023 -0.1146
  885YOPE   D2A11758  13.329   4.125   6.656  0.1459  0.1182  0.1867
  885YOPE   C3A11759  13.264   4.463   6.536  0.1164 -0.1709 -0.1856
  885YOPE   C4A11760  12.915   4.691   6.292 -0.1649  0.2232  0.1420
  885YOPE   C1B11761  13.737   3.560   6.354 -0.3844 -0.0389 -0.1841
  885YOPE   C2B11762  13.872   3.880   6.767  0.1559 -0.0833 -0.0403
  885YOPE   D3B11763  13.750   4.214   6.858 -0.0079 -0.0056  0.2397
  885YOPE   C4B11764  13.499   4.572   7.001 -0.0835 -0.1262 -0.0112
  886YOPE   NH311765  16.779   0.172   6.191  0.2707  0.2956 -0.0232
  886YOPE   PO411766  17.105   0.152   6.218  0.0560 -0.1104 -0.1121
  886YOPE   GL111767  17.129   0.114   6.621  0.0267 -0.1081  0.1948
  886YOPE   GL211768  17.419   0.071   6.744 -0.1448  0.3121 -0.0165
  886YOPE   C1A11769  16.922   0.025   7.000  0.0245  0.1604  0.1282
  886YOPE   D2A11770  16.690  -0.016   7.375  0.3552  0.0425 -0.1464
  886YOPE   C3A11771  16.609  -0.382   7.763 -0.1271  0.0753  0.1258
  886YOPE   C4A11772  16.510  -0.626   8.237 -0.1715 -0.0728  0.0817
  886YOPE   C1B11773  17.370   0.086   7.156  0.1537  0.1048 -0.3317
  886YOPE   C2B11774  17.226  -0.003   7.600 -0.0374  0.1328  0.1137
  886YOPE   D3B11775  16.949  -0.045   7.861 -0.1104  0.1023  0.1712
  886YOPE   C4B11776  16.710  -0.031   8.117 -0.3951  0.0932 -0.0858
  887YOPE   NH311777  10.501  16.488   5.009 -0.0051 -0.1537  0.0023
  887YOPE   PO411778  10.162  16.511   5.363  0.1534 -0.0334 -0.1621
  887YOPE   GL111779  10.570  16.516   5.501  0.0349 -0.2994  0.0480
  887YOPE   GL211780  10.593  16.205   5.767  0.1397 -0.1325 -0.3403
  887YOPE   C1A11781  10.692  16.897   5.786  0.1520 -0.3092  0.0284
  887YOPE   D2A11782  10.488  17.296   5.963 -0.1461 -0.0902 -0.0056
  887YOPE   C3A11783  10.460  17.485   6.264 -0.3437 -0.3276 -0.0531
  887YOPE   C4A11784  10.258  17.598   6.626 -0.3599 -0.1121  0.0839
  887YOPE   C1B11785  10.704  15.783   5.923 -0.1661  0.0368 -0.2847
  887YOPE   C2B11786  10.672  15.281   5.839  0.1340  0.2162 -0.0192
  887YOPE   D3B11787  10.435  14.841   5.995  0.1442 -0.1519 -0.0818
  887YOPE   C4B11788  10.370  14.491   5.906  0.3455  0.0690 -0.0726
  888YOPE   NH311789  12.941  17.000   5.528  0.0169 -0.2036 -0.0940
  888YOPE   PO411790  13.113  17.420   5.537 -0.2345 -0.0382 -0.0094
  888YOPE   GL111791  12.943  17.363   5.915  0.1551  0.2418 -0.0194
  888YOPE   GL211792  12.694  17.608   5.883  0.1270 -0.0624 -0.1269
  888YOPE   C1A11793  12.780  17.218   6.373  0.0258 -0.1411 -0.1644
  888YOPE   D2A11794  12.580  16.912   6.605  0.0172  0.0499  0.1292
  888YOPE   C3A11795  12.418  16.944   7.062 -0.0346 -0.0224  0.0410
  888YOPE   C4A11796  12.300  16.915   7.425  0.0140  0.1829 -0.1208
  888YOPE   C1B11797  12.762  17.713   6.311 -0.3478 -0.1989 -0.1395
  888YOPE   C2B11798  12.929  17.873   6.681  0.0200  0.0431  0.0661
  888YOPE   D3B11799  12.915  17.834   7.048  0.3875  0.2583 -0.1068
  888YOPE   C4B11800  12.934  18.075   7.360  0.0630 -0.1406 -0.1247
  889YOPE   NH311801   9.346   3.294   5.923  0.0274  0.1202 -0.2924
  889YOPE   PO411802   9.309   3.666   5.898 -0.0428  0.1933  0.3746
  889YOPE   GL111803   9.427   3.641   6.315 -0.1378  0.0209 -0.2616
  889YOPE   GL211804   9.187   3.779   6.473  0.0875  0.1279  0.0888
  889YOPE   C1A11805   9.551   3.721   6.796 -0.0649  0.0565 -0.0765
  889YOPE   D2A11806   9.812   3.808   7.204  0.0387 -0.1978  0.0918
  889YOPE   C3A11807   9.859   4.094   7.522  0.1857  0.0223  0.2146
  889YOPE   C4A11808   9.694   4.089   7.990 -0.4401 -0.0882 -0.4067
  889YOPE   C1B11809   9.089   3.784   6.891 -0.0037 -0.0492  0.0023
  889YOPE   C2B11810   9.351   3.992   7.161 -0.3368  0.1667 -0.2927
  889YOPE   D3B11811   9.557   4.421   7.310  0.0468  0.0498 -0.1559
  889YOPE   C4B11812   9.814   4.569   7.686 -0.0200 -0.3449 -0.0765
  890YOPE   NH311813   4.101   8.452   5.770 -0.2048  0.4884 -0.1476
  890YOPE   PO411814   3.706   8.507   5.878 -0.1540 -0.2381  0.2859
  890YOPE   GL111815   3.904   8.488   6.214  0.1494 -0.3707  0.0209
  890YOPE   GL211816   3.863   8.123   6.238 -0.0812  0.0745  0.1942
  890YOPE   C1A11817   3.952   8.417   6.620 -0.2793  0.3653  0.0289
  890YOPE   D2A11818   3.976   8.188   6.943  0.0121  0.0266 -0.1562
  890YOPE   C3A11819   4.042   8.314   7.316  0.1044  0.1331  0.1659
  890YOPE   C4A11820   4.092   8.383   7.860 -0.0472  0.0594 -0.0297
  890YOPE   C1B11821   3.528   8.127   6.556 -0.1859  0.1804 -0.2127
  890YOPE   C2B11822   3.432   8.094   6.999 -0.0580  0.0107 -0.0678
  890YOPE   D3B11823   3.343   7.888   7.288 -0.0089 -0.1515 -0.2412
  890YOPE   C4B11824   3.137   7.867   7.688 -0.1361 -0.1673  0.3151
  891YOPE   NH311825   9.083   1.534   5.745  0.1115 -0.0280  0.0757
  891YOPE   PO411826   8.824   1.169   5.681  0.0885 -0.1066 -0.2429
  891YOPE   GL111827   9.194   1.098   5.977 -0.2038  0.4229  0.1901
  891YOPE   GL211828   9.375   1.375   6.084  0.0305  0.0221  0.1744
  891YOPE   C1A11829   9.241   0.877   6.352  0.0084 -0.3183  0.0724
  891YOPE   D2A11830   9.423   0.740   6.744 -0.1684 -0.0471 -0.1553
  891YOPE   C3A11831   9.205   0.495   7.059 -0.1938 -0.2100 -0.0063
  891YOPE   C4A11832   9.284   0.258   7.500  0.2676 -0.0617  0.0929
  891YOPE   C1B11833   9.565   1.232   6.456  0.4397 -0.0737 -0.2381
  891YOPE   C2B11834   9.683   1.173   6.953  0.0615  0.0889  0.0991
  891YOPE   D3B11835   9.728   1.081   7.398  0.1487 -0.5622 -0.1851
  891YOPE   C4B11836   9.660   0.899   7.733 -0.1467 -0.3070 -0.1382
  892YOPE   NH311837   8.460  12.722   5.611 -0.3273  0.0166 -0.0533
  892YOPE   PO411838   8.618  12.488   5.685  0.1752 -0.1383  0.1377
  892YOPE   GL111839   8.633  12.590   6.124 -0.5557  0.0037  0.0841
  892YOPE   GL211840   8.724  12.295   6.240  0.0286 -0.0823  0.2121
  892YOPE   C1A11841   8.841  12.825   6.384 -0.0366  0.1204  0.1687
  892YOPE   D2A11842   8.850  12.946   6.827 -0.0523 -0.2545  0.0975
  892YOPE   C3A11843   9.082  12.668   7.112 -0.3577  0.2956  0.1895
  892YOPE   C4A11844   9.421  12.900   7.271  0.1094  0.1687 -0.0836
  892YOPE   C1B11845   8.665  12.437   6.689 -0.3006  0.0615  0.0422
  892YOPE   C2B11846   8.546  12.646   7.110  0.0423 -0.1296 -0.0561
  892YOPE   D3B11847   8.629  12.868   7.446  0.0303  0.1734 -0.0407
  892YOPE   C4B11848   9.064  12.892   7.612 -0.2053 -0.1070 -0.2127
  893YOPE   NH311849   9.764   3.848   5.964 -0.1630  0.1694 -0.3753
  893YOPE   PO411850  10.115   4.234   5.813  0.2114 -0.3954  0.1040
  893YOPE   GL111851  10.118   4.196   6.325 -0.1817 -0.1146 -0.3257
  893YOPE   GL211852   9.776   4.065   6.422  0.0927  0.1700 -0.1528
  893YOPE   C1A11853  10.150   4.520   6.662 -0.1715 -0.0453  0.0733
  893YOPE   D2A11854  10.213   4.958   6.954 -0.0289 -0.1775 -0.3199
  893YOPE   C3A11855  10.190   4.877   7.445 -0.0739  0.0214 -0.2336
  893YOPE   C4A11856  10.203   5.011   7.933  0.2285  0.0885 -0.0884
  893YOPE   C1B11857   9.826   4.143   6.803  0.2921 -0.1784 -0.2001
  893YOPE   C2B11858  10.035   4.440   7.138 -0.2075  0.1508 -0.0527
  893YOPE   D3B11859  10.419   4.362   7.383 -0.0188  0.0256 -0.0873
  893YOPE   C4B11860  10.554   4.554   7.891  0.0950 -0.1287 -0.0315
  894YOPE   NH311861  14.464  17.658   5.897 -0.0081  0.0899  0.1475
  894YOPE   PO411862  14.591  17.353   5.597 -0.1123 -0.0829  0.0723
  894YOPE   GL111863  14.740  17.267   6.091  0.0431 -0.1375  0.0529
  894YOPE   GL211864  14.346  17.323   6.275 -0.0116  0.0268 -0.1833
  894YOPE   C1A11865  14.753  17.124   6.477 -0.1277  0.0999 -0.2378
  894YOPE   D2A11866  14.847  17.062   6.873  0.0364 -0.2308  0.1403
  894YOPE   C3A11867  14.914  16.696   6.986  0.2926  0.1975 -0.0358
  894YOPE   C4A11868  14.790  16.364   7.204 -0.0695  0.1068  0.1105
  894YOPE   C1B11869  14.107  17.318   6.629 -0.4879  0.1302 -0.2880
  894YOPE   C2B11870  13.832  17.150   6.926 -0.2011  0.1227  0.0264
  894YOPE   D3B11871  13.782  17.121   7.358 -0.0162  0.1707 -0.4078
  894YOPE   C4B11872  13.669  17.364   7.643  0.3744 -0.0883  0.0730
  895YOPE   NH311873   3.005   3.487   5.719 -0.2073  0.3195 -0.0622
  895YOPE   PO411874   2.994   3.821   6.020  0.0388  0.0423  0.4636
  895YOPE   GL111875   2.787   4.152   6.209 -0.0931 -0.1510 -0.2881
  895YOPE   GL211876   3.038   4.292   6.279 -0.1262 -0.2991 -0.3933
  895YOPE   C1A11877   2.575   4.234   6.630 -0.0312 -0.0180  0.1484
  895YOPE   D2A11878   2.647   4.330   6.965  0.1600 -0.0163 -0.0324
  895YOPE   C3A11879   2.341   4.296   7.128  0.0210 -0.2097 -0.2212
  895YOPE   C4A11880   1.931   4.063   7.393 -0.2987  0.1757  0.0218
  895YOPE   C1B11881   3.057   4.404   6.687 -0.0285 -0.2791 -0.1653
  895YOPE   C2B11882   3.066   4.543   7.154 -0.0537  0.0575  0.0926
  895YOPE   D3B11883   3.404   4.513   7.425 -0.3457 -0.0172 -0.0559
  895YOPE   C4B11884   3.820   4.451   7.607  0.1013 -0.3314  0.1190
  896YOPE   NH311885   5.819   1.536   5.761 -0.5196  0.0200  0.1251
  896YOPE   PO411886   5.376   1.635   5.686  0.0770  0.1195  0.1702
  896YOPE   GL111887   5.428   1.744   6.089  0.0719 -0.0352 -0.1884
  896YOPE   GL211888   5.076   1.653   6.175 -0.0834  0.0688 -0.1410
  896YOPE   C1A11889   5.566   1.719   6.498  0.0489 -0.1024 -0.0331
  896YOPE   D2A11890   5.628   1.659   6.911 -0.1183  0.2190  0.1576
  896YOPE   C3A11891   5.866   1.744   7.250 -0.1813 -0.1583 -0.5343
  896YOPE   C4A11892   5.760   1.840   7.730 -0.0173  0.2026  0.2075
  896YOPE   C1B11893   5.073   1.770   6.487 -0.0797 -0.1457  0.0282
  896YOPE   C2B11894   5.110   1.716   6.922  0.0535  0.2846 -0.0355
  896YOPE   D3B11895   5.270   1.855   7.329  0.0381 -0.2164  0.2009
  896YOPE   C4B11896   5.235   1.718   7.780  0.2133 -0.2618  0.0857
  897YOPE   NH311897   6.038   5.799   6.003 -0.0100  0.1835  0.2693
  897YOPE   PO411898   6.343   5.502   5.963 -0.1555  0.2090  0.0895
  897YOPE   GL111899   6.251   5.258   6.382  0.0420 -0.0414  0.1284
  897YOPE   GL211900   6.551   5.091   6.411 -0.0064 -0.0121 -0.0849
  897YOPE   C1A11901   6.150   5.369   6.752  0.0039  0.1879 -0.0576
  897YOPE   D2A11902   6.370   5.407   7.202  0.1829  0.1409  0.2043
  897YOPE   C3A11903   6.265   5.487   7.695  0.2748 -0.3513  0.1697
  897YOPE   C4A11904   5.933   5.602   7.912  0.1545  0.3315 -0.1594
  897YOPE   C1B11905   6.758   5.333   6.669  0.0871  0.0051 -0.2493
  897YOPE   C2B11906   6.852   5.478   7.031 -0.3086  0.2432 -0.0174
  897YOPE   D3B11907   6.957   5.907   7.189 -0.0490 -0.0205 -0.3142
  897YOPE   C4B11908   7.243   6.038   7.587  0.4488  0.2726 -0.0602
  898YOPE   NH311909   5.221  17.290   5.733  0.0397  0.0458 -0.1868
  898YOPE   PO411910   5.018  17.731   5.603  0.0268 -0.1902  0.1064
  898YOPE   GL111911   4.945  17.821   5.994 -0.0206 -0.1838  0.4439
  898YOPE   GL211912   4.616  17.908   6.054  0.0376 -0.0721 -0.3030
  898YOPE   C1A11913   5.131  17.571   6.385  0.0100  0.0456 -0.2956
  898YOPE   D2A11914   5.216  17.550   6.786  0.0930  0.0142  0.2834
  898YOPE   C3A11915   5.121  17.644   7.103  0.1437  0.1459 -0.0113
  898YOPE   C4A11916   4.940  17.746   7.425 -0.0643 -0.1550 -0.0011
  898YOPE   C1B11917   4.886  17.972   6.486 -0.0512  0.3696 -0.3420
  898YOPE   C2B11918   5.220  18.066   6.789 -0.1742 -0.1189 -0.3874
  898YOPE   D3B11919   5.357  18.092   7.316 -0.2830  0.0223  0.1837
  898YOPE   C4B11920   5.432  17.819   7.537  0.3383  0.0145 -0.0884
  899YOPE   NH311921  15.403   0.183   6.102 -0.1077  0.3139 -0.0353
  899YOPE   PO411922  14.953   0.367   6.015 -0.0975 -0.2707  0.2158
  899YOPE   GL111923  15.069   0.353   6.431 -0.1270 -0.0235  0.0752
  899YOPE   GL211924  15.346   0.618   6.336 -0.1000  0.1429 -0.0673
  899YOPE   C1A11925  14.860   0.590   6.700  0.2833  0.0602 -0.1351
  899YOPE   D2A11926  14.768   0.818   7.013  0.1144 -0.0993 -0.0508
  899YOPE   C3A11927  14.901   0.745   7.487  0.2189  0.1268 -0.0803
  899YOPE   C4A11928  14.963   0.720   7.933 -0.1938 -0.0050  0.2761
  899YOPE   C1B11929  15.317   0.952   6.680  0.2250  0.1806  0.2346
  899YOPE   C2B11930  15.179   1.137   6.989  0.0392  0.2123 -0.1396
  899YOPE   D3B11931  15.070   1.134   7.290  0.4306 -0.1743  0.0054
  899YOPE   C4B11932  15.071   1.189   7.762 -0.3194  0.0905 -0.2320
  900YOPE   NH311933   5.539  17.781   5.304  0.2734  0.2974  0.3155
  900YOPE   PO411934   5.796  18.129   5.366 -0.1217 -0.1760 -0.1189
  900YOPE   GL111935   5.805  18.283   5.775 -0.0689  0.2024  0.0101
  900YOPE   GL211936   5.522  18.471   5.990  0.1210 -0.1295  0.2547
  900YOPE   C1A11937   5.955  18.657   6.068  0.2634 -0.0300 -0.1337
  900YOPE   D2A11938   5.819  18.946   6.331 -0.0369  0.3307  0.0775
  900YOPE   C3A11939   5.579  18.721   6.689 -0.2039 -0.0736 -0.1336
  900YOPE   C4A11940   5.654  18.334   6.819  0.0212  0.1183  0.0000
  900YOPE   C1B11941   5.697  18.344   6.323 -0.0774 -0.1540 -0.1387
  900YOPE   C2B11942   6.064  18.420   6.636  0.1990 -0.2201 -0.2183
  900YOPE   D3B11943   6.087  18.725   6.912 -0.0233 -0.1770  0.0936
  900YOPE   C4B11944   6.046  18.769   7.286  0.0037  0.1810  0.0437
  901YOPE   NH311945   8.027   4.537   5.898  0.1152  0.2745 -0.0768
  901YOPE   PO411946   7.745   4.219   5.980 -0.0302 -0.1263 -0.2469
  901YOPE   GL111947   7.724   3.951   6.393 -0.4758 -0.2221  0.2245
  901YOPE   GL211948   7.548   4.058   6.592  0.0483  0.0379  0.0256
  901YOPE   C1A11949   7.901   3.630   6.621  0.4036 -0.4656  0.3581
  901YOPE   D2A11950   7.902   3.528   7.059  0.4844  0.1448 -0.0053
  901YOPE   C3A11951   7.743   3.370   7.554 -0.2468  0.1766 -0.3882
  901YOPE   C4A11952   7.885   3.397   7.991  0.0304  0.0752 -0.4058
  901YOPE   C1B11953   7.631   4.033   7.074 -0.0084  0.3357  0.3185
  901YOPE   C2B11954   7.727   3.859   7.420  0.0286 -0.0526  0.0748
  901YOPE   D3B11955   8.020   3.881   7.691  0.0908 -0.0972 -0.2739
  901YOPE   C4B11956   8.307   4.098   8.019  0.0229  0.0358 -0.0767
  902YOPE   NH311957   9.885  12.029   5.759 -0.0287 -0.0862  0.3314
  902YOPE   PO411958   9.493  12.291   5.643  0.0083 -0.1234  0.1018
  902YOPE   GL111959   9.746  12.437   6.047 -0.0890 -0.4815  0.1362
  902YOPE   GL211960  10.057  12.435   6.059 -0.0040  0.2083  0.2427
  902YOPE   C1A11961   9.703  12.511   6.515  0.0863  0.6229  0.1335
  902YOPE   D2A11962   9.781  12.724   6.891  0.1272  0.2906 -0.1707
  902YOPE   C3A11963   9.794  12.549   7.213  0.0687 -0.2228  0.1362
  902YOPE   C4A11964   9.842  12.660   7.723  0.1138 -0.1127  0.2837
  902YOPE   C1B11965  10.222  12.546   6.552  0.1291  0.0558  0.1027
  902YOPE   C2B11966  10.251  12.819   6.759 -0.1687  0.0110  0.1996
  902YOPE   D3B11967  10.245  13.272   6.975  0.1097 -0.1282 -0.3030
  902YOPE   C4B11968  10.330  13.364   7.372 -0.0105 -0.0681  0.1926
  903YOPE   NH311969   5.542   9.581   5.982  0.3859 -0.3697  0.0406
  903YOPE   PO411970   5.199   9.201   5.977 -0.0409 -0.0671 -0.0756
  903YOPE   GL111971   5.111   9.353   6.458  0.1232  0.2441 -0.1889
  903YOPE   GL211972   5.263   9.621   6.468 -0.1890 -0.1497 -0.0259
  903YOPE   C1A11973   5.104   9.111   6.849  0.1134  0.0043  0.2179
  903YOPE   D2A11974   5.189   8.997   7.192  0.1012  0.2056 -0.2342
  903YOPE   C3A11975   4.979   9.152   7.431 -0.0962 -0.3538  0.1311
  903YOPE   C4A11976   5.140   9.055   7.712  0.1792  0.1413  0.1900
  903YOPE   C1B11977   5.371   9.544   6.889  0.0440  0.0610 -0.0063
  903YOPE   C2B11978   5.465   9.406   7.305  0.1765  0.1534  0.4486
  903YOPE   D3B11979   5.339   9.520   7.613  0.2952 -0.1279 -0.0379
  903YOPE   C4B11980   5.405   9.798   7.936 -0.0958 -0.0313  0.0281
  904YOPE   NH311981  18.034  13.822   6.170 -0.3596  0.0226  0.0019
  904YOPE   PO411982  17.673  14.105   6.400 -0.1946  0.0223 -0.2386
  904YOPE   GL111983  17.725  14.318   6.824 -0.2855  0.1472 -0.2007
  904YOPE   GL211984  17.535  14.409   6.919 -0.1578 -0.0807 -0.4995
  904YOPE   C1A11985  18.042  14.325   7.113 -0.1340 -0.0738  0.0718
  904YOPE   D2A11986  17.996  14.454   7.425  0.0506  0.1050 -0.1559
  904YOPE   C3A11987  18.044  14.157   7.662 -0.0524 -0.0177  0.1598
  904YOPE   C4A11988  17.968  14.085   8.046  0.1756  0.1192 -0.0982
  904YOPE   C1B11989  17.474  14.503   7.422 -0.0857 -0.3531  0.0091
  904YOPE   C2B11990  17.306  14.762   7.741 -0.1584 -0.3283 -0.0860
  904YOPE   D3B11991  17.127  14.776   8.182 -0.0778  0.0588 -0.0265
  904YOPE   C4B11992  16.838  15.078   8.362 -0.0228 -0.2658  0.1159
  905YOPE   NH311993   9.687   4.378   6.032  0.3501  0.0610  0.1673
  905YOPE   PO411994   9.353   4.124   6.073  0.2507 -0.1089  0.0409
  905YOPE   GL111995   9.183   4.268   6.389 -0.0344  0.1455 -0.2367
  905YOPE   GL211996   9.367   4.226   6.651  0.1062  0.2576 -0.4229
  905YOPE   C1A11997   8.812   4.254   6.619  0.0612 -0.1190 -0.0723
  905YOPE   D2A11998   8.638   4.556   6.855 -0.3106  0.1810 -0.1118
  905YOPE   C3A11999   8.500   4.434   7.204  0.2839  0.0803  0.1482
  905YOPE   C4A12000   8.592   4.267   7.613 -0.0477 -0.1420  0.2634
  905YOPE   C1B12001   9.095   4.338   6.979  0.0220 -0.0854  0.0595
  905YOPE   C2B12002   8.974   4.446   7.416 -0.1944 -0.1507  0.2866
  905YOPE   D3B12003   9.199   4.286   7.834 -0.3711 -0.1666 -0.1200
  905YOPE   C4B12004   8.844   4.067   8.047 -0.1138  0.1048 -0.3015
  906YOPE   NH312005   3.774  14.161   5.916  0.2154  0.0764 -0.0627
  906YOPE   PO412006   3.707  13.819   6.111  0.1442  0.1593 -0.2077
  906YOPE   GL112007   3.609  14.012   6.478 -0.3036  0.0157 -0.0115
  906YOPE   GL212008   3.318  14.031   6.489  0.2881  0.2910  0.1773
  906YOPE   C1A12009   3.659  14.249   6.794  0.3603  0.1683 -0.3116
  906YOPE   D2A12010   3.536  14.631   7.045 -0.1245 -0.1686  0.1832
  906YOPE   C3A12011   3.534  15.037   6.848 -0.3310  0.0477 -0.0013
  906YOPE   C4A12012   3.349  15.461   6.853  0.0758 -0.1351  0.1202
  906YOPE   C1B12013   3.157  14.226   6.885  0.0141  0.4549  0.0899
  906YOPE   C2B12014   2.903  14.377   7.263  0.1591  0.1979  0.1373
  906YOPE   D3B12015   2.598  14.352   7.609 -0.0148 -0.2435 -0.2042
  906YOPE   C4B12016   2.231  14.356   7.688 -0.0803  0.1035 -0.1523
  907YOPE   NH312017  18.476   1.586   5.945  0.2602 -0.1558 -0.2474
  907YOPE   PO412018  18.137   1.792   6.031  0.0307  0.2237 -0.1291
  907YOPE   GL112019  17.976   1.935   6.402 -0.1707 -0.1739 -0.1488
  907YOPE   GL212020  17.989   2.257   6.455  0.1532  0.1039  0.1071
  907YOPE   C1A12021  17.996   1.842   6.893  0.0961  0.1798 -0.1744
  907YOPE   D2A12022  17.993   1.853   7.335 -0.2243 -0.2119  0.0063
  907YOPE   C3A12023  18.381   2.014   7.638 -0.1843 -0.0406  0.3860
  907YOPE   C4A12024  18.644   2.340   7.789 -0.1167 -0.0187  0.1394
  907YOPE   C1B12025  18.056   2.427   6.870  0.3374 -0.0138  0.0963
  907YOPE   C2B12026  17.994   2.486   7.330  0.0137  0.2524 -0.1106
  907YOPE   D3B12027  17.922   2.700   7.697 -0.3018  0.1419  0.1448
  907YOPE   C4B12028  18.231   2.542   8.045 -0.0575 -0.2058 -0.0664
  908YOPE   NH312029   0.267  16.878   6.106 -0.0035  0.2762  0.2067
  908YOPE   PO412030   0.737  16.793   5.932  0.0401 -0.0847 -0.0978
  908YOPE   GL112031   0.695  16.973   6.318 -0.2904  0.2763 -0.3287
  908YOPE   GL212032   0.746  17.304   6.374 -0.0957 -0.0172  0.0388
  908YOPE   C1A12033   0.719  17.078   6.784  0.0453 -0.2345 -0.1706
  908YOPE   D2A12034   0.737  17.278   7.119 -0.1193 -0.3373 -0.0457
  908YOPE   C3A12035   0.945  17.687   7.259 -0.2604 -0.1690 -0.0290
  908YOPE   C4A12036   1.147  17.812   7.603  0.0331  0.0261  0.1618
  908YOPE   C1B12037   0.675  17.666   6.678  0.0050 -0.2757 -0.2863
  908YOPE   C2B12038   1.077  17.900   6.819  0.2232  0.1315  0.0786
  908YOPE   D3B12039   1.266  18.082   7.108  0.2780  0.0465  0.0333
  908YOPE   C4B12040   1.634  18.041   7.446  0.0219 -0.1564  0.2044
  909YOPE   NH312041   8.465   2.806   6.060 -0.0878  0.1736  0.0249
  909YOPE   PO412042   8.494   3.265   6.007 -0.0063  0.0685 -0.2708
  909YOPE   GL112043   8.586   3.227   6.418 -0.1177  0.1390 -0.3532
  909YOPE   GL212044   8.297   3.266   6.652 -0.1306 -0.1182  0.3847
  909YOPE   C1A12045   8.742   3.448   6.753 -0.2570 -0.1565  0.0713
  909YOPE   D2A12046   8.853   3.233   7.178 -0.0845 -0.2204 -0.0266
  909YOPE   C3A12047   8.733   3.331   7.588  0.1102 -0.2773 -0.0604
  909YOPE   C4A12048   8.799   3.540   7.911  0.1434  0.0902 -0.0509
  909YOPE   C1B12049   8.330   3.385   7.170 -0.0595  0.1167  0.3200
  909YOPE   C2B12050   8.218   3.364   7.616 -0.2581  0.2715  0.0739
  909YOPE   D3B12051   8.419   3.165   7.946 -0.3324  0.1384 -0.0122
  909YOPE   C4B12052   8.566   2.772   8.155 -0.1234 -0.2310  0.2741
  910YOPE   NH312053  11.228  15.419   5.286  0.1602  0.1898  0.0644
  910YOPE   PO412054  11.523  15.341   5.580 -0.1051 -0.1704  0.1645
  910YOPE   GL112055  11.543  15.279   5.975 -0.1429  0.1991 -0.3244
  910YOPE   GL212056  11.819  15.370   6.045 -0.3155 -0.0128 -0.0010
  910YOPE   C1A12057  11.406  15.152   6.383 -0.1988  0.0402  0.0774
  910YOPE   D2A12058  11.114  14.914   6.571 -0.1524  0.1592  0.0227
  910YOPE   C3A12059  11.033  15.016   7.019  0.0850 -0.2435 -0.4767
  910YOPE   C4A12060  10.774  14.930   7.335 -0.2218 -0.0366  0.0126
  910YOPE   C1B12061  11.881  15.088   6.474 -0.0982  0.1605  0.2201
  910YOPE   C2B12062  11.962  15.020   6.916 -0.1706 -0.0751  0.0928
  910YOPE   D3B12063  12.053  14.738   7.054  0.0466 -0.1846  0.0248
  910YOPE   C4B12064  11.941  14.455   7.361 -0.2983 -0.1879 -0.1762
  911YOPE   NH312065  11.904  16.682   4.865 -0.0506 -0.1108 -0.1454
  911YOPE   PO412066  11.942  16.770   5.310 -0.3530  0.0904 -0.1294
  911YOPE   GL112067  11.936  16.704   5.724  0.3541 -0.4155 -0.1856
  911YOPE   GL212068  11.870  17.034   5.783 -0.0140 -0.0377 -0.2160
  911YOPE   C1A12069  11.901  16.545   6.095  0.1963  0.0835  0.1053
  911YOPE   D2A12070  11.676  16.603   6.519  0.0964  0.0994 -0.1273
  911YOPE   C3A12071  11.706  16.613   7.003 -0.2837  0.2620  0.1687
  911YOPE   C4A12072  11.803  16.705   7.483 -0.2749  0.0838 -0.0292
  911YOPE   C1B12073  11.941  17.048   6.233  0.2817 -0.2478  0.0637
  911YOPE   C2B12074  12.048  17.009   6.699  0.5042 -0.0935 -0.1108
  911YOPE   D3B12075  11.875  17.080   7.087  0.3022 -0.2931  0.3400
  911YOPE   C4B12076  11.871  17.193   7.620  0.2121 -0.1454  0.1507
  912YOPE   NH312077   0.728  10.940   6.543  0.0209  0.0882  0.0748
  912YOPE   PO412078   0.712  10.577   6.508 -0.1410 -0.3367 -0.0753
  912YOPE   GL112079   0.319  10.698   6.768 -0.1434 -0.3002 -0.1233
  912YOPE   GL212080   0.010  10.756   6.646 -0.0047  0.1914 -0.1425
  912YOPE   C1A12081   0.311  10.601   7.344 -0.0900 -0.4110 -0.3067
  912YOPE   D2A12082   0.246  10.564   7.765  0.0522 -0.0171 -0.0183
  912YOPE   C3A12083  -0.176  10.558   7.910  0.1184  0.4542  0.2836
  912YOPE   C4A12084  -0.224  10.944   7.930  0.2332  0.4535  0.1204
  912YOPE   C1B12085  -0.096  10.762   7.005  0.1669  0.0383  0.0139
  912YOPE   C2B12086  -0.223  10.774   7.403  0.0859  0.1636 -0.2856
  912YOPE   D3B12087  -0.126  11.180   7.512 -0.0184  0.1301  0.0078
  912YOPE   C4B12088  -0.521  11.302   7.682 -0.1130 -0.1477 -0.1309
  913YOPE   NH312089   1.781  14.553   5.340  0.3169  0.1975  0.2451
  913YOPE   PO412090   1.610  14.429   5.605  0.2774 -0.2790  0.1434
  913YOPE   GL112091   1.604  14.738   5.957 -0.2103  0.0500 -0.0561
  913YOPE   GL212092   1.513  14.567   6.092 -0.1070  0.0690 -0.0367
  913YOPE   C1A12093   1.839  15.046   6.180  0.2380  0.1582  0.0131
  913YOPE   D2A12094   2.176  15.314   6.284  0.0389  0.1754 -0.5177
  913YOPE   C3A12095   2.187  15.528   6.736  0.4492 -0.0467  0.3883
  913YOPE   C4A12096   2.290  15.972   6.817 -0.0448  0.0055  0.0047
  913YOPE   C1B12097   1.779  14.625   6.482  0.4141 -0.3134 -0.1138
  913YOPE   C2B12098   1.714  14.702   6.940  0.1538  0.0717  0.1159
  913YOPE   D3B12099   1.612  14.847   7.312  0.1581  0.2247 -0.3873
  913YOPE   C4B12100   1.218  14.794   7.624 -0.0256 -0.1927 -0.1731
  914YOPE   NH312101   4.751  11.478   6.017 -0.2724 -0.1734  0.0508
  914YOPE   PO412102   4.252  11.261   5.980 -0.2056 -0.3556  0.0063
  914YOPE   GL112103   4.468  11.228   6.390  0.3917 -0.1152 -0.3690
  914YOPE   GL212104   4.526  10.892   6.382  0.0972  0.1003 -0.3402
  914YOPE   C1A12105   4.631  11.229   6.723 -0.2424 -0.3064 -0.0014
  914YOPE   D2A12106   4.824  11.319   7.092  0.0613 -0.4807  0.2013
  914YOPE   C3A12107   5.016  11.116   7.538  0.1137  0.0871  0.0659
  914YOPE   C4A12108   5.453  11.008   7.656  0.1384 -0.2813 -0.0390
  914YOPE   C1B12109   4.679  10.751   6.749 -0.0123 -0.1903  0.2417
  914YOPE   C2B12110   4.719  10.685   7.145  0.3657  0.0246 -0.2441
  914YOPE   D3B12111   4.832  10.562   7.514 -0.1241 -0.0226 -0.1983
  914YOPE   C4B12112   4.691  10.815   7.918 -0.2081 -0.2130 -0.3040
  915YOPE   NH312113  12.874  11.037   5.724 -0.2037 -0.0241 -0.0325
  915YOPE   PO412114  13.271  10.959   5.572  0.2164  0.4048  0.1710
  915YOPE   GL112115  13.331  11.000   5.960  0.1436  0.0567  0.1372
  915YOPE   GL212116  13.559  10.781   5.990 -0.0770  0.1601  0.1080
  915YOPE   C1A12117  13.366  10.918   6.477 -0.0499  0.0437 -0.0096
  915YOPE   D2A12118  13.329  10.851   6.813  0.2280 -0.3605 -0.1063
  915YOPE   C3A12119  13.353  11.027   7.170  0.0658 -0.2159 -0.0238
  915YOPE   C4A12120  13.588  11.293   7.434 -0.4709 -0.0105  0.2343
  915YOPE   C1B12121  13.638  10.493   6.358 -0.3330 -0.1761  0.2425
  915YOPE   C2B12122  13.676  10.555   6.807 -0.0702 -0.0799 -0.1192
  915YOPE   D3B12123  13.682  10.578   7.217  0.2515 -0.3452 -0.2716
  915YOPE   C4B12124  13.784  10.784   7.538  0.0472  0.1065  0.1152
  916YOPE   NH312125   0.414   8.803   5.776 -0.0323  0.2940 -0.0939
  916YOPE   PO412126   0.051   9.065   5.879 -0.0028 -0.2151  0.1326
  916YOPE   GL112127   0.175   8.929   6.333 -0.2332 -0.1961  0.2581
  916YOPE   GL212128   0.158   9.271   6.322  0.1087 -0.3125 -0.1932
  916YOPE   C1A12129   0.136   8.968   6.814 -0.2303  0.1393 -0.0908
  916YOPE   D2A12130   0.244   9.025   7.175  0.1495  0.0911 -0.3780
  916YOPE   C3A12131   0.558   8.637   7.204  0.0825 -0.1459 -0.3624
  916YOPE   C4A12132   0.744   8.194   7.305 -0.2213  0.0034 -0.0865
  916YOPE   C1B12133   0.407   9.424   6.598  0.1261  0.1302 -0.0901
  916YOPE   C2B12134   0.495   9.666   6.958  0.0518  0.0974  0.1140
  916YOPE   D3B12135   0.693   9.622   7.385  0.1136 -0.3270 -0.2636
  916YOPE   C4B12136   0.903   9.595   7.793  0.4656 -0.2837 -0.0694
  917YOPE   NH312137   4.980  14.433   5.491  0.2655  0.1224 -0.0154
  917YOPE   PO412138   4.871  14.275   5.772 -0.1041  0.1579 -0.0991
  917YOPE   GL112139   4.910  14.407   6.201 -0.2234 -0.1159 -0.2221
  917YOPE   GL212140   5.123  14.145   6.227 -0.2269 -0.1336 -0.1782
  917YOPE   C1A12141   4.880  14.390   6.610 -0.2140 -0.0532 -0.1986
  917YOPE   D2A12142   4.844  14.594   6.926 -0.1864  0.0881 -0.1496
  917YOPE   C3A12143   4.557  14.590   7.149  0.0730 -0.1237  0.2445
  917YOPE   C4A12144   4.244  14.865   7.305 -0.0974 -0.1363  0.2847
  917YOPE   C1B12145   5.099  13.943   6.611  0.4870 -0.0335  0.2539
  917YOPE   C2B12146   5.137  13.914   7.118  0.1454  0.1073  0.5350
  917YOPE   D3B12147   5.239  13.971   7.607  0.1592  0.0590 -0.0267
  917YOPE   C4B12148   5.047  13.828   7.930  0.2510  0.1807  0.3807
  918YOPE   NH312149  17.860   4.407   5.508 -0.0954 -0.3334  0.2316
  918YOPE   PO412150  17.692   4.831   5.413  0.3932  0.0371  0.1243
  918YOPE   GL112151  17.651   4.836   5.931  0.1927  0.2927 -0.2978
  918YOPE   GL212152  17.667   4.398   5.964  0.1278  0.0092  0.2426
  918YOPE   C1A12153  17.661   4.716   6.332 -0.1966  0.1580  0.0201
  918YOPE   D2A12154  17.632   4.547   6.806  0.1751  0.2270  0.2630
  918YOPE   C3A12155  17.869   4.545   7.086  0.1091  0.2618 -0.0003
  918YOPE   C4A12156  18.225   4.859   7.085 -0.1032 -0.0241  0.3007
  918YOPE   C1B12157  17.267   4.391   6.231  0.0303 -0.3399 -0.1047
  918YOPE   C2B12158  17.163   4.256   6.621  0.1673  0.1718 -0.2511
  918YOPE   D3B12159  17.167   4.363   6.951 -0.0570 -0.0008  0.3523
  918YOPE   C4B12160  17.054   4.324   7.372  0.0034 -0.0073 -0.2626
  919YOPE   NH312161   5.120   2.106   5.914  0.2017 -0.0810 -0.1431
  919YOPE   PO412162   4.887   2.520   5.724 -0.0745  0.1909  0.3184
  919YOPE   GL112163   5.035   2.627   6.081 -0.5669  0.1507  0.0075
  919YOPE   GL212164   4.999   2.442   6.330 -0.1981 -0.4635  0.0150
  919YOPE   C1A12165   4.969   2.975   6.276  0.1634 -0.0425  0.3070
  919YOPE   D2A12166   4.987   3.365   6.525 -0.0820  0.3310  0.2876
  919YOPE   C3A12167   5.052   3.439   6.952 -0.2208 -0.0327  0.0219
  919YOPE   C4A12168   4.989   3.556   7.254  0.0166 -0.1550 -0.3151
  919YOPE   C1B12169   4.942   2.170   6.704  0.1888 -0.1621 -0.2374
  919YOPE   C2B12170   4.951   2.154   7.035 -0.0590 -0.1336  0.2258
  919YOPE   D3B12171   5.149   2.458   7.337 -0.1733 -0.2360 -0.1214
  919YOPE   C4B12172   5.492   2.725   7.621  0.0032  0.0452 -0.1593
  920YOPE   NH312173   0.003  11.478   6.424  0.0032 -0.3294  0.0663
  920YOPE   PO412174   0.458  11.382   6.394  0.1587  0.0985 -0.0188
  920YOPE   GL112175   0.351  11.265   6.778  0.1037  0.0499 -0.1381
  920YOPE   GL212176  -0.005  11.254   6.858 -0.1128  0.0124  0.0624
  920YOPE   C1A12177   0.296  11.135   7.231  0.0032  0.3161  0.0813
  920YOPE   D2A12178   0.368  11.037   7.644  0.1373 -0.2207 -0.3297
  920YOPE   C3A12179   0.187  11.181   7.958 -0.2418 -0.0454 -0.1659
  920YOPE   C4A12180   0.358  11.372   8.361 -0.1053  0.0108  0.1603
  920YOPE   C1B12181  -0.345  11.285   7.022  0.1448  0.3362 -0.2256
  920YOPE   C2B12182  -0.775  11.103   7.187  0.5919 -0.0850  0.1250
  920YOPE   D3B12183  -0.970  10.971   7.489  0.3865 -0.1352 -0.2743
  920YOPE   C4B12184  -1.074  11.128   7.885 -0.0838 -0.2315  0.2921
  921YOPE   NH312185  15.783   4.498   5.714  0.2032  0.2155  0.0209
  921YOPE   PO412186  15.540   4.831   5.600 -0.1311  0.1983 -0.0456
  921YOPE   GL112187  15.458   4.739   6.047  0.0210 -0.1210 -0.2291
  921YOPE   GL212188  15.594   4.532   6.192 -0.1040  0.0044 -0.1083
  921YOPE   C1A12189  15.524   5.019   6.307 -0.0050 -0.5335 -0.0581
  921YOPE   D2A12190  15.696   5.155   6.656  0.2747 -0.0278 -0.2322
  921YOPE   C3A12191  15.458   5.219   6.983 -0.4183 -0.0296  0.1415
  921YOPE   C4A12192  15.273   5.151   7.451  0.0696 -0.0478  0.1365
  921YOPE   C1B12193  15.266   4.635   6.536 -0.1897 -0.1640 -0.1835
  921YOPE   C2B12194  15.119   4.947   6.696  0.0049  0.0643  0.0678
  921YOPE   D3B12195  14.969   5.176   7.035  0.0901  0.0989  0.2088
  921YOPE   C4B12196  14.726   5.414   7.223  0.0811 -0.0099 -0.1622
  922YOPE   NH312197  13.241  11.459   5.769 -0.1308  0.1517 -0.0295
  922YOPE   PO412198  13.161  11.915   5.714  0.1201 -0.1617  0.1587
  922YOPE   GL112199  13.034  11.855   6.079 -0.0864 -0.0126 -0.4275
  922YOPE   GL212200  13.224  11.675   6.262 -0.0264  0.0176  0.1998
  922YOPE   C1A12201  13.014  12.174   6.457  0.3564 -0.2986 -0.1278
  922YOPE   D2A12202  13.034  12.478   6.768 -0.1453 -0.0552 -0.1475
  922YOPE   C3A12203  12.830  12.393   7.112 -0.1983 -0.1269 -0.2936
  922YOPE   C4A12204  12.547  12.611   7.368 -0.0750  0.0004 -0.0088
  922YOPE   C1B12205  13.229  11.835   6.690  0.1408  0.2213  0.0201
  922YOPE   C2B12206  13.182  12.052   6.946  0.0344  0.1216 -0.1541
  922YOPE   D3B12207  13.205  12.319   7.399  0.3684 -0.1619  0.5335
  922YOPE   C4B12208  13.504  12.215   7.766 -0.3967 -0.1701 -0.0040
  923YOPE   NH312209   4.484   8.191   5.568  0.2465 -0.2920  0.0595
  923YOPE   PO412210   4.743   8.025   5.890 -0.0805  0.0363 -0.1548
  923YOPE   GL112211   4.866   8.215   6.254 -0.0853 -0.0545 -0.2390
  923YOPE   GL212212   4.601   8.453   6.159  0.0605  0.2501 -0.1085
  923YOPE   C1A12213   4.955   8.351   6.663  0.0443 -0.0315  0.2767
  923YOPE   D2A12214   4.995   8.424   7.140  0.1724 -0.0713 -0.0403
  923YOPE   C3A12215   5.062   8.213   7.565 -0.3102  0.1292  0.1124
  923YOPE   C4A12216   5.157   8.483   7.884  0.1204 -0.0665 -0.0419
  923YOPE   C1B12217   4.432   8.422   6.453 -0.1294  0.0105 -0.1605
  923YOPE   C2B12218   4.422   8.332   6.895  0.0160 -0.0198  0.1490
  923YOPE   D3B12219   4.555   8.238   7.369  0.0932 -0.2053  0.1238
  923YOPE   C4B12220   4.581   8.353   7.822  0.0458  0.0264  0.0550
  924YOPE   NH312221  18.072   0.338   6.000  0.0552  0.0899  0.1536
  924YOPE   PO412222  18.071  -0.112   6.009 -0.1407 -0.0515 -0.0400
  924YOPE   GL112223  18.132  -0.008   6.420 -0.0785  0.0498  0.0306
  924YOPE   GL212224  17.979  -0.103   6.583 -0.3085 -0.0496  0.2666
  924YOPE   C1A12225  18.376   0.113   6.726  0.1113 -0.0437 -0.2187
  924YOPE   D2A12226  18.740  -0.085   6.959  0.1134 -0.0342  0.0084
  924YOPE   C3A12227  18.711  -0.410   7.197 -0.0548  0.5351 -0.0070
  924YOPE   C4A12228  19.035  -0.656   7.143 -0.3294 -0.1995 -0.2513
  924YOPE   C1B12229  17.855  -0.064   7.001 -0.0601 -0.1866 -0.0472
  924YOPE   C2B12230  17.771   0.085   7.491  0.2403 -0.0965  0.1408
  924YOPE   D3B12231  17.752   0.074   7.876  0.0502  0.6019 -0.0068
  924YOPE   C4B12232  18.121  -0.098   8.172  0.0899 -0.1472  0.0931
  925YOPE   NH312233   2.955   8.755   6.062 -0.0304 -0.5568  0.3428
  925YOPE   PO412234   3.132   9.254   5.979  0.4138  0.4469 -0.0878
  925YOPE   GL112235   3.130   9.104   6.404  0.0160  0.0123  0.2220
  925YOPE   GL212236   3.312   9.389   6.380 -0.1786 -0.2924 -0.1463
  925YOPE   C1A12237   3.207   9.173   6.815  0.0146  0.3206 -0.0687
  925YOPE   D2A12238   3.009   9.188   7.164 -0.2213 -0.1238  0.0930
  925YOPE   C3A12239   3.192   9.044   7.453 -0.1301  0.1193  0.2169
  925YOPE   C4A12240   3.282   8.790   7.753 -0.1143 -0.3644  0.1292
  925YOPE   C1B12241   3.180   9.648   6.838 -0.0907 -0.4448 -0.2981
  925YOPE   C2B12242   3.370   9.617   7.188  0.2768  0.1653  0.0503
  925YOPE   D3B12243   3.371   9.943   7.618  0.2173 -0.1449 -0.0114
  925YOPE   C4B12244   3.442  10.233   7.823  0.1663  0.0399 -0.1515
  926YOPE   NH312245  14.042   7.195   5.618  0.0422  0.1435 -0.1413
  926YOPE   PO412246  14.181   7.617   5.856 -0.2734  0.2982  0.1987
  926YOPE   GL112247  14.066   7.357   6.207 -0.1606  0.2836 -0.1028
  926YOPE   GL212248  13.913   7.604   6.334 -0.1387 -0.0706 -0.1201
  926YOPE   C1A12249  14.246   7.379   6.690  0.0198  0.0100 -0.0762
  926YOPE   D2A12250  14.532   7.236   6.912  0.0354  0.2126 -0.0869
  926YOPE   C3A12251  14.399   6.985   7.317 -0.0441 -0.2844 -0.2925
  926YOPE   C4A12252  14.165   6.734   7.323 -0.1997 -0.0681 -0.1098
  926YOPE   C1B12253  13.544   7.706   6.620  0.0172  0.0339  0.2975
  926YOPE   C2B12254  13.303   7.788   6.957 -0.1431  0.1449 -0.0869
  926YOPE   D3B12255  12.953   7.813   7.350 -0.2862  0.1644  0.4655
  926YOPE   C4B12256  12.841   7.839   7.707 -0.0289 -0.0572 -0.1249
  927YOPE   NH312257  18.525  13.749   6.501 -0.0816 -0.3936  0.2945
  927YOPE   PO412258  18.206  13.477   6.504 -0.2258  0.2632 -0.0057
  927YOPE   GL112259  18.247  13.636   6.957  0.0587  0.1022  0.0393
  927YOPE   GL212260  18.536  13.839   6.968 -0.1690 -0.0056 -0.2935
  927YOPE   C1A12261  18.184  13.868   7.292 -0.1821  0.3122  0.3406
  927YOPE   D2A12262  18.275  13.681   7.643  0.0173 -0.1286 -0.2504
  927YOPE   C3A12263  18.502  13.925   7.883  0.0363  0.0849  0.0568
  927YOPE   C4A12264  18.774  13.774   8.217  0.1233  0.0119 -0.0469
  927YOPE   C1B12265  18.763  13.868   7.382 -0.3739 -0.0285 -0.1251
  927YOPE   C2B12266  18.981  13.839   7.759 -0.0535 -0.1543 -0.1349
  927YOPE   D3B12267  19.326  13.746   8.079  0.0839  0.1803 -0.0086
  927YOPE   C4B12268  19.761  13.891   8.079  0.0536  0.0990 -0.0183
  928YOPE   NH312269  17.168  15.416   6.188  0.0788  0.2760 -0.0485
  928YOPE   PO412270  17.296  15.133   6.328  0.1231  0.0784 -0.0121
  928YOPE   GL112271  17.088  15.008   6.711 -0.1734 -0.0518 -0.2348
  928YOPE   GL212272  17.096  14.607   6.861  0.0129  0.0459  0.2413
  928YOPE   C1A12273  16.760  15.268   7.016 -0.4025 -0.0710 -0.0434
  928YOPE   D2A12274  16.896  15.634   7.295 -0.4391 -0.3653 -0.1730
  928YOPE   C3A12275  16.879  15.585   7.706 -0.1725  0.0718 -0.1304
  928YOPE   C4A12276  16.609  15.293   7.955 -0.0977 -0.0563 -0.2102
  928YOPE   C1B12277  17.207  14.811   7.159 -0.4281 -0.0994 -0.0002
  928YOPE   C2B12278  17.010  15.037   7.423 -0.0583 -0.2234  0.1008
  928YOPE   D3B12279  17.069  15.191   7.901 -0.1967  0.0204  0.2102
  928YOPE   C4B12280  17.235  15.295   8.416 -0.0470  0.0475  0.1026
  929YOPE   NH312281  11.215   4.892   5.978 -0.0578 -0.0090 -0.0833
  929YOPE   PO412282  11.633   4.914   5.875 -0.0636 -0.1378  0.0179
  929YOPE   GL112283  11.641   4.682   6.324  0.0681 -0.0476  0.1368
  929YOPE   GL212284  11.877   4.342   6.354  0.1956 -0.2719 -0.0880
  929YOPE   C1A12285  11.642   4.645   6.701  0.2685 -0.2504  0.0855
  929YOPE   D2A12286  11.730   4.641   7.075  0.0258  0.5929  0.4557
  929YOPE   C3A12287  11.869   4.395   7.429  0.0094 -0.1023 -0.0609
  929YOPE   C4A12288  11.730   4.122   7.725  0.1258 -0.3276  0.3657
  929YOPE   C1B12289  12.041   4.350   6.732 -0.1500  0.0736  0.1542
  929YOPE   C2B12290  12.204   4.230   7.106  0.0312  0.1886  0.0614
  929YOPE   D3B12291  12.244   4.112   7.505 -0.0778  0.3784 -0.1107
  929YOPE   C4B12292  12.164   4.226   7.940  0.1184 -0.1310  0.5762
  930YOPE   NH312293  14.755  18.008   5.728 -0.2287  0.3066  0.3272
  930YOPE   PO412294  14.407  18.120   6.051 -0.0737 -0.1369  0.1849
  930YOPE   GL112295  14.107  17.924   6.357  0.1945  0.1084  0.5412
  930YOPE   GL212296  13.863  18.221   6.422  0.3416 -0.0304 -0.2349
  930YOPE   C1A12297  14.068  17.785   6.759 -0.1771  0.1393 -0.1304
  930YOPE   D2A12298  14.088  18.064   7.249  0.0773  0.0238 -0.0726
  930YOPE   C3A12299  14.012  18.354   7.554 -0.1177  0.1078  0.0143
  930YOPE   C4A12300  13.744  18.501   7.770  0.1457  0.4267  0.0713
  930YOPE   C1B12301  14.082  18.296   6.787  0.1734 -0.3073  0.2680
  930YOPE   C2B12302  14.038  18.657   7.179  0.0584  0.1088  0.1038
  930YOPE   D3B12303  13.984  18.891   7.677 -0.2323 -0.1776 -0.2449
  930YOPE   C4B12304  14.109  19.172   7.950 -0.2841  0.0312  0.3452
  931YOPE   NH312305   7.335   4.383   6.263  0.1844  0.3953  0.1628
  931YOPE   PO412306   6.912   4.221   6.058  0.2405  0.1091 -0.3134
  931YOPE   GL112307   6.860   4.058   6.417  0.0119 -0.1957 -0.0079
  931YOPE   GL212308   7.050   3.926   6.443 -0.2528 -0.4479 -0.2682
  931YOPE   C1A12309   6.610   3.895   6.875 -0.0907  0.2028  0.0387
  931YOPE   D2A12310   6.462   3.990   7.215  0.2497  0.2576  0.1017
  931YOPE   C3A12311   6.769   3.933   7.546 -0.1021 -0.2277 -0.0606
  931YOPE   C4A12312   6.934   4.092   7.899 -0.0129  0.1080 -0.0597
  931YOPE   C1B12313   7.067   3.981   6.856 -0.4590 -0.1670 -0.0582
  931YOPE   C2B12314   7.110   3.965   7.189 -0.0793  0.0798 -0.3885
  931YOPE   D3B12315   7.239   3.781   7.599 -0.1308  0.1157  0.2329
  931YOPE   C4B12316   7.365   3.561   7.911 -0.2965 -0.0354  0.3435
  932YOPE   NH312317  14.092  11.587   5.221  0.0423 -0.0506 -0.0210
  932YOPE   PO412318  14.295  11.243   5.526 -0.1598  0.0857  0.1932
  932YOPE   GL112319  14.279  11.419   5.910 -0.1514 -0.0753 -0.1544
  932YOPE   GL212320  14.665  11.431   5.859  0.1076  0.0650 -0.1239
  932YOPE   C1A12321  14.247  11.387   6.384  0.0431  0.1822  0.0918
  932YOPE   D2A12322  14.271  11.445   6.703  0.0613 -0.0369 -0.2068
  932YOPE   C3A12323  14.572  11.839   6.855  0.0107 -0.2086  0.0935
  932YOPE   C4A12324  14.546  12.306   6.921  0.0161  0.0442  0.2342
  932YOPE   C1B12325  14.579  11.092   6.109  0.2686  0.1711  0.0945
  932YOPE   C2B12326  14.442  10.970   6.518 -0.3638  0.0389 -0.1678
  932YOPE   D3B12327  14.547  10.945   7.014  0.1423 -0.1420  0.0291
  932YOPE   C4B12328  14.489  11.305   7.127  0.0771 -0.0168 -0.3863
  933YOPE   NH312329  15.941  16.072   6.038  0.0754  0.4937  0.1424
  933YOPE   PO412330  16.237  16.391   6.163  0.0532 -0.1374  0.0091
  933YOPE   GL112331  15.983  16.304   6.503 -0.2580 -0.2966 -0.1847
  933YOPE   GL212332  15.821  16.555   6.408  0.1390  0.0077 -0.0967
  933YOPE   C1A12333  15.686  16.285   6.858  0.1719 -0.0978  0.2376
  933YOPE   D2A12334  15.784  16.372   7.259  0.1559 -0.0790 -0.3351
  933YOPE   C3A12335  15.663  16.223   7.579  0.2959 -0.0123 -0.0220
  933YOPE   C4A12336  15.414  16.117   7.892 -0.0776 -0.3016 -0.0575
  933YOPE   C1B12337  15.789  16.809   6.841 -0.2040 -0.0623  0.0853
  933YOPE   C2B12338  15.672  16.872   7.286  0.2008 -0.0959  0.2147
  933YOPE   D3B12339  15.729  16.749   7.757  0.0115  0.0271 -0.0419
  933YOPE   C4B12340  15.629  17.000   8.159  0.1172  0.2011 -0.3021
  934YOPE   NH312341  16.205  13.251   5.910 -0.2334 -0.1352  0.2069
  934YOPE   PO412342  16.389  13.527   5.910  0.1252 -0.2377 -0.1877
  934YOPE   GL112343  16.235  13.471   6.372 -0.0260 -0.0462  0.2363
  934YOPE   GL212344  15.956  13.641   6.533 -0.1114 -0.1760 -0.2319
  934YOPE   C1A12345  16.384  13.544   6.784 -0.0671 -0.4482  0.0403
  934YOPE   D2A12346  16.707  13.804   6.945 -0.0217 -0.1245  0.1911
  934YOPE   C3A12347  16.734  13.748   7.401 -0.0732  0.0178 -0.1436
  934YOPE   C4A12348  16.713  13.844   7.796  0.1283  0.0528  0.0894
  934YOPE   C1B12349  15.862  13.496   6.960 -0.1255 -0.0012  0.1171
  934YOPE   C2B12350  15.823  13.455   7.382  0.1573  0.1608  0.0223
  934YOPE   D3B12351  15.599  13.379   7.767  0.0212  0.4856  0.2146
  934YOPE   C4B12352  15.319  13.284   8.149 -0.1732  0.4121 -0.1123
  935YOPE   NH312353   1.230   2.970   5.791 -0.1068  0.0747 -0.0989
  935YOPE   PO412354   1.611   2.707   5.840  0.0012  0.2243 -0.0141
  935YOPE   GL112355   1.614   2.617   6.279 -0.0788 -0.2118  0.3120
  935YOPE   GL212356   1.594   2.340   6.168  0.0756  0.1493 -0.0942
  935YOPE   C1A12357   1.738   2.504   6.672 -0.1822 -0.2411  0.2295
  935YOPE   D2A12358   1.680   2.499   7.164  0.0497  0.0122 -0.3771
  935YOPE   C3A12359   1.991   2.215   7.429 -0.1198  0.0358  0.1464
  935YOPE   C4A12360   2.296   2.017   7.668  0.0654 -0.2387 -0.2830
  935YOPE   C1B12361   1.319   2.293   6.469 -0.3650  0.1417 -0.1174
  935YOPE   C2B12362   1.212   2.385   6.930  0.2751 -0.0487  0.2256
  935YOPE   D3B12363   1.240   2.167   7.272 -0.4010 -0.3201  0.0906
  935YOPE   C4B12364   1.289   2.175   7.778  0.1419  0.2091 -0.1017
  936YOPE   NH312365   9.163   7.563   5.831 -0.0351  0.4448  0.0947
  936YOPE   PO412366   8.760   7.446   5.783 -0.0753  0.1375  0.1869
  936YOPE   GL112367   8.678   7.522   6.161 -0.2644  0.2607  0.0232
  936YOPE   GL212368   8.994   7.510   6.322  0.3720 -0.4345 -0.0458
  936YOPE   C1A12369   8.468   7.566   6.532  0.2412  0.1012  0.0126
  936YOPE   D2A12370   8.174   7.332   6.874  0.3204  0.0375 -0.1769
  936YOPE   C3A12371   8.316   7.429   7.276 -0.0978 -0.0620  0.0926
  936YOPE   C4A12372   8.542   7.573   7.594  0.0120 -0.2740 -0.1957
  936YOPE   C1B12373   9.090   7.847   6.586  0.0692 -0.0736 -0.0986
  936YOPE   C2B12374   9.026   8.047   6.955 -0.0848 -0.2020  0.0073
  936YOPE   D3B12375   8.936   8.271   7.317 -0.0089 -0.0287  0.3248
  936YOPE   C4B12376   8.861   8.625   7.490  0.2711 -0.2540 -0.0815
  937YOPE   NH312377   1.955   1.672   5.377 -0.0837 -0.2514 -0.0116
  937YOPE   PO412378   1.872   1.493   5.775  0.0805  0.0079  0.2227
  937YOPE   GL112379   1.677   1.516   6.203 -0.1032  0.3001 -0.1853
  937YOPE   GL212380   1.352   1.355   6.238 -0.1804  0.1910 -0.2958
  937YOPE   C1A12381   1.554   1.874   6.566 -0.0385 -0.1412 -0.3671
  937YOPE   D2A12382   1.608   2.092   6.989 -0.3492  0.2204 -0.0910
  937YOPE   C3A12383   1.596   1.788   7.370  0.1787  0.2356  0.1196
  937YOPE   C4A12384   1.756   1.920   7.705  0.1795 -0.1878 -0.1930
  937YOPE   C1B12385   1.468   1.366   6.747  0.0475  0.2424 -0.0227
  937YOPE   C2B12386   1.453   1.296   7.215  0.1897 -0.0480 -0.0705
  937YOPE   D3B12387   1.458   1.364   7.588 -0.0365  0.0177  0.1391
  937YOPE   C4B12388   1.783   1.417   7.809  0.2059 -0.1241  0.1064
  938YOPE   NH312389   7.430   7.828   5.869  0.1217 -0.0300  0.3299
  938YOPE   PO412390   7.022   7.858   5.586  0.0063  0.0388 -0.1388
  938YOPE   GL112391   6.887   7.758   6.044  0.2949  0.3569 -0.0442
  938YOPE   GL212392   6.841   7.555   6.242 -0.0727  0.0102 -0.0357
  938YOPE   C1A12393   6.742   7.989   6.447  0.1561  0.2739  0.3005
  938YOPE   D2A12394   6.628   7.966   6.864 -0.3281  0.1767 -0.1014
  938YOPE   C3A12395   6.759   7.878   7.269 -0.1778  0.1258  0.0383
  938YOPE   C4A12396   6.808   7.948   7.695  0.0559 -0.2705  0.2263
  938YOPE   C1B12397   6.677   7.405   6.506 -0.2876  0.4203  0.2402
  938YOPE   C2B12398   6.693   7.416   6.936  0.0235 -0.3388 -0.1379
  938YOPE   D3B12399   6.717   7.347   7.373 -0.0991  0.1592  0.3519
  938YOPE   C4B12400   6.931   7.111   7.640  0.1775  0.0058  0.1636
  939YOPE   NH312401   2.235  11.703   6.074  0.1926  0.0524 -0.4289
  939YOPE   PO412402   1.759  11.538   6.255 -0.0840  0.0480  0.0709
  939YOPE   GL112403   1.890  11.394   6.745  0.2322 -0.0830 -0.0857
  939YOPE   GL212404   2.106  11.201   6.817  0.1279 -0.0848  0.1262
  939YOPE   C1A12405   1.768  11.396   7.164 -0.2245  0.0850 -0.0995
  939YOPE   D2A12406   2.086  11.412   7.500 -0.3087 -0.0866  0.0407
  939YOPE   C3A12407   2.149  11.290   7.928 -0.0806 -0.0313  0.1581
  939YOPE   C4A12408   2.271  11.267   8.421 -0.1675 -0.2717 -0.1116
  939YOPE   C1B12409   2.395  11.167   7.206  0.1277 -0.0775  0.0443
  939YOPE   C2B12410   2.543  11.288   7.611  0.0473 -0.0795  0.0090
  939YOPE   D3B12411   2.587  11.210   8.084 -0.1733 -0.2790 -0.1785
  939YOPE   C4B12412   2.925  11.316   8.360  0.0647  0.5043 -0.3247
  940YOPE   NH312413   6.164  13.557   5.725 -0.2128 -0.2694  0.2785
  940YOPE   PO412414   5.906  13.194   5.555  0.3290  0.2083 -0.2123
  940YOPE   GL112415   5.824  13.254   6.002 -0.0315 -0.0296  0.1592
  940YOPE   GL212416   5.994  12.996   6.190 -0.0633 -0.0732  0.0422
  940YOPE   C1A12417   5.531  13.113   6.297  0.1584 -0.1746 -0.0686
  940YOPE   D2A12418   5.443  13.152   6.724  0.1741 -0.0967 -0.1579
  940YOPE   C3A12419   5.552  13.180   7.229  0.0124  0.0967 -0.0829
  940YOPE   C4A12420   5.649  13.239   7.762 -0.0056 -0.1914  0.3754
  940YOPE   C1B12421   5.900  12.812   6.497 -0.0529  0.1798 -0.2010
  940YOPE   C2B12422   5.946  12.776   6.893 -0.2084  0.3337 -0.3155
  940YOPE   D3B12423   6.037  12.800   7.241 -0.1609  0.0796 -0.0508
  940YOPE   C4B12424   6.242  12.953   7.508  0.0960  0.2644 -0.1381
  941YOPE   NH312425   9.968  13.515   5.316 -0.1779 -0.3855  0.0561
  941YOPE   PO412426   9.973  13.161   5.385  0.3906 -0.0900 -0.1101
  941YOPE   GL112427   9.639  13.423   5.653  0.0590 -0.2819  0.0229
  941YOPE   GL212428   9.438  13.677   5.446  0.2369 -0.0527 -0.0464
  941YOPE   C1A12429   9.527  13.316   5.986  0.1026 -0.1318 -0.2251
  941YOPE   D2A12430   9.470  12.809   6.197  0.1836 -0.2033 -0.2246
  941YOPE   C3A12431   9.246  12.472   6.244 -0.1347  0.1439  0.0776
  941YOPE   C4A12432   9.160  12.502   6.561 -0.0012  0.1870 -0.1115
  941YOPE   C1B12433   9.057  13.762   5.756 -0.0608 -0.4012  0.0782
  941YOPE   C2B12434   9.218  13.648   6.218 -0.1466  0.2605 -0.0785
  941YOPE   D3B12435   9.178  13.203   6.445  0.1349  0.1972  0.0201
  941YOPE   C4B12436   9.343  12.896   6.779  0.2563 -0.1093 -0.0732
  942POPC   NC312437   1.253   3.470   5.749  0.0487 -0.3171 -0.1270
  942POPC   PO412438   1.617   3.741   5.815 -0.2311  0.0914  0.0328
  942POPC   GL112439   1.770   3.795   6.174  0.1065  0.0648  0.1396
  942POPC   GL212440   1.836   3.568   6.350  0.0584 -0.3826  0.1128
  942POPC   C1A12441   1.367   3.754   6.496 -0.4070  0.0725 -0.0062
  942POPC   D2A12442   1.091   3.721   6.807  0.4267 -0.0487 -0.1912
  942POPC   C3A12443   0.927   4.057   7.050 -0.2051  0.0163 -0.1773
  942POPC   C4A12444   0.823   4.278   7.438  0.2316 -0.0074  0.0104
  942POPC   C1B12445   1.749   3.411   6.775  0.1832  0.0851 -0.3879
  942POPC   C2B12446   1.547   3.652   7.059 -0.0870 -0.0540 -0.3610
  942POPC   C3B12447   1.252   3.809   7.287 -0.1865 -0.1059  0.0275
  942POPC   C4B12448   1.294   4.183   7.754 -0.1358  0.2959  0.0799
  943POPC   NC312449  12.690   1.561   6.091  0.1415  0.1946 -0.0486
  943POPC   PO412450  12.329   1.810   6.008  0.0798 -0.4804 -0.1689
  943POPC   GL112451  12.179   1.959   6.346 -0.0517  0.1199 -0.0162
  943POPC   GL212452  11.849   1.835   6.438 -0.1895 -0.1531 -0.1061
  943POPC   C1A12453  12.295   1.963   6.776  0.1570  0.0100 -0.1700
  943POPC   D2A12454  12.114   1.811   7.200 -0.1875  0.1555  0.3108
  943POPC   C3A12455  12.380   1.777   7.619 -0.2256  0.2051  0.2762
  943POPC   C4A12456  12.428   2.092   7.988  0.1396 -0.0323  0.0535
  943POPC   C1B12457  11.810   2.025   6.803  0.2921 -0.1586  0.0889
  943POPC   C2B12458  11.759   2.130   7.166  0.4437  0.1255 -0.0350
  943POPC   C3B12459  11.556   1.981   7.544 -0.1852 -0.0441  0.5451
  943POPC   C4B12460  11.441   2.082   8.116  0.1729 -0.2079  0.0892
  944POPC   NC312461   9.456   6.251   5.984  0.1501 -0.0930 -0.0095
  944POPC   PO412462   9.069   5.970   6.031  0.2043 -0.0272 -0.2959
  944POPC   GL112463   9.038   5.819   6.408  0.1833  0.1150 -0.0729
  944POPC   GL212464   9.164   5.533   6.465  0.0999 -0.2096  0.1274
  944POPC   C1A12465   8.838   6.082   6.706  0.0826  0.3195 -0.3462
  944POPC   D2A12466   8.955   6.207   7.090  0.0852  0.2105 -0.2468
  944POPC   C3A12467   9.281   6.207   7.330 -0.0279 -0.0648  0.0260
  944POPC   C4A12468   9.548   6.211   7.692  0.2077 -0.1369  0.0493
  944POPC   C1B12469   9.224   5.778   6.907  0.1360  0.3702  0.0265
  944POPC   C2B12470   9.414   5.701   7.347 -0.0279  0.0193 -0.1375
  944POPC   C3B12471   9.473   5.672   7.702 -0.0703 -0.0594  0.3591
  944POPC   C4B12472   9.314   5.928   8.020  0.3922 -0.0196  0.0895
  945POPC   NC312473  12.685  12.123   5.746  0.2590 -0.2451  0.1281
  945POPC   PO412474  12.678  11.591   5.776 -0.2155  0.0361 -0.0910
  945POPC   GL112475  12.755  11.374   6.060  0.1585 -0.2921  0.0501
  945POPC   GL212476  12.541  11.165   6.034  0.1828  0.4055  0.0164
  945POPC   C1A12477  12.974  11.281   6.412  0.0641  0.2757  0.1270
  945POPC   D2A12478  13.124  11.403   6.832 -0.5118 -0.1684  0.3690
  945POPC   C3A12479  13.163  11.600   7.239 -0.0303 -0.0608 -0.0664
  945POPC   C4A12480  13.408  11.732   7.557  0.1893  0.1092 -0.1717
  945POPC   C1B12481  12.330  11.389   6.399 -0.4308  0.0169  0.1202
  945POPC   C2B12482  12.261  11.522   6.743 -0.1019  0.1428  0.2082
  945POPC   C3B12483  12.270  11.549   7.105 -0.0465 -0.1306  0.1664
  945POPC   C4B12484  12.403  11.571   7.503 -0.0367 -0.0345  0.0140
  946POPC   NC312485  17.749   7.461   5.853 -0.3349 -0.2466 -0.4230
  946POPC   PO412486  17.516   7.588   6.288 -0.3786  0.0812 -0.1537
  946POPC   GL112487  17.439   7.616   6.784 -0.2660  0.2148 -0.1379
  946POPC   GL212488  17.604   7.916   6.937  0.0426 -0.0681  0.1441
  946POPC   C1A12489  17.337   7.399   7.162  0.0518 -0.2846  0.2033
  946POPC   D2A12490  17.258   7.237   7.630 -0.1044 -0.1159  0.0283
  946POPC   C3A12491  17.721   7.245   7.897  0.2487  0.1429 -0.0585
  946POPC   C4A12492  17.950   7.584   7.905  0.1983 -0.0398  0.0118
  946POPC   C1B12493  17.571   8.101   7.374  0.2175 -0.2160 -0.0592
  946POPC   C2B12494  17.721   8.162   7.807  0.2100 -0.0364  0.2676
  946POPC   C3B12495  17.804   8.460   8.056  0.4850 -0.0516  0.2230
  946POPC   C4B12496  17.753   8.875   8.215  0.0900 -0.0651  0.2770
  947POPC   NC312497   2.602   6.618   5.606  0.3905  0.0309  0.0790
  947POPC   PO412498   2.792   6.292   5.613  0.1581  0.2181 -0.4214
  947POPC   GL112499   2.352   6.317   5.947 -0.2331  0.1171 -0.2556
  947POPC   GL212500   2.486   6.530   6.109  0.4581  0.1052  0.2237
  947POPC   C1A12501   2.121   6.137   6.317 -0.0213 -0.4650 -0.1002
  947POPC   D2A12502   1.930   6.080   6.671 -0.1523  0.2353  0.0432
  947POPC   C3A12503   1.619   6.284   6.786  0.0517  0.2820 -0.0767
  947POPC   C4A12504   1.512   6.608   7.122 -0.1573 -0.1263 -0.1398
  947POPC   C1B12505   2.560   6.351   6.481  0.0286 -0.2262  0.3513
  947POPC   C2B12506   2.431   6.042   6.704 -0.1324  0.2146 -0.0015
  947POPC   C3B12507   2.224   5.774   6.926 -0.0689 -0.1473 -0.0674
  947POPC   C4B12508   1.988   5.572   7.273  0.1146 -0.0111 -0.1579
  948POPC   NC312509   2.540   2.254   5.621 -0.4104 -0.0339 -0.1908
  948POPC   PO412510   2.861   2.200   6.067  0.0702  0.1053 -0.0948
  948POPC   GL112511   3.014   2.499   6.361  0.0603 -0.1037 -0.3829
  948POPC   GL212512   2.828   2.875   6.385 -0.1802 -0.0508  0.3462
  948POPC   C1A12513   3.264   2.399   6.737  0.1021 -0.3869  0.1264
  948POPC   D2A12514   3.676   2.532   6.892  0.5427  0.0264 -0.3889
  948POPC   C3A12515   3.820   2.535   7.299 -0.1013 -0.3164  0.5041
  948POPC   C4A12516   4.075   2.869   7.580 -0.2381  0.4988  0.1655
  948POPC   C1B12517   3.041   2.961   6.789 -0.0450  0.1814  0.0327
  948POPC   C2B12518   3.388   2.989   7.075 -0.0420  0.3265  0.2459
  948POPC   C3B12519   3.545   3.074   7.474  0.0592 -0.0591  0.2546
  948POPC   C4B12520   3.331   3.121   7.937 -0.0822  0.0161 -0.1015
  949POPC   NC312521   8.835   6.604   5.737  0.1500 -0.0131 -0.1101
  949POPC   PO412522   8.827   6.410   6.139 -0.1837  0.3009 -0.0159
  949POPC   GL112523   8.826   6.651   6.452  0.1687  0.1258 -0.2499
  949POPC   GL212524   8.982   6.870   6.467 -0.1162  0.0649  0.2571
  949POPC   C1A12525   8.710   6.599   6.925 -0.0577 -0.5542 -0.0422
  949POPC   D2A12526   8.609   6.439   7.357 -0.3052 -0.0976 -0.0236
  949POPC   C3A12527   8.993   6.641   7.599  0.1425  0.1824  0.4032
  949POPC   C4A12528   9.367   6.895   7.718 -0.0562 -0.0995  0.0835
  949POPC   C1B12529   8.737   7.165   6.774  0.1137  0.3582  0.2539
  949POPC   C2B12530   8.806   7.576   6.976 -0.0208  0.0769  0.1231
  949POPC   C3B12531   8.993   7.708   7.410  0.3521  0.4568  0.2092
  949POPC   C4B12532   9.344   7.524   7.545 -0.0132 -0.0380  0.1350
  950POPC   NC312533   7.319   7.010   5.532 -0.1188  0.1458 -0.0497
  950POPC   PO412534   7.151   6.937   5.922 -0.0014 -0.0312 -0.2549
  950POPC   GL112535   7.420   6.896   6.327  0.0562 -0.1980  0.1798
  950POPC   GL212536   7.644   7.114   6.375  0.1056 -0.0800 -0.0022
  950POPC   C1A12537   7.271   6.722   6.648  0.0189 -0.0142  0.1780
  950POPC   D2A12538   6.833   6.834   6.752 -0.0262 -0.1283 -0.2307
  950POPC   C3A12539   6.792   6.841   7.140 -0.0804 -0.0099 -0.5021
  950POPC   C4A12540   6.578   6.811   7.445 -0.0318  0.1337  0.1576
  950POPC   C1B12541   7.730   7.062   6.818 -0.0488 -0.1854  0.2190
  950POPC   C2B12542   7.910   6.974   7.272 -0.0497 -0.1847  0.1985
  950POPC   C3B12543   7.774   6.846   7.762  0.0046 -0.0851 -0.2457
  950POPC   C4B12544   7.955   6.748   8.145  0.1806 -0.0894 -0.3398
  951POPC   NC312545   1.564   6.742   5.597 -0.2281  0.2232  0.0424
  951POPC   PO412546   1.990   6.452   5.568  0.0916 -0.4450 -0.0146
  951POPC   GL112547   1.976   6.692   5.986 -0.0207 -0.0470 -0.1793
  951POPC   GL212548   2.131   6.854   6.209 -0.1310 -0.0800  0.2273
  951POPC   C1A12549   1.829   6.546   6.401 -0.0263  0.1110 -0.0454
  951POPC   D2A12550   1.876   6.849   6.825 -0.1707  0.0398 -0.1512
  951POPC   C3A12551   1.983   6.702   7.232  0.1004  0.0723 -0.0463
  951POPC   C4A12552   2.093   6.415   7.587 -0.0558 -0.0160 -0.0753
  951POPC   C1B12553   2.315   6.787   6.583 -0.1695 -0.0351  0.0532
  951POPC   C2B12554   2.249   6.462   6.805 -0.1030 -0.1113  0.1920
  951POPC   C3B12555   2.053   6.231   7.132  0.1908 -0.0758  0.1532
  951POPC   C4B12556   1.859   6.039   7.510  0.3529 -0.2343  0.0134
  952POPC   NC312557   8.729  14.357   5.077 -0.1367  0.0626 -0.1265
  952POPC   PO412558   9.178  14.504   4.952  0.0524  0.4562  0.0386
  952POPC   GL112559   9.201  14.549   5.294 -0.0302 -0.0739 -0.1955
  952POPC   GL212560   9.359  14.249   5.439 -0.2683 -0.2875 -0.2957
  952POPC   C1A12561   9.168  14.679   5.712  0.0364  0.0612  0.1756
  952POPC   D2A12562   9.383  14.560   6.103  0.0218 -0.0346  0.2100
  952POPC   C3A12563   9.413  14.799   6.333 -0.0852  0.1041 -0.1608
  952POPC   C4A12564   9.483  15.002   6.735  0.3763 -0.0114  0.2168
  952POPC   C1B12565   9.413  14.113   5.829  0.0985 -0.1129  0.2610
  952POPC   C2B12566   9.309  14.114   6.308 -0.0329 -0.0401 -0.0152
  952POPC   C3B12567   9.277  14.517   6.697 -0.2297  0.2113  0.2240
  952POPC   C4B12568   9.300  14.726   7.102  0.0618  0.1381 -0.3996
  953POPC   NC312569  13.496  17.374   5.898 -0.1855  0.0191  0.1520
  953POPC   PO412570  13.907  17.515   5.985 -0.0463  0.2220 -0.1485
  953POPC   GL112571  13.708  17.469   6.324 -0.3138  0.0380 -0.0252
  953POPC   GL212572  13.516  17.752   6.277 -0.1220 -0.3294 -0.0392
  953POPC   C1A12573  13.572  17.637   6.725 -0.0666 -0.1989  0.2103
  953POPC   D2A12574  13.761  17.623   7.203 -0.0774 -0.1616  0.2057
  953POPC   C3A12575  13.848  17.871   7.602 -0.1516  0.2976  0.0759
  953POPC   C4A12576  13.854  18.014   8.026  0.0124 -0.0590  0.3296
  953POPC   C1B12577  13.200  17.539   6.458  0.3333 -0.2213  0.1684
  953POPC   C2B12578  12.949  17.374   6.858  0.1766  0.1073  0.0239
  953POPC   C3B12579  12.656  17.341   7.196 -0.0366  0.0779 -0.2104
  953POPC   C4B12580  12.344  17.399   7.300  0.1137 -0.2714 -0.3506
  954POPC   NC312581   0.711  11.964   5.718  0.4023  0.1265 -0.2925
  954POPC   PO412582   0.895  12.298   5.941 -0.2610  0.0012 -0.0492
  954POPC   GL112583   0.742  12.526   6.237  0.1706  0.1368 -0.3015
  954POPC   GL212584   0.569  12.313   6.464 -0.0081 -0.0867 -0.3417
  954POPC   C1A12585   0.874  12.856   6.478 -0.1051  0.2423  0.1246
  954POPC   D2A12586   0.979  12.874   6.934 -0.0077 -0.0904  0.0204
  954POPC   C3A12587   0.929  13.284   7.084  0.0257 -0.2209  0.0896
  954POPC   C4A12588   0.695  13.620   7.318  0.0367  0.0742 -0.2633
  954POPC   C1B12589   0.717  12.218   6.701 -0.1409  0.2337 -0.0214
  954POPC   C2B12590   0.833  12.144   7.088 -0.0103  0.2928 -0.4907
  954POPC   C3B12591   1.160  12.298   7.372  0.0330 -0.2008 -0.1216
  954POPC   C4B12592   1.513  12.576   7.707 -0.2679  0.1211  0.2366
  955POPC   NC312593   9.580   9.561   5.262  0.1212  0.0485  0.1593
  955POPC   PO412594   9.597  10.056   5.303 -0.3711 -0.0628 -0.2750
  955POPC   GL112595   9.829  10.073   5.754  0.0363  0.1245  0.0935
  955POPC   GL212596  10.168  10.178   5.830  0.0763 -0.0756 -0.0520
  955POPC   C1A12597   9.638   9.849   6.037  0.0444 -0.0032 -0.1834
  955POPC   D2A12598   9.651   9.696   6.396  0.1722  0.2201 -0.2125
  955POPC   C3A12599   9.446  10.024   6.664 -0.1415 -0.1475  0.0080
  955POPC   C4A12600   9.411  10.037   7.095 -0.2410  0.3990  0.0935
  955POPC   C1B12601  10.006   9.951   6.308 -0.1671 -0.1101 -0.1256
  955POPC   C2B12602  10.057   9.838   6.614 -0.0240  0.0167  0.0773
  955POPC   C3B12603   9.803   9.756   6.879  0.0158  0.3183  0.0094
  955POPC   C4B12604   9.583   9.625   7.219 -0.0131  0.0659  0.0632
  956POPC   NC312605  10.266   2.596   5.359 -0.2848  0.1730  0.2793
  956POPC   PO412606  10.525   2.694   5.719 -0.1904  0.1535  0.2777
  956POPC   GL112607  10.614   2.780   6.214  0.2365  0.2089 -0.0224
  956POPC   GL212608  10.285   2.748   6.354  0.2741  0.2773  0.0498
  956POPC   C1A12609  11.000   2.778   6.448  0.0447  0.2182  0.0247
  956POPC   D2A12610  11.072   2.765   6.895  0.4096 -0.0608 -0.0086
  956POPC   C3A12611  11.211   2.694   7.385 -0.3395 -0.0797 -0.1306
  956POPC   C4A12612  11.258   2.741   7.847 -0.0364 -0.0256 -0.4261
  956POPC   C1B12613  10.557   2.972   6.712  0.2913 -0.0251 -0.0420
  956POPC   C2B12614  10.666   2.972   7.106  0.3015  0.1500 -0.0847
  956POPC   C3B12615  10.615   2.956   7.509  0.2154 -0.3035 -0.1072
  956POPC   C4B12616  10.882   3.156   7.794 -0.0323  0.1440 -0.0153
  957POPC   NC312617   3.545  12.525   5.877  0.1452 -0.0617  0.0830
  957POPC   PO412618   3.471  12.082   6.057  0.1146  0.0248  0.2907
  957POPC   GL112619   3.789  11.985   6.418  0.0824  0.1967  0.0510
  957POPC   GL212620   4.051  12.075   6.426  0.0728  0.0634  0.0678
  957POPC   C1A12621   3.842  11.953   6.926 -0.0680  0.0924  0.1308
  957POPC   D2A12622   4.094  12.171   7.242 -0.2305  0.1317  0.2446
  957POPC   C3A12623   4.148  11.917   7.600  0.0583  0.1913 -0.2315
  957POPC   C4A12624   4.462  11.731   7.923 -0.3301 -0.3871 -0.2002
  957POPC   C1B12625   4.422  12.136   6.801  0.0132 -0.1237 -0.0400
  957POPC   C2B12626   4.596  12.203   7.237 -0.2752 -0.0479  0.2830
  957POPC   C3B12627   4.584  12.211   7.666 -0.0512 -0.0878  0.0938
  957POPC   C4B12628   4.782  12.148   7.982 -0.1740  0.0071  0.2251
  958POPC   NC312629   6.051   2.464   5.853  0.3951 -0.1178 -0.0951
  958POPC   PO412630   6.068   2.897   5.863 -0.0890  0.3831 -0.1440
  958POPC   GL112631   6.309   2.852   6.253 -0.0008  0.0176 -0.0464
  958POPC   GL212632   6.169   2.949   6.512  0.1913  0.0856 -0.0286
  958POPC   C1A12633   6.349   2.514   6.542 -0.0099  0.0587 -0.1155
  958POPC   D2A12634   6.633   2.197   6.874 -0.4500 -0.1715  0.2847
  958POPC   C3A12635   6.910   2.014   7.148 -0.3516  0.0094 -0.4375
  958POPC   C4A12636   7.093   1.573   7.247  0.2231 -0.1333 -0.2533
  958POPC   C1B12637   5.836   3.165   6.724  0.0486 -0.0959  0.0866
  958POPC   C2B12638   5.607   3.330   7.037  0.1409 -0.0561 -0.0964
  958POPC   C3B12639   5.537   3.219   7.389 -0.0830 -0.0826  0.1425
  958POPC   C4B12640   5.217   3.355   7.696 -0.0951 -0.0068  0.1629
  959POPC   NC312641   7.565   5.096   5.710  0.1237 -0.0114  0.2973
  959POPC   PO412642   7.550   4.731   5.887  0.0216  0.0584  0.4115
  959POPC   GL112643   7.667   4.850   6.251 -0.0879 -0.0915 -0.0841
  959POPC   GL212644   7.472   4.849   6.416 -0.3645 -0.1608 -0.2083
  959POPC   C1A12645   7.845   4.521   6.561  0.1628  0.1190  0.2413
  959POPC   D2A12646   8.080   4.616   6.894 -0.2369  0.1066  0.1499
  959POPC   C3A12647   7.986   4.528   7.360  0.3450 -0.1231 -0.1534
  959POPC   C4A12648   7.798   4.318   7.627  0.1156  0.1650 -0.0884
  959POPC   C1B12649   7.325   5.186   6.657 -0.1239  0.1484 -0.1321
  959POPC   C2B12650   7.384   5.438   7.035  0.4694 -0.2724  0.0738
  959POPC   C3B12651   7.186   5.545   7.416 -0.0603 -0.0827 -0.1759
  959POPC   C4B12652   7.286   5.557   7.847  0.2260 -0.1056  0.3287
  960POPC   NC312653   5.041   5.597   5.800 -0.0113 -0.1050 -0.0670
  960POPC   PO412654   4.916   6.007   5.659  0.2542 -0.2921 -0.2682
  960POPC   GL112655   4.957   5.975   6.143  0.0796 -0.2093 -0.4133
  960POPC   GL212656   5.006   5.735   6.325 -0.1151 -0.0837  0.1719
  960POPC   C1A12657   4.932   6.140   6.567 -0.2886  0.0666  0.1323
  960POPC   D2A12658   5.152   6.216   6.938 -0.0029  0.0674  0.2423
  960POPC   C3A12659   5.047   6.174   7.335  0.0759 -0.0264  0.1450
  960POPC   C4A12660   5.118   6.202   7.698 -0.0122  0.2630  0.0969
  960POPC   C1B12661   4.854   5.715   6.764 -0.0822  0.1884  0.2730
  960POPC   C2B12662   4.656   6.046   7.042  0.1683 -0.0595  0.0705
  960POPC   C3B12663   4.504   6.164   7.332  0.0148  0.0348  0.2980
  960POPC   C4B12664   4.615   6.056   7.691 -0.1135 -0.0384 -0.1382
  961POPC   NC312665   4.338  16.011   5.142 -0.2156 -0.0753  0.2266
  961POPC   PO412666   4.522  16.247   5.436 -0.3170 -0.0797 -0.1512
  961POPC   GL112667   4.392  16.087   5.744 -0.2843  0.3583  0.1490
  961POPC   GL212668   4.197  15.887   5.841 -0.0250 -0.2610  0.1601
  961POPC   C1A12669   4.433  16.152   6.195 -0.1032 -0.2749  0.0800
  961POPC   D2A12670   4.845  16.265   6.469 -0.0158  0.1060  0.1335
  961POPC   C3A12671   4.918  16.593   6.757  0.2307 -0.1206 -0.1679
  961POPC   C4A12672   4.564  16.816   6.928 -0.4245  0.0329 -0.0557
  961POPC   C1B12673   4.058  15.798   6.331 -0.3927  0.3555 -0.0256
  961POPC   C2B12674   4.032  16.068   6.695  0.1310 -0.1378  0.0306
  961POPC   C3B12675   3.905  16.046   7.054 -0.1303 -0.0098  0.0289
  961POPC   C4B12676   3.695  16.134   7.460  0.1869  0.3100 -0.0538
  962POPC   NC312677  10.012   1.420   5.648 -0.0641  0.0643  0.2656
  962POPC   PO412678   9.543   1.278   5.577 -0.0826 -0.4793  0.0532
  962POPC   GL112679   9.720   1.024   5.911  0.2895 -0.0977 -0.0870
  962POPC   GL212680   9.930   1.083   6.202 -0.2401  0.1589 -0.0118
  962POPC   C1A12681   9.682   0.630   6.223 -0.2046 -0.1684  0.1886
  962POPC   D2A12682   9.663   0.270   6.152  0.0865 -0.1683 -0.1652
  962POPC   C3A12683   9.921  -0.089   6.299  0.2079 -0.2881  0.1122
  962POPC   C4A12684  10.307  -0.084   6.393  0.0780 -0.0470 -0.1863
  962POPC   C1B12685   9.899   0.873   6.644  0.0748 -0.1345 -0.1147
  962POPC   C2B12686   9.970   0.743   6.990  0.0504 -0.2295 -0.1769
  962POPC   C3B12687   9.787   0.595   7.319 -0.2107 -0.1614  0.3900
  962POPC   C4B12688   9.761   0.290   7.563  0.0989 -0.2817 -0.1109
  963POPC   NC312689   2.600   4.108   5.773 -0.0093 -0.0738 -0.2767
  963POPC   PO412690   2.523   3.688   5.883  0.0199 -0.3297 -0.0413
  963POPC   GL112691   2.314   3.661   6.196  0.0422  0.1042 -0.0206
  963POPC   GL212692   2.581   3.772   6.420 -0.0105 -0.0232 -0.1054
  963POPC   C1A12693   2.170   3.677   6.677 -0.0415 -0.0047 -0.0821
  963POPC   D2A12694   2.039   3.670   7.092 -0.1175 -0.0225  0.2047
  963POPC   C3A12695   2.370   3.462   7.437 -0.0426 -0.0704 -0.1875
  963POPC   C4A12696   2.389   3.536   7.862  0.1132  0.1262  0.1006
  963POPC   C1B12697   2.558   3.807   6.936  0.2398 -0.2388  0.0763
  963POPC   C2B12698   2.443   3.923   7.430  0.1017  0.0351  0.2054
  963POPC   C3B12699   2.368   4.002   7.834 -0.0994 -0.0935  0.3416
  963POPC   C4B12700   2.284   4.071   8.236 -0.4663  0.0088 -0.3062
  964POPC   NC312701   8.648   8.499   5.604  0.1031  0.2271 -0.1446
  964POPC   PO412702   9.011   8.222   5.575  0.0952  0.1337  0.2021
  964POPC   GL112703   9.072   8.034   6.078 -0.1398  0.1335 -0.1015
  964POPC   GL212704   9.151   8.239   6.191  0.1250 -0.1769 -0.0173
  964POPC   C1A12705   8.659   8.012   6.331 -0.0082  0.4703 -0.0042
  964POPC   D2A12706   8.575   7.999   6.788  0.1524  0.0186 -0.1265
  964POPC   C3A12707   8.707   8.454   6.903  0.2417  0.0693 -0.0543
  964POPC   C4A12708   9.005   8.809   6.947 -0.1114  0.2051  0.0376
  964POPC   C1B12709   9.106   8.362   6.619  0.4168 -0.2764  0.1059
  964POPC   C2B12710   9.353   8.452   6.962 -0.1705  0.2977  0.0364
  964POPC   C3B12711   9.332   8.668   7.455  0.1506 -0.4912  0.2036
  964POPC   C4B12712   9.218   9.002   7.732 -0.0516  0.1884 -0.2032
  965POPC   NC312713   1.227   4.954   5.492  0.0869  0.0332 -0.4326
  965POPC   PO412714   1.120   5.436   5.632 -0.0882  0.0391  0.2592
  965POPC   GL112715   1.101   5.291   5.980  0.0793 -0.0565 -0.1899
  965POPC   GL212716   0.842   5.052   6.067  0.1314 -0.1010 -0.1672
  965POPC   C1A12717   1.059   5.460   6.372 -0.4550  0.1375  0.2042
  965POPC   D2A12718   0.785   5.418   6.642  0.2913 -0.0497 -0.0680
  965POPC   C3A12719   0.629   5.211   7.162 -0.1685  0.0848 -0.0244
  965POPC   C4A12720   0.587   5.543   7.499 -0.0570 -0.3361  0.1250
  965POPC   C1B12721   0.740   4.654   6.122 -0.1167  0.3256 -0.0953
  965POPC   C2B12722   0.937   4.282   6.134 -0.2388 -0.1667 -0.0521
  965POPC   C3B12723   0.834   3.968   6.420 -0.1013  0.2073  0.0753
  965POPC   C4B12724   0.577   3.826   6.721  0.0242 -0.2396  0.0237
  966POPC   NC312725  12.625   7.329   5.742 -0.2491  0.0582 -0.0329
  966POPC   PO412726  12.504   7.781   5.684  0.0320 -0.0226 -0.1051
  966POPC   GL112727  12.483   7.741   6.103 -0.0884  0.0189 -0.2157
  966POPC   GL212728  12.215   7.940   6.208  0.1681 -0.3460  0.2105
  966POPC   C1A12729  12.613   7.890   6.437 -0.1136  0.1847  0.0441
  966POPC   D2A12730  12.591   7.942   6.990  0.2941  0.2591  0.0196
  966POPC   C3A12731  12.507   7.712   7.398  0.1324 -0.2681 -0.1030
  966POPC   C4A12732  12.489   7.402   7.665 -0.2302 -0.0680 -0.1641
  966POPC   C1B12733  12.218   7.992   6.672  0.2043 -0.2364  0.2068
  966POPC   C2B12734  12.079   7.966   7.067 -0.1295  0.3299 -0.1262
  966POPC   C3B12735  11.876   7.802   7.497 -0.1087  0.0983  0.0012
  966POPC   C4B12736  11.604   7.759   7.833 -0.4550  0.0502  0.3265
  967POPC   NC312737   4.398   4.423   5.858  0.2206 -0.4311  0.2048
  967POPC   PO412738   4.799   4.630   5.839 -0.5650 -0.1357 -0.1288
  967POPC   GL112739   4.940   4.965   6.143 -0.2035  0.0852  0.0770
  967POPC   GL212740   4.655   5.338   6.212  0.2057 -0.1399 -0.1197
  967POPC   C1A12741   5.008   5.183   6.525  0.3848  0.0981  0.0765
  967POPC   D2A12742   4.940   4.994   6.877 -0.0942  0.0047 -0.0088
  967POPC   C3A12743   4.851   5.323   7.068  0.2006 -0.1284  0.2828
  967POPC   C4A12744   4.846   5.676   7.348  0.1146 -0.1923  0.3352
  967POPC   C1B12745   4.501   5.353   6.677  0.2875  0.1411  0.0255
  967POPC   C2B12746   4.433   5.081   7.135  0.0202 -0.1327  0.1791
  967POPC   C3B12747   4.423   5.205   7.519  0.1929  0.0681  0.1134
  967POPC   C4B12748   4.406   4.949   7.888  0.3462  0.1425 -0.1558
  968POPC   NC312749  17.328   9.809   6.244 -0.0181  0.0822  0.1721
  968POPC   PO412750  17.396   9.430   6.211  0.0931 -0.0750 -0.2670
  968POPC   GL112751  17.233   9.470   6.644 -0.2837  0.4415 -0.4460
  968POPC   GL212752  17.391   9.721   6.700  0.3831  0.0574 -0.0169
  968POPC   C1A12753  17.021   9.677   7.047 -0.0570 -0.1147  0.1726
  968POPC   D2A12754  16.660  10.034   6.972 -0.1113 -0.0492 -0.1234
  968POPC   C3A12755  16.262   9.911   7.232 -0.1168 -0.3438  0.1880
  968POPC   C4A12756  16.020  10.049   7.661 -0.2302  0.4572 -0.1277
  968POPC   C1B12757  17.454   9.611   7.103  0.0211 -0.1430  0.0243
  968POPC   C2B12758  17.676   9.602   7.424 -0.1254  0.0405 -0.0393
  968POPC   C3B12759  17.847   9.551   7.838  0.0479  0.0675  0.0889
  968POPC   C4B12760  17.844   9.360   8.182 -0.2550 -0.2375  0.0716
  969POPC   NC312761  11.973  12.454   5.177  0.2781  0.2021  0.0303
  969POPC   PO412762  11.880  12.925   5.341  0.1804  0.2669 -0.1711
  969POPC   GL112763  11.735  13.077   5.781  0.0694  0.1546  0.3908
  969POPC   GL212764  11.936  13.417   5.785  0.0617 -0.0758  0.0909
  969POPC   C1A12765  11.616  12.829   6.103  0.1668 -0.3322 -0.0566
  969POPC   D2A12766  11.561  12.534   6.456  0.2966 -0.1540  0.0877
  969POPC   C3A12767  11.541  12.627   6.988  0.2056  0.0432  0.0506
  969POPC   C4A12768  11.489  12.876   7.198  0.0445 -0.3473 -0.0598
  969POPC   C1B12769  12.085  13.280   6.145 -0.1930  0.1090  0.0084
  969POPC   C2B12770  12.035  13.420   6.580 -0.1568  0.2722 -0.0826
  969POPC   C3B12771  11.976  13.769   6.871 -0.2032 -0.1600  0.1245
  969POPC   C4B12772  11.654  13.727   7.164 -0.0202 -0.4170  0.2233
  970POPC   NC312773  14.820   4.422   5.553 -0.3060 -0.1476  0.1154
  970POPC   PO412774  14.515   4.793   5.636 -0.0555  0.0434 -0.1914
  970POPC   GL112775  14.270   5.000   5.865 -0.2128 -0.1469 -0.1623
  970POPC   GL212776  13.925   4.917   5.883 -0.3106 -0.1261  0.1940
  970POPC   C1A12777  14.284   5.027   6.302  0.1507 -0.2736 -0.0785
  970POPC   D2A12778  14.187   4.994   6.690 -0.2128 -0.1509  0.1065
  970POPC   C3A12779  13.961   4.680   6.978 -0.0056  0.2151 -0.1475
  970POPC   C4A12780  14.048   4.749   7.497 -0.0935  0.0512 -0.0704
  970POPC   C1B12781  13.875   4.598   6.147  0.2337  0.0230  0.4078
  970POPC   C2B12782  13.751   4.598   6.523 -0.1092 -0.0263 -0.0272
  970POPC   C3B12783  13.658   4.990   6.732 -0.0334 -0.1883 -0.1942
  970POPC   C4B12784  13.716   5.051   7.127 -0.1087 -0.0130  0.0077
  971POPC   NC312785  10.828   8.884   4.886  0.3438 -0.0966 -0.0915
  971POPC   PO412786  11.039   8.813   5.265 -0.0821  0.3004 -0.1718
  971POPC   GL112787  10.797   8.954   5.600 -0.1280  0.0700 -0.0290
  971POPC   GL212788  10.938   8.863   5.776 -0.0815  0.0701 -0.1826
  971POPC   C1A12789  10.813   9.368   5.848  0.0723 -0.1749 -0.2959
  971POPC   D2A12790  11.000   9.411   6.235  0.2805  0.2825 -0.0489
  971POPC   C3A12791  10.909   9.188   6.572 -0.0272  0.0348  0.5648
  971POPC   C4A12792  10.735   9.071   6.977 -0.0100 -0.3656  0.1733
  971POPC   C1B12793  10.997   8.682   6.178 -0.1520 -0.0896  0.4084
  971POPC   C2B12794  11.207   8.759   6.460  0.3310  0.0370 -0.0600
  971POPC   C3B12795  11.215   8.883   6.844 -0.1116  0.1829  0.0502
  971POPC   C4B12796  11.089   8.919   7.310  0.1014 -0.0719 -0.0404
  972POPC   NC312797  14.915   9.259   5.389 -0.0977 -0.2152  0.1564
  972POPC   PO412798  15.132   9.401   5.810 -0.1581 -0.2173 -0.2402
  972POPC   GL112799  15.363   9.609   6.155  0.1265  0.2232 -0.3536
  972POPC   GL212800  15.662   9.407   6.152 -0.0629 -0.1016  0.1408
  972POPC   C1A12801  15.036   9.616   6.522  0.2692 -0.0883 -0.0764
  972POPC   D2A12802  14.899   9.736   6.924 -0.3512  0.1878 -0.1270
  972POPC   C3A12803  14.692   9.633   7.182  0.0063 -0.1654 -0.0966
  972POPC   C4A12804  14.446   9.344   7.499  0.0393  0.0556 -0.2762
  972POPC   C1B12805  15.554   9.588   6.591  0.2589 -0.0505 -0.1022
  972POPC   C2B12806  15.369   9.580   6.949  0.0092  0.1238 -0.2095
  972POPC   C3B12807  15.264   9.802   7.283 -0.0048 -0.0262  0.5536
  972POPC   C4B12808  15.174  10.107   7.519  0.0874  0.1215  0.1577
  973POPC   NC312809  11.363   4.101   5.543  0.1816 -0.0338 -0.2683
  973POPC   PO412810  11.808   4.040   5.604 -0.0998  0.0332  0.0686
  973POPC   GL112811  11.692   4.000   6.067  0.0944 -0.3101 -0.3745
  973POPC   GL212812  11.311   3.961   6.047 -0.2144 -0.0678 -0.0574
  973POPC   C1A12813  11.578   4.039   6.556  0.0615 -0.0981  0.1619
  973POPC   D2A12814  11.674   4.165   6.983  0.2503 -0.0943 -0.0714
  973POPC   C3A12815  11.800   3.804   7.239  0.0602 -0.1027  0.2391
  973POPC   C4A12816  11.776   3.638   7.574 -0.0892  0.0434  0.1149
  973POPC   C1B12817  11.103   3.835   6.346  0.0157 -0.3033  0.0071
  973POPC   C2B12818  11.134   3.811   6.790 -0.3242  0.3357  0.2345
  973POPC   C3B12819  11.233   3.937   7.247  0.0573 -0.0035 -0.1178
  973POPC   C4B12820  11.284   3.800   7.733 -0.2472 -0.2326 -0.3177
  974POPC   NC312821   2.226  16.431   5.426  0.1082 -0.0505 -0.0639
  974POPC   PO412822   2.598  16.583   5.422 -0.2364 -0.1723  0.2799
  974POPC   GL112823   2.690  16.422   5.755  0.1806  0.1761  0.1483
  974POPC   GL212824   2.476  16.213   5.908  0.1167  0.3959  0.0890
  974POPC   C1A12825   2.927  16.581   6.091  0.1655  0.1799 -0.1442
  974POPC   D2A12826   2.959  16.685   6.453 -0.3835 -0.0901  0.0619
  974POPC   C3A12827   3.203  16.589   6.765  0.0541  0.1551  0.0613
  974POPC   C4A12828   3.280  16.510   7.197 -0.3713  0.2831 -0.0379
  974POPC   C1B12829   2.400  16.301   6.403  0.1584  0.2304  0.0082
  974POPC   C2B12830   2.741  16.297   6.721  0.1609  0.1810  0.0474
  974POPC   C3B12831   2.971  16.041   7.034  0.0763 -0.0016 -0.2544
  974POPC   C4B12832   3.147  16.070   7.394 -0.0084  0.0253  0.1034
  975POPC   NC312833  11.302   6.026   5.770  0.2033  0.2661 -0.3274
  975POPC   PO412834  11.690   5.859   5.815  0.0561 -0.1913  0.0784
  975POPC   GL112835  12.003   6.067   6.121 -0.1039  0.0877  0.0438
  975POPC   GL212836  12.141   6.439   5.969 -0.1433  0.1798 -0.0661
  975POPC   C1A12837  12.154   6.019   6.508  0.0711 -0.0441  0.2652
  975POPC   D2A12838  12.182   6.020   7.009  0.0140 -0.0724  0.0677
  975POPC   C3A12839  12.353   5.986   7.373 -0.1294 -0.0104 -0.0719
  975POPC   C4A12840  12.336   6.093   7.828  0.0916  0.1716  0.0146
  975POPC   C1B12841  12.049   6.496   6.357 -0.2242 -0.2608  0.0682
  975POPC   C2B12842  12.117   6.460   6.764  0.0783 -0.1225  0.0197
  975POPC   C3B12843  12.333   6.459   7.234 -0.0996 -0.1546 -0.3233
  975POPC   C4B12844  12.590   6.567   7.613 -0.0066  0.4268  0.0454
  976POPC   NC312845   1.820  17.839   5.264  0.1551  0.0704 -0.2236
  976POPC   PO412846   1.754  17.916   5.734  0.1395  0.2111 -0.0095
  976POPC   GL112847   1.711  18.179   5.977  0.1293 -0.0115  0.0138
  976POPC   GL212848   1.728  17.875   6.246  0.1756 -0.2158  0.0075
  976POPC   C1A12849   1.788  18.567   6.367  0.1414  0.6023 -0.3653
  976POPC   D2A12850   1.814  18.515   6.890  0.2909 -0.2959 -0.2465
  976POPC   C3A12851   1.616  18.475   7.206  0.0822  0.1713  0.0268
  976POPC   C4A12852   1.652  18.475   7.676  0.1890 -0.1738  0.0153
  976POPC   C1B12853   1.930  17.593   6.618 -0.1853  0.0886  0.3503
  976POPC   C2B12854   1.961  17.565   7.005  0.2314 -0.1737 -0.4194
  976POPC   C3B12855   2.076  17.862   7.310 -0.2544 -0.2074  0.0693
  976POPC   C4B12856   2.455  18.017   7.554  0.2678  0.0156 -0.2842
  977POPC   NC312857  16.509   6.742   6.071 -0.0632 -0.1100  0.0271
  977POPC   PO412858  16.346   7.148   6.024 -0.0376 -0.1999  0.0441
  977POPC   GL112859  16.487   7.135   6.478  0.0884  0.1032 -0.2952
  977POPC   GL212860  16.578   7.517   6.458  0.0266 -0.0038 -0.0481
  977POPC   C1A12861  16.466   7.001   6.922 -0.3553 -0.3681  0.0452
  977POPC   D2A12862  16.321   7.166   7.356  0.0226 -0.1720  0.2671
  977POPC   C3A12863  16.274   6.921   7.733 -0.2818  0.2795  0.2100
  977POPC   C4A12864  16.295   6.658   8.007 -0.4201 -0.0238 -0.1454
  977POPC   C1B12865  16.489   7.541   6.849  0.1705 -0.1117  0.0326
  977POPC   C2B12866  16.516   7.669   7.309 -0.0695  0.0080 -0.0046
  977POPC   C3B12867  16.586   7.900   7.691 -0.0545  0.2641  0.2432
  977POPC   C4B12868  16.695   8.185   8.016 -0.2465 -0.0286  0.3485
  978POPC   NC312869   2.084  15.383   4.939  0.0231 -0.0485 -0.0120
  978POPC   PO412870   1.952  15.059   5.249  0.1078  0.1220  0.0156
  978POPC   GL112871   2.224  15.160   5.487  0.0102 -0.0318  0.0837
  978POPC   GL212872   2.307  15.463   5.472 -0.0481  0.3614 -0.0042
  978POPC   C1A12873   2.377  15.135   5.886  0.1493  0.0803 -0.0154
  978POPC   D2A12874   2.626  15.060   6.334  0.0229  0.2322 -0.3532
  978POPC   C3A12875   2.683  14.681   6.616  0.0617  0.3161  0.2206
  978POPC   C4A12876   2.566  14.610   7.034  0.3407  0.3047 -0.0675
  978POPC   C1B12877   2.267  15.658   5.867 -0.0601 -0.1702 -0.0480
  978POPC   C2B12878   2.444  15.776   6.227 -0.3505  0.2349  0.2313
  978POPC   C3B12879   2.848  16.052   6.196 -0.3977  0.1028 -0.1702
  978POPC   C4B12880   3.119  16.171   6.476  0.3335 -0.0167 -0.3562
  979POPC   NC312881   0.281   4.871   5.645 -0.3092 -0.0840  0.3643
  979POPC   PO412882  -0.206   4.682   5.634 -0.1712  0.1618 -0.1244
  979POPC   GL112883  -0.417   4.569   6.000 -0.0384 -0.3010  0.0836
  979POPC   GL212884  -0.356   4.222   6.099  0.3218  0.2043  0.1112
  979POPC   C1A12885  -0.387   4.734   6.462  0.0109 -0.1904  0.5050
  979POPC   D2A12886  -0.674   4.975   6.700 -0.2183 -0.1325  0.0833
  979POPC   C3A12887  -0.795   5.002   7.191  0.1642 -0.0893 -0.1634
  979POPC   C4A12888  -0.508   4.915   7.563 -0.0657 -0.0629 -0.1659
  979POPC   C1B12889  -0.633   4.264   6.409  0.0689  0.1631  0.3561
  979POPC   C2B12890  -0.520   4.148   6.887 -0.2186  0.0501  0.1261
  979POPC   C3B12891  -0.511   3.994   7.318  0.0130  0.4675  0.0650
  979POPC   C4B12892  -0.623   3.715   7.611 -0.3099  0.1316 -0.3492
  980POPC   NC312893   7.129  11.707   5.927  0.1297 -0.2202 -0.2189
  980POPC   PO412894   6.705  11.644   6.098  0.1493 -0.0312 -0.2609
  980POPC   GL112895   6.752  11.886   6.414  0.2988  0.1296  0.0022
  980POPC   GL212896   7.136  11.896   6.505 -0.2343 -0.0587  0.4760
  980POPC   C1A12897   6.804  11.650   6.786  0.0364  0.2026  0.0215
  980POPC   D2A12898   7.062  11.593   7.187 -0.2527  0.3123  0.2597
  980POPC   C3A12899   7.156  11.264   7.610  0.0680  0.1696 -0.1827
  980POPC   C4A12900   7.064  10.922   7.849 -0.1658 -0.1334  0.2693
  980POPC   C1B12901   7.194  12.022   6.877  0.0662 -0.0586 -0.3339
  980POPC   C2B12902   7.214  12.079   7.264  0.0063  0.0554 -0.0791
  980POPC   C3B12903   7.366  12.152   7.631  0.1771  0.1105  0.3592
  980POPC   C4B12904   7.573  12.408   8.029 -0.1166 -0.0818 -0.2297
  981POPC   NC312905  10.359   4.931   5.640  0.2528 -0.2173  0.2953
  981POPC   PO412906  10.577   5.017   6.003 -0.2703  0.0830 -0.1229
  981POPC   GL112907  10.799   4.842   6.298 -0.2042  0.2041 -0.2124
  981POPC   GL212908  11.114   4.973   6.477  0.2750  0.0908  0.3330
  981POPC   C1A12909  10.714   4.629   6.707 -0.1400 -0.4327  0.0881
  981POPC   D2A12910  10.567   4.624   7.046 -0.3175 -0.0176 -0.0368
  981POPC   C3A12911  10.770   4.794   7.491  0.0776  0.3251  0.0371
  981POPC   C4A12912  10.728   5.006   7.820  0.1822 -0.1074  0.1601
  981POPC   C1B12913  11.172   5.436   6.637 -0.0004  0.1621 -0.1953
  981POPC   C2B12914  11.306   5.477   6.988  0.2434 -0.1924 -0.2681
  981POPC   C3B12915  11.447   5.505   7.353 -0.1725  0.1565 -0.2398
  981POPC   C4B12916  11.494   5.868   7.653 -0.3692  0.0701 -0.4747
  982YOPC   NC312917  15.919  18.458   6.204  0.2424 -0.2140 -0.1412
  982YOPC   PO412918  16.156  18.096   6.328 -0.2337 -0.0262 -0.0063
  982YOPC   GL112919  15.811  18.139   6.644  0.0672  0.0569 -0.1315
  982YOPC   GL212920  15.741  17.876   6.509 -0.2202  0.0235  0.2385
  982YOPC   C1A12921  15.701  18.361   6.942 -0.0870  0.2554 -0.2514
  982YOPC   D2A12922  15.506  18.429   7.311  0.1454 -0.1121  0.2666
  982YOPC   C3A12923  15.482  18.083   7.595  0.0670 -0.3977  0.0620
  982YOPC   C4A12924  15.578  18.155   7.897  0.0261 -0.1858  0.1691
  982YOPC   C1B12925  15.738  17.631   6.845  0.1557 -0.1393  0.0598
  982YOPC   C2B12926  15.608  17.499   7.274 -0.0923 -0.0266 -0.0714
  982YOPC   D3B12927  15.881  17.226   7.585  0.0517  0.1796  0.0399
  982YOPC   C4B12928  16.025  17.224   8.004 -0.1649 -0.0333  0.1148
  983YOPC   NC312929  14.983  15.738   5.871  0.2052 -0.0433 -0.3347
  983YOPC   PO412930  15.394  15.931   5.895 -0.1812 -0.0349 -0.0226
  983YOPC   GL112931  15.214  15.761   6.277  0.1701 -0.1077 -0.1256
  983YOPC   GL212932  15.421  15.904   6.541  0.0175 -0.1000  0.0151
  983YOPC   C1A12933  14.972  15.673   6.737 -0.1388 -0.1410  0.0983
  983YOPC   D2A12934  14.678  15.930   7.033 -0.3604 -0.0342  0.0769
  983YOPC   C3A12935  14.282  15.709   7.333 -0.0379 -0.1839 -0.0790
  983YOPC   C4A12936  14.118  15.656   7.622 -0.1841  0.1032 -0.2884
  983YOPC   C1B12937  15.460  15.613   6.875 -0.0675  0.2259 -0.1291
  983YOPC   C2B12938  15.441  15.759   7.379  0.1329  0.2645 -0.3522
  983YOPC   D3B12939  15.782  15.787   7.684  0.1595  0.1218 -0.2926
  983YOPC   C4B12940  15.883  15.983   8.170 -0.0149 -0.2915 -0.1157
  984YOPC   NC312941   6.436   9.541   5.557  0.1667  0.1659 -0.1382
  984YOPC   PO412942   6.913   9.692   5.733 -0.0040  0.0230  0.1117
  984YOPC   GL112943   6.955   9.740   6.216  0.2532  0.0186 -0.1182
  984YOPC   GL212944   6.877   9.507   6.428  0.3917 -0.2228 -0.0608
  984YOPC   C1A12945   7.163   9.804   6.691  0.0535  0.3548 -0.1751
  984YOPC   D2A12946   7.366   9.804   7.022 -0.1746  0.1981 -0.0539
  984YOPC   C3A12947   7.265   9.524   7.457 -0.3331 -0.2780  0.4301
  984YOPC   C4A12948   7.408   9.396   7.929  0.1947  0.3555 -0.1287
  984YOPC   C1B12949   6.757   9.429   6.789 -0.0145 -0.2229 -0.3430
  984YOPC   C2B12950   6.887   9.366   7.233 -0.0284  0.3341  0.0468
  984YOPC   D3B12951   6.547   9.618   7.350 -0.4515 -0.0375 -0.0515
  984YOPC   C4B12952   6.320   9.596   7.717  0.1188  0.3106 -0.0496
  985YOPC   NC312953  17.262  11.207   6.219 -0.1473  0.3769 -0.0926
  985YOPC   PO412954  17.026  11.343   5.991  0.1101 -0.0747 -0.1090
  985YOPC   GL112955  16.822  11.151   6.404 -0.0454 -0.3165 -0.0783
  985YOPC   GL212956  16.958  11.331   6.692  0.0353 -0.2264  0.1136
  985YOPC   C1A12957  16.457  10.958   6.577  0.2385  0.2932 -0.0720
  985YOPC   D2A12958  16.323  10.895   6.915 -0.1785 -0.1216  0.0290
  985YOPC   C3A12959  16.621  11.148   7.250 -0.0999 -0.1741  0.3063
  985YOPC   C4A12960  16.622  11.390   7.620 -0.0372 -0.2059  0.1829
  985YOPC   C1B12961  16.897  11.769   6.523  0.0435 -0.0974 -0.0847
  985YOPC   C2B12962  16.748  12.181   6.602 -0.2088  0.0517 -0.0105
  985YOPC   D3B12963  16.745  12.431   6.929  0.0743 -0.0361  0.1564
  985YOPC   C4B12964  16.793  12.809   7.081  0.0788  0.2482  0.0366
  986YOPC   NC312965   3.535  17.194   5.609 -0.3724  0.0266 -0.2260
  986YOPC   PO412966   3.038  17.240   5.611  0.2189 -0.2638  0.2942
  986YOPC   GL112967   3.219  17.224   5.982  0.2008  0.0350  0.5464
  986YOPC   GL212968   3.266  16.932   5.941 -0.0606 -0.0929 -0.1432
  986YOPC   C1A12969   3.233  17.201   6.466  0.4598 -0.0420 -0.1517
  986YOPC   D2A12970   3.199  17.044   6.872  0.0787 -0.0562 -0.0727
  986YOPC   C3A12971   3.565  17.035   7.174  0.0767 -0.0416  0.1058
  986YOPC   C4A12972   3.841  17.100   7.486  0.0349  0.3193  0.1298
  986YOPC   C1B12973   3.641  17.112   6.259  0.1616  0.1639 -0.2511
  986YOPC   C2B12974   3.721  17.127   6.629 -0.1737 -0.2893  0.2155
  986YOPC   D3B12975   4.162  17.105   6.745 -0.0400  0.1876 -0.0161
  986YOPC   C4B12976   4.210  17.120   7.179 -0.0840 -0.2813 -0.1848
  987YOPC   NC312977   5.941  16.927   5.502 -0.0811  0.1035  0.0384
  987YOPC   PO412978   6.283  17.112   5.333  0.2329 -0.3721  0.0338
  987YOPC   GL112979   6.204  17.314   5.785  0.0884  0.1349  0.1261
  987YOPC   GL212980   6.351  17.114   5.952  0.0957 -0.2414 -0.1268
  987YOPC   C1A12981   6.090  17.459   6.127  0.1346 -0.1517 -0.4447
  987YOPC   D2A12982   6.077  17.609   6.597  0.0340  0.1256  0.0852
  987YOPC   C3A12983   6.250  17.952   6.725  0.2049  0.2405 -0.0169
  987YOPC   C4A12984   6.161  18.284   7.142 -0.2574  0.0291 -0.1705
  987YOPC   C1B12985   6.056  16.774   6.084  0.3475  0.1168 -0.0340
  987YOPC   C2B12986   5.722  16.796   6.232 -0.1200  0.4282  0.0193
  987YOPC   D3B12987   5.862  16.750   6.628  0.0925  0.2106 -0.1038
  987YOPC   C4B12988   5.878  16.767   7.005 -0.2351  0.1517  0.1586
  988YOPC   NC312989  15.196   0.776   5.857  0.0407  0.0816  0.0836
  988YOPC   PO412990  15.344   1.234   5.820 -0.0636  0.1105  0.1734
  988YOPC   GL112991  15.647   1.112   6.214 -0.4043  0.1624  0.0564
  988YOPC   GL212992  15.803   0.853   6.429  0.1903 -0.0504  0.2660
  988YOPC   C1A12993  15.694   1.310   6.578  0.0613  0.0817 -0.5943
  988YOPC   D2A12994  15.702   1.203   7.086 -0.0721  0.2181  0.3940
  988YOPC   C3A12995  15.835   1.469   7.313  0.1114  0.2363  0.0191
  988YOPC   C4A12996  16.046   1.532   7.695 -0.1942  0.1970  0.1219
  988YOPC   C1B12997  15.832   0.777   6.787  0.1731 -0.0228  0.1368
  988YOPC   C2B12998  16.001   0.739   7.219 -0.0006  0.2430  0.0268
  988YOPC   D3B12999  16.048   1.013   7.605  0.0527  0.0311  0.0376
  988YOPC   C4B13000  15.846   1.175   7.939  0.0591 -0.0188 -0.1860
  989YOPC   NC313001   3.046  10.705   5.777  0.1763 -0.0487  0.3209
  989YOPC   PO413002   3.245  11.110   5.902 -0.2582  0.0313 -0.0792
  989YOPC   GL113003   3.616  11.159   6.325  0.4149 -0.1286  0.0020
  989YOPC   GL213004   3.898  10.939   6.362  0.1342  0.0183  0.0569
  989YOPC   C1A13005   3.734  11.148   6.813 -0.1307  0.3859 -0.3166
  989YOPC   D2A13006   3.853  11.072   7.219  0.0691  0.1701  0.2598
  989YOPC   C3A13007   3.620  11.218   7.471  0.0138  0.2110 -0.0642
  989YOPC   C4A13008   3.527  11.623   7.809 -0.4515 -0.3481 -0.1462
  989YOPC   C1B13009   4.178  10.967   6.770 -0.0814 -0.5318  0.0310
  989YOPC   C2B13010   4.408  11.056   7.155  0.0874 -0.3300 -0.0179
  989YOPC   D3B13011   4.425  10.853   7.514 -0.2218 -0.3528  0.0051
  989YOPC   C4B13012   4.150  10.768   7.914  0.0600  0.0445  0.0303
  990YOPC   NC313013   4.167   9.410   5.396  0.1038 -0.2877  0.0386
  990YOPC   PO413014   3.927   9.165   5.672  0.3376  0.0374 -0.2284
  990YOPC   GL113015   3.903   8.987   6.015 -0.1005 -0.1494 -0.1334
  990YOPC   GL213016   3.696   9.122   6.197  0.0436  0.2015  0.1546
  990YOPC   C1A13017   4.098   8.922   6.418  0.2019  0.0159 -0.1547
  990YOPC   D2A13018   4.024   8.918   6.880 -0.0399  0.1233  0.0818
  990YOPC   C3A13019   4.028   8.857   7.277  0.0017  0.0675 -0.0444
  990YOPC   C4A13020   4.259   8.705   7.512  0.2013  0.0326 -0.0659
  990YOPC   C1B13021   3.848   9.275   6.614  0.1807  0.1962 -0.2730
  990YOPC   C2B13022   3.673   9.251   7.071  0.2353 -0.0151  0.1090
  990YOPC   D3B13023   3.872   9.571   7.435  0.2862  0.2162 -0.0469
  990YOPC   C4B13024   3.760   9.637   7.825 -0.0816  0.4499  0.1491
  991YOPC   NC313025   8.861  10.202   5.408  0.2384  0.2591 -0.0475
  991YOPC   PO413026   8.587   9.809   5.471  0.1580  0.2226  0.0558
  991YOPC   GL113027   8.672   9.556   5.861 -0.2235 -0.0365  0.2739
  991YOPC   GL213028   8.554   9.450   6.163 -0.1089  0.1046  0.2878
  991YOPC   C1A13029   8.974   9.281   6.070 -0.2073 -0.0538 -0.0472
  991YOPC   D2A13030   9.316   9.251   6.342  0.2462 -0.3185  0.0925
  991YOPC   C3A13031   9.575   9.061   6.067  0.0940  0.1812  0.1365
  991YOPC   C4A13032   9.944   9.015   5.872  0.0711 -0.0305  0.1031
  991YOPC   C1B13033   8.591   9.460   6.630 -0.0856 -0.2886  0.1488
  991YOPC   C2B13034   8.551   9.451   7.080  0.2407 -0.0047  0.0987
  991YOPC   D3B13035   8.157   9.625   7.383  0.1445  0.2658 -0.3639
  991YOPC   C4B13036   7.790   9.555   7.516  0.0294  0.0487 -0.0099
  992YOPC   NC313037  11.663   9.505   5.607 -0.3481 -0.0524  0.3965
  992YOPC   PO413038  12.052   9.265   5.518  0.1295 -0.0241  0.0237
  992YOPC   GL113039  11.977   9.158   5.978 -0.2010  0.3179  0.2476
  992YOPC   GL213040  11.719   9.339   6.082 -0.0275 -0.0056  0.1515
  992YOPC   C1A13041  11.909   8.887   6.278 -0.0498  0.1900  0.0455
  992YOPC   D2A13042  11.645   8.596   6.568 -0.0040 -0.2245 -0.0125
  992YOPC   C3A13043  11.802   8.197   6.562 -0.1258 -0.1413  0.0181
  992YOPC   C4A13044  11.855   7.755   6.412  0.3822 -0.0666 -0.0909
  992YOPC   C1B13045  11.970   9.331   6.487  0.2611 -0.1324  0.0732
  992YOPC   C2B13046  11.944   9.003   6.895  0.0547 -0.2825  0.1885
  992YOPC   D3B13047  11.604   8.974   7.234 -0.0067 -0.1574 -0.1152
  992YOPC   C4B13048  11.505   9.086   7.724  0.0681 -0.1972  0.0471
  993YOPC   NC313049  15.745  13.131   5.772  0.2020  0.1090 -0.1209
  993YOPC   PO413050  15.826  12.678   5.593  0.1144  0.2611 -0.0583
  993YOPC   GL113051  15.607  12.512   5.978 -0.0115  0.1187 -0.1904
  993YOPC   GL213052  15.337  12.590   6.161 -0.3119 -0.0870 -0.1329
  993YOPC   C1A13053  15.663  12.222   6.332  0.2302 -0.3826 -0.1667
  993YOPC   D2A13054  15.927  12.280   6.657  0.0278  0.0321 -0.0290
  993YOPC   C3A13055  15.843  12.668   6.910 -0.4116  0.0696  0.1613
  993YOPC   C4A13056  15.651  12.995   7.304 -0.0418  0.2463  0.1661
  993YOPC   C1B13057  15.325  13.039   6.313  0.0158 -0.1318 -0.0354
  993YOPC   C2B13058  15.094  13.453   6.299  0.0630 -0.1476 -0.1729
  993YOPC   D3B13059  14.719  13.465   6.455  0.3956 -0.1741  0.2910
  993YOPC   C4B13060  14.544  13.318   6.777 -0.3186 -0.0651 -0.1220
  994YOPC   NC313061  14.269  17.055   5.901  0.2145  0.1310 -0.0731
  994YOPC   PO413062  13.892  16.846   5.904  0.2980 -0.0214 -0.1299
  994YOPC   GL113063  13.860  16.930   6.302  0.2111  0.2381 -0.2587
  994YOPC   GL213064  13.507  17.023   6.204 -0.0934  0.0756 -0.2373
  994YOPC   C1A13065  13.763  16.877   6.585  0.2341 -0.1400  0.0727
  994YOPC   D2A13066  13.900  16.595   6.899  0.0002 -0.0579  0.1648
  994YOPC   C3A13067  13.891  16.603   7.357  0.0285 -0.2894  0.0235
  994YOPC   C4A13068  14.196  16.573   7.608  0.0110  0.1802 -0.3223
  994YOPC   C1B13069  13.351  17.093   6.662  0.3779 -0.0273  0.1073
  994YOPC   C2B13070  13.339  17.289   7.081 -0.0875  0.1281 -0.0873
  994YOPC   D3B13071  13.259  17.066   7.466  0.0559  0.0473  0.1995
  994YOPC   C4B13072  12.898  16.747   7.534  0.1927  0.3019 -0.0942
  995YOPC   NC313073   7.051  15.179   5.351 -0.1739 -0.5544  0.0923
  995YOPC   PO413074   7.430  15.057   5.305 -0.0238  0.2444  0.0519
  995YOPC   GL113075   7.305  14.976   5.716 -0.1772 -0.1762 -0.3242
  995YOPC   GL213076   7.271  15.136   5.993 -0.1349  0.3909 -0.0142
  995YOPC   C1A13077   7.151  14.654   6.098  0.2448 -0.0435  0.2537
  995YOPC   D2A13078   7.195  14.532   6.499  0.1167 -0.0235 -0.1803
  995YOPC   C3A13079   7.089  14.803   6.773 -0.0308  0.0434  0.0799
  995YOPC   C4A13080   6.831  15.006   7.069 -0.0964  0.5823 -0.0641
  995YOPC   C1B13081   7.191  15.225   6.465 -0.0843  0.0865  0.1389
  995YOPC   C2B13082   7.168  15.391   6.773 -0.0097 -0.3453 -0.2388
  995YOPC   D3B13083   6.973  15.518   7.115 -0.0436 -0.2883  0.0630
  995YOPC   C4B13084   7.060  15.263   7.506 -0.5182 -0.1288  0.3178
  996YOPC   NC313085   4.696  11.781   5.545 -0.0466 -0.1228  0.4597
  996YOPC   PO413086   4.708  11.989   5.990 -0.0197 -0.0629 -0.1071
  996YOPC   GL113087   4.704  11.994   6.422 -0.2300  0.0800  0.4718
  996YOPC   GL213088   4.543  11.691   6.428  0.1863 -0.0065  0.2331
  996YOPC   C1A13089   5.024  12.192   6.574  0.1401 -0.0318  0.1485
  996YOPC   D2A13090   5.111  12.344   7.061  0.0495  0.2418  0.0841
  996YOPC   C3A13091   5.559  12.243   7.200 -0.4741  0.0402 -0.0668
  996YOPC   C4A13092   5.945  12.268   7.141 -0.0445  0.1003 -0.0675
  996YOPC   C1B13093   4.850  11.805   6.834 -0.0955 -0.2452 -0.1364
  996YOPC   C2B13094   5.102  11.814   7.168  0.0105 -0.0794  0.2259
  996YOPC   D3B13095   5.198  12.051   7.546  0.1734  0.0209 -0.0131
  996YOPC   C4B13096   5.388  12.110   7.897  0.1253  0.0744  0.0969
  997YOPC   NC313097   5.313   0.928   5.513 -0.4112  0.1721 -0.2260
  997YOPC   PO413098   5.778   0.933   5.516  0.1694 -0.5547 -0.1376
  997YOPC   GL113099   5.613   1.082   5.888  0.2601 -0.1403  0.2607
  997YOPC   GL213100   5.498   0.799   6.117  0.1705  0.0154 -0.4851
  997YOPC   C1A13101   5.405   1.282   6.255 -0.0196 -0.0242  0.2236
  997YOPC   D2A13102   5.339   1.213   6.733 -0.0590  0.0618  0.1146
  997YOPC   C3A13103   5.779   1.122   6.892 -0.0712  0.0276  0.0410
  997YOPC   C4A13104   6.243   1.362   7.048  0.2311 -0.4596 -0.3371
  997YOPC   C1B13105   5.530   0.719   6.589 -0.1931  0.1321  0.1179
  997YOPC   C2B13106   5.620   0.492   7.053  0.1168 -0.4536  0.0848
  997YOPC   D3B13107   5.875   0.714   7.450 -0.1765  0.0281  0.2388
  997YOPC   C4B13108   6.084   1.135   7.574  0.0758 -0.2416 -0.1182
  998YOPC   NC313109  10.998   2.553   5.619  0.2718  0.3291 -0.1499
  998YOPC   PO413110  11.021   2.136   5.689  0.3147 -0.0962 -0.0028
  998YOPC   GL113111  10.822   2.317   6.052 -0.1362 -0.0144 -0.0029
  998YOPC   GL213112  10.627   2.340   6.043  0.1021  0.0540  0.0814
  998YOPC   C1A13113  10.728   2.292   6.541 -0.1153 -0.1744 -0.0221
  998YOPC   D2A13114  10.348   2.302   6.677 -0.0274 -0.2579  0.0117
  998YOPC   C3A13115  10.200   2.673   6.929 -0.2239 -0.1047 -0.0426
  998YOPC   C4A13116  10.188   2.875   7.331  0.0420  0.1197 -0.0518
  998YOPC   C1B13117  10.266   2.168   6.230 -0.1900  0.0779 -0.2147
  998YOPC   C2B13118  10.038   1.900   6.432  0.1171 -0.2481 -0.3409
  998YOPC   D3B13119  10.120   1.873   6.773 -0.1284 -0.0114 -0.2334
  998YOPC   C4B13120  10.067   1.982   7.206  0.0559 -0.0294 -0.3490
  999YOPC   NC313121   7.190  14.328   5.137  0.0663 -0.0206  0.4360
  999YOPC   PO413122   7.523  14.445   5.462 -0.0641 -0.0226  0.0878
  999YOPC   GL113123   7.724  14.629   5.756  0.1858 -0.1486  0.0205
  999YOPC   GL213124   7.630  14.608   6.004 -0.0200 -0.2400 -0.1197
  999YOPC   C1A13125   8.100  14.453   6.037  0.3550  0.1654  0.2191
  999YOPC   D2A13126   8.386  14.593   6.191 -0.2714 -0.1255 -0.2620
  999YOPC   C3A13127   8.477  14.731   6.663  0.3231  0.0780 -0.0171
  999YOPC   C4A13128   8.821  14.532   6.937 -0.2447  0.0785  0.0912
  999YOPC   C1B13129   7.514  14.864   6.315 -0.2774 -0.1964 -0.1279
  999YOPC   C2B13130   7.560  14.958   6.702  0.2070  0.2357  0.0020
  999YOPC   D3B13131   7.355  15.021   7.134  0.0764 -0.0389  0.0350
  999YOPC   C4B13132   7.421  14.621   7.289  0.0487 -0.0776  0.0828
 1000YOPC   NC313133  13.061   7.922   5.873  0.0427 -0.1254 -0.0948
 1000YOPC   PO413134  13.132   7.425   5.732 -0.1267  0.2161  0.2979
 1000YOPC   GL113135  13.004   7.476   6.094  0.1178  0.2404  0.0624
 1000YOPC   GL213136  13.116   7.733   6.330 -0.0376  0.1312  0.0889
 1000YOPC   C1A13137  13.009   7.079   6.402  0.1677 -0.1845  0.1162
 1000YOPC   D2A13138  12.980   6.639   6.560  0.1891 -0.3432  0.1036
 1000YOPC   C3A13139  13.182   6.544   7.060 -0.0176  0.2076  0.0746
 1000YOPC   C4A13140  13.130   6.508   7.477  0.1011  0.0642 -0.0711
 1000YOPC   C1B13141  12.886   7.549   6.719 -0.0507  0.0798 -0.2282
 1000YOPC   C2B13142  12.709   7.315   7.142  0.0066  0.1486  0.1594
 1000YOPC   D3B13143  12.937   7.321   7.495  0.0584  0.0403  0.0560
 1000YOPC   C4B13144  13.006   7.375   7.909  0.0643 -0.1758  0.1255
 1001YOPC   NC313145  16.536   9.900   5.625  0.0558  0.0625 -0.0946
 1001YOPC   PO413146  16.463   9.751   6.075  0.0079  0.0176 -0.0233
 1001YOPC   GL113147  16.599   9.800   6.435  0.1349  0.4995 -0.1877
 1001YOPC   GL213148  16.856   9.824   6.407 -0.0389 -0.1708 -0.5785
 1001YOPC   C1A13149  16.343   9.654   6.774 -0.0972  0.1177 -0.2205
 1001YOPC   D2A13150  16.082   9.495   6.947 -0.3142 -0.0839 -0.0917
 1001YOPC   C3A13151  15.872   9.528   7.249 -0.4524 -0.0520 -0.3163
 1001YOPC   C4A13152  15.929   9.555   7.683 -0.4817  0.3584 -0.2353
 1001YOPC   C1B13153  17.085  10.191   6.756 -0.0308  0.0789  0.2540
 1001YOPC   C2B13154  17.125  10.149   7.202  0.0518  0.0299  0.2141
 1001YOPC   D3B13155  16.784   9.879   7.435  0.1041 -0.2591 -0.0442
 1001YOPC   C4B13156  16.504  10.171   7.629 -0.0539  0.2980 -0.1619
 1002YOPC   NC313157  16.785  12.669   5.423 -0.1511  0.0362 -0.1456
 1002YOPC   PO413158  16.623  12.652   5.858 -0.2631  0.3370  0.0400
 1002YOPC   GL113159  16.346  12.547   6.216  0.3037 -0.1045 -0.1312
 1002YOPC   GL213160  15.985  12.820   6.091 -0.0208  0.0799 -0.1260
 1002YOPC   C1A13161  16.274  12.599   6.640 -0.1936  0.0453  0.1143
 1002YOPC   D2A13162  16.305  12.644   7.083  0.1282  0.0785 -0.0959
 1002YOPC   C3A13163  16.135  12.524   7.319  0.1678  0.1357 -0.2719
 1002YOPC   C4A13164  15.769  12.577   7.402 -0.1391 -0.0334 -0.1518
 1002YOPC   C1B13165  15.745  12.709   6.430  0.0925 -0.0762 -0.0828
 1002YOPC   C2B13166  15.398  12.523   6.679  0.1526 -0.3811  0.0621
 1002YOPC   D3B13167  15.353  12.609   7.147 -0.1135  0.1452  0.1958
 1002YOPC   C4B13168  14.944  12.594   7.380  0.0436  0.1874  0.2108
 1003YOPC   NC313169  16.350  14.857   5.763 -0.3981  0.2260  0.0053
 1003YOPC   PO413170  16.075  15.149   5.934 -0.3838 -0.1806 -0.0113
 1003YOPC   GL113171  16.104  15.368   6.388  0.0419 -0.0493 -0.2069
 1003YOPC   GL213172  16.164  15.683   6.337  0.1686 -0.3056  0.1018
 1003YOPC   C1A13173  16.311  15.411   6.716 -0.2094 -0.1342 -0.1688
 1003YOPC   D2A13174  16.395  15.715   7.103  0.2776  0.4104 -0.0381
 1003YOPC   C3A13175  16.411  15.849   7.525 -0.0103  0.1745 -0.0074
 1003YOPC   C4A13176  16.239  15.661   7.935  0.1715 -0.1042 -0.2783
 1003YOPC   C1B13177  15.912  15.744   6.783 -0.0734 -0.0353  0.0941
 1003YOPC   C2B13178  15.913  15.799   7.184  0.1584 -0.1252 -0.1300
 1003YOPC   D3B13179  16.110  15.491   7.429 -0.4314 -0.3729  0.1554
 1003YOPC   C4B13180  16.528  15.328   7.468 -0.1633  0.0797  0.2210
 1004YOPC   NC313181   9.845  17.963   5.361  0.2360  0.1898  0.1154
 1004YOPC   PO413182  10.014  18.296   5.266 -0.0356  0.2310  0.1914
 1004YOPC   GL113183   9.976  18.326   5.681  0.1036  0.1339  0.0774
 1004YOPC   GL213184  10.199  18.605   5.910 -0.1358 -0.0374 -0.2942
 1004YOPC   C1A13185   9.688  18.261   5.907  0.1321  0.0668 -0.0343
 1004YOPC   D2A13186   9.367  18.407   6.301  0.0297  0.2022  0.1954
 1004YOPC   C3A13187   9.496  18.350   6.651 -0.1963 -0.1722  0.1418
 1004YOPC   C4A13188   9.514  18.100   6.770  0.2411 -0.0898  0.0364
 1004YOPC   C1B13189  10.491  18.257   5.837  0.0900  0.3901  0.1825
 1004YOPC   C2B13190  10.656  17.818   5.862  0.1364  0.1172  0.3996
 1004YOPC   D3B13191  10.959  17.594   6.222 -0.0482  0.0775 -0.0591
 1004YOPC   C4B13192  11.221  17.486   6.621 -0.0987 -0.0281  0.0937
 1005YOPC   NC313193  11.769   5.400   5.754 -0.2551 -0.1686 -0.1013
 1005YOPC   PO413194  11.370   5.517   5.980  0.2172 -0.0253 -0.0759
 1005YOPC   GL113195  11.522   5.206   6.254  0.0435 -0.1389 -0.0891
 1005YOPC   GL213196  11.832   5.188   6.272  0.0012  0.3114 -0.1998
 1005YOPC   C1A13197  11.568   5.155   6.702  0.2298  0.0356  0.0823
 1005YOPC   D2A13198  11.556   5.092   7.106  0.0116  0.0172 -0.0431
 1005YOPC   C3A13199  11.861   5.084   7.452  0.2208 -0.0061  0.2524
 1005YOPC   C4A13200  12.142   5.196   7.789  0.1468 -0.3697  0.1442
 1005YOPC   C1B13201  12.037   4.930   6.619 -0.0131  0.3011  0.0114
 1005YOPC   C2B13202  12.091   5.008   6.988 -0.2168 -0.2301 -0.0143
 1005YOPC   D3B13203  12.468   5.198   6.881  0.1112 -0.3537  0.1777
 1005YOPC   C4B13204  12.580   5.059   6.498  0.4358 -0.1118  0.4644
 1006YOPC   NC313205   7.714   2.890   5.957  0.0115  0.1031 -0.0400
 1006YOPC   PO413206   7.974   2.531   6.028  0.0852  0.1962 -0.0120
 1006YOPC   GL113207   8.099   2.693   6.488 -0.2795 -0.1589 -0.1245
 1006YOPC   GL213208   8.351   2.722   6.562  0.1897 -0.1632 -0.4405
 1006YOPC   C1A13209   8.146   2.548   6.965  0.0556  0.4361  0.1112
 1006YOPC   D2A13210   8.247   2.473   7.341 -0.0845 -0.4666  0.1369
 1006YOPC   C3A13211   8.307   2.189   7.619  0.0643  0.3249  0.2562
 1006YOPC   C4A13212   8.524   1.955   7.915 -0.0932 -0.0060  0.1989
 1006YOPC   C1B13213   8.527   2.900   6.951  0.2450 -0.0758  0.0223
 1006YOPC   C2B13214   8.418   2.919   7.320  0.3357  0.1115  0.0684
 1006YOPC   D3B13215   8.606   2.660   7.655  0.0188  0.2822  0.0793
 1006YOPC   C4B13216   8.873   2.291   7.767  0.1376  0.0983  0.0307
 1007YOPC   NC313217   2.928  14.510   5.830  0.0660 -0.0041 -0.1692
 1007YOPC   PO413218   2.594  14.446   5.568  0.0789  0.1074  0.1086
 1007YOPC   GL113219   2.497  14.624   6.013  0.1413  0.3394 -0.2830
 1007YOPC   GL213220   2.527  14.400   6.195 -0.0802  0.0418 -0.0280
 1007YOPC   C1A13221   2.215  14.780   6.349  0.3803  0.1591 -0.0006
 1007YOPC   D2A13222   2.091  14.919   6.727 -0.1728 -0.0138 -0.0619
 1007YOPC   C3A13223   2.392  15.113   6.910  0.1715  0.0669  0.3332
 1007YOPC   C4A13224   2.602  15.160   7.173  0.2878  0.1533  0.1184
 1007YOPC   C1B13225   2.630  14.182   6.680  0.1984 -0.1279  0.2331
 1007YOPC   C2B13226   2.487  14.103   7.121  0.1395  0.0154 -0.0029
 1007YOPC   D3B13227   2.131  14.008   7.332  0.2150  0.0286  0.0295
 1007YOPC   C4B13228   1.930  13.929   7.716  0.1381 -0.3310 -0.1078
 1008YOPC   NC313229   8.084   3.515   5.921  0.3170  0.3395  0.0851
 1008YOPC   PO413230   7.766   3.710   5.861  0.0374  0.0027  0.0847
 1008YOPC   GL113231   7.629   3.410   6.224 -0.3882 -0.2111  0.0086
 1008YOPC   GL213232   7.347   3.483   6.434  0.0547 -0.0301  0.4969
 1008YOPC   C1A13233   7.749   3.133   6.584  0.1381  0.3357  0.1095
 1008YOPC   D2A13234   8.000   3.060   6.951  0.2429  0.0193 -0.1540
 1008YOPC   C3A13235   7.933   2.920   7.415 -0.0162 -0.0184 -0.1449
 1008YOPC   C4A13236   8.155   2.696   7.817  0.0938 -0.1900  0.0046
 1008YOPC   C1B13237   7.318   3.470   6.780 -0.0644 -0.0143 -0.0304
 1008YOPC   C2B13238   7.349   3.499   7.193 -0.0168  0.1305  0.0683
 1008YOPC   D3B13239   7.131   3.252   7.529  0.0096 -0.1506 -0.3580
 1008YOPC   C4B13240   7.068   3.037   7.891 -0.0248  0.0438  0.1124
 1009YOPC   NC313241  17.283   8.007   6.265 -0.2204 -0.1082 -0.0561
 1009YOPC   PO413242  17.755   8.052   6.382  0.2896 -0.0694 -0.2865
 1009YOPC   GL113243  18.068   8.121   6.706  0.3580  0.0638  0.1701
 1009YOPC   GL213244  18.413   8.032   6.626  0.0520 -0.2449  0.0827
 1009YOPC   C1A13245  18.109   8.056   7.112 -0.0636  0.0408 -0.0940
 1009YOPC   D2A13246  18.010   7.793   7.460 -0.4035  0.1415 -0.0172
 1009YOPC   C3A13247  17.573   7.637   7.554  0.0368 -0.3063 -0.5278
 1009YOPC   C4A13248  17.354   7.530   8.026 -0.0996  0.0754  0.0138
 1009YOPC   C1B13249  18.500   7.795   6.934  0.0289  0.3125  0.3183
 1009YOPC   C2B13250  18.484   7.668   7.298  0.0418 -0.1844 -0.1445
 1009YOPC   D3B13251  18.518   7.761   7.713  0.2848 -0.2979  0.2288
 1009YOPC   C4B13252  18.687   8.124   7.983 -0.0206  0.0702  0.1277
 1010YOPC   NC313253   2.791  11.201   5.684 -0.2955  0.0408 -0.3740
 1010YOPC   PO413254   2.627  10.985   5.972  0.0263 -0.3077 -0.0405
 1010YOPC   GL113255   2.549  10.746   6.378 -0.2590  0.3426 -0.4243
 1010YOPC   GL213256   2.298  10.789   6.520 -0.0067 -0.0304  0.0836
 1010YOPC   C1A13257   2.810  10.602   6.626 -0.0500 -0.1920  0.3806
 1010YOPC   D2A13258   3.081  10.396   6.975 -0.2340 -0.5197  0.1192
 1010YOPC   C3A13259   3.018   9.994   7.185  0.0739  0.3748  0.0339
 1010YOPC   C4A13260   2.999   9.598   7.507 -0.1740 -0.3701  0.3817
 1010YOPC   C1B13261   2.300  10.745   6.973 -0.1617  0.0136 -0.0053
 1010YOPC   C2B13262   2.315  10.690   7.470 -0.1259 -0.0686  0.3306
 1010YOPC   D3B13263   2.208  10.788   7.898  0.2989 -0.2345 -0.2781
 1010YOPC   C4B13264   2.318  10.721   8.305  0.0705 -0.0590 -0.2190
 1011YOPC   NC313265   7.886  17.660   5.213  0.0334 -0.0582 -0.2739
 1011YOPC   PO413266   8.305  17.590   5.269  0.2119  0.2000 -0.0205
 1011YOPC   GL113267   8.186  17.613   5.662  0.1168  0.1062  0.2729
 1011YOPC   GL213268   7.998  17.357   5.855 -0.1051  0.1825  0.0378
 1011YOPC   C1A13269   8.500  17.708   6.097  0.0583  0.0685 -0.0163
 1011YOPC   D2A13270   8.766  17.704   6.363  0.2255 -0.2090  0.0187
 1011YOPC   C3A13271   8.684  17.849   6.757  0.0487  0.0096  0.1637
 1011YOPC   C4A13272   8.470  18.213   6.892  0.1791  0.0772  0.3514
 1011YOPC   C1B13273   8.111  17.169   6.292 -0.0557  0.0092 -0.1422
 1011YOPC   C2B13274   8.064  17.046   6.607 -0.2974 -0.2986 -0.2386
 1011YOPC   D3B13275   8.396  17.028   6.916  0.1014 -0.2454 -0.1292
 1011YOPC   C4B13276   8.798  17.192   6.989 -0.4053  0.0121  0.1886
 1012YOPC   NC313277   6.312  11.980   6.060 -0.0881 -0.0724  0.1948
 1012YOPC   PO413278   5.912  12.157   5.804  0.1627 -0.2575  0.0968
 1012YOPC   GL113279   5.677  12.165   6.108  0.3510 -0.1340 -0.0344
 1012YOPC   GL213280   5.997  12.357   6.271  0.2197 -0.0176  0.0537
 1012YOPC   C1A13281   5.482  12.407   6.376 -0.0763  0.1414 -0.1098
 1012YOPC   D2A13282   5.213  12.696   6.725  0.2885 -0.1760 -0.0031
 1012YOPC   C3A13283   5.460  12.716   7.035 -0.0950  0.3082  0.1174
 1012YOPC   C4A13284   5.631  12.735   7.512 -0.0260  0.1803 -0.2972
 1012YOPC   C1B13285   5.916  12.294   6.663  0.0344 -0.3329  0.0368
 1012YOPC   C2B13286   5.914  11.873   6.856 -0.0608  0.0719  0.0108
 1012YOPC   D3B13287   6.090  11.837   7.279 -0.2060 -0.2876  0.0078
 1012YOPC   C4B13288   5.884  11.512   7.586 -0.0807  0.2798  0.0459
 1013YOPC   NC313289  18.059   1.364   5.823 -0.2738 -0.3967 -0.1684
 1013YOPC   PO413290  18.009   1.332   6.269  0.2868 -0.2829 -0.1584
 1013YOPC   GL113291  18.117   1.331   6.740 -0.1261  0.2342 -0.1603
 1013YOPC   GL213292  18.340   1.144   6.780  0.2271 -0.2355  0.4575
 1013YOPC   C1A13293  18.132   1.291   7.266 -0.1517 -0.1536 -0.2029
 1013YOPC   D2A13294  18.142   1.405   7.561 -0.0999  0.1984  0.0217
 1013YOPC   C3A13295  18.398   1.590   7.899  0.2430  0.3526 -0.0883
 1013YOPC   C4A13296  18.315   1.721   8.272  0.0107  0.2502  0.0809
 1013YOPC   C1B13297  18.714   1.073   7.160  0.0300  0.0561 -0.1282
 1013YOPC   C2B13298  18.897   0.962   7.513  0.1290 -0.0060  0.1006
 1013YOPC   D3B13299  19.305   0.694   7.609 -0.0995 -0.0880 -0.0521
 1013YOPC   C4B13300  19.640   0.588   7.770 -0.1280  0.1880  0.0296
 1014YOPC   NC313301  10.567   7.483   5.581  0.0398  0.0033 -0.1322
 1014YOPC   PO413302  10.551   7.033   5.649  0.0284 -0.4992 -0.1140
 1014YOPC   GL113303  10.366   7.300   6.023 -0.0401  0.1281  0.3014
 1014YOPC   GL213304  10.507   7.635   6.097  0.3621  0.1070  0.2997
 1014YOPC   C1A13305  10.131   7.055   6.339  0.1668  0.1384 -0.1359
 1014YOPC   D2A13306  10.210   6.872   6.751  0.0620  0.1401  0.2072
 1014YOPC   C3A13307   9.834   6.716   6.984 -0.0171  0.1070 -0.1353
 1014YOPC   C4A13308   9.537   6.637   7.357 -0.1183 -0.2826 -0.1754
 1014YOPC   C1B13309  10.375   7.743   6.445  0.0073 -0.2270  0.1482
 1014YOPC   C2B13310  10.437   7.901   6.858  0.1786  0.2837 -0.0541
 1014YOPC   D3B13311  10.655   8.128   7.025 -0.0133 -0.1581 -0.1255
 1014YOPC   C4B13312  10.742   8.170   7.406 -0.3318 -0.1798  0.0230
 1015YOPC   NC313313   8.533  10.779   5.136  0.0812  0.1597 -0.3455
 1015YOPC   PO413314   8.897  10.777   5.351  0.0199  0.3031  0.0167
 1015YOPC   GL113315   8.963  10.606   5.772  0.2717 -0.0849 -0.1157
 1015YOPC   GL213316   8.758  10.620   5.888  0.0101 -0.0722 -0.1331
 1015YOPC   C1A13317   9.094  10.449   6.212  0.2394  0.2022 -0.2389
 1015YOPC   D2A13318   9.080  10.360   6.643  0.2256  0.0777  0.0028
 1015YOPC   C3A13319   9.028  10.663   6.980  0.0070  0.2945  0.0484
 1015YOPC   C4A13320   9.283  10.990   7.044 -0.3958 -0.1953 -0.0906
 1015YOPC   C1B13321   8.825  10.818   6.268 -0.1485 -0.0684  0.2159
 1015YOPC   C2B13322   9.089  10.975   6.567  0.2662  0.0213 -0.0670
 1015YOPC   D3B13323   8.804  11.111   6.842 -0.2715  0.1321 -0.1703
 1015YOPC   C4B13324   8.891  11.370   7.219 -0.0322 -0.0695 -0.0340
 1016YOPC   NC313325   6.713   6.613   5.860 -0.3977 -0.1238  0.1301
 1016YOPC   PO413326   7.109   6.205   5.978  0.1339 -0.2789  0.1353
 1016YOPC   GL113327   7.153   5.843   6.066 -0.2413  0.0674 -0.1388
 1016YOPC   GL213328   6.966   5.599   6.212  0.2017  0.1849 -0.1162
 1016YOPC   C1A13329   7.398   5.672   6.421  0.2701 -0.1447 -0.0325
 1016YOPC   D2A13330   7.751   5.499   6.650 -0.3243 -0.1967  0.1470
 1016YOPC   C3A13331   7.816   5.647   7.038  0.0795  0.1780  0.0937
 1016YOPC   C4A13332   7.591   5.843   7.301 -0.0182 -0.1477 -0.3123
 1016YOPC   C1B13333   7.023   5.838   6.644 -0.2820  0.2471  0.4304
 1016YOPC   C2B13334   7.353   5.928   6.882  0.1831 -0.1235 -0.0030
 1016YOPC   D3B13335   7.313   6.345   7.083  0.0128 -0.0331  0.0847
 1016YOPC   C4B13336   7.442   6.713   7.086 -0.1338  0.2853 -0.1160
 1017YOPC   NC313337   3.615   7.438   6.024  0.0078  0.0373 -0.2841
 1017YOPC   PO413338   3.547   7.876   5.831 -0.4522 -0.0045 -0.2725
 1017YOPC   GL113339   3.192   7.811   6.147 -0.0200 -0.0990 -0.0722
 1017YOPC   GL213340   3.342   7.691   6.375 -0.2132 -0.0942 -0.1303
 1017YOPC   C1A13341   2.962   7.946   6.485 -0.0507 -0.0397 -0.0602
 1017YOPC   D2A13342   2.979   7.958   6.938  0.0121  0.1370 -0.0090
 1017YOPC   C3A13343   2.737   8.001   7.263 -0.0122  0.1683 -0.2074
 1017YOPC   C4A13344   2.667   7.984   7.627  0.1867 -0.0221 -0.0204
 1017YOPC   C1B13345   3.318   7.666   6.778 -0.1139  0.0418  0.0057
 1017YOPC   C2B13346   3.305   7.406   7.082  0.1484 -0.2120 -0.1644
 1017YOPC   D3B13347   3.285   7.436   7.587  0.0358  0.0850 -0.4066
 1017YOPC   C4B13348   3.245   7.500   8.038 -0.1311  0.1359 -0.1615
 1018YOPC   NC313349   1.543   1.140   5.762 -0.0282 -0.0869 -0.0364
 1018YOPC   PO413350   1.561   0.778   6.005 -0.2358  0.1918 -0.0358
 1018YOPC   GL113351   1.613   0.552   6.359  0.1421  0.2685 -0.0177
 1018YOPC   GL213352   1.331   0.383   6.565  0.0059  0.0857  0.0857
 1018YOPC   C1A13353   1.916   0.455   6.629 -0.3658  0.0769 -0.2174
 1018YOPC   D2A13354   2.114   0.555   7.031  0.0463 -0.0837 -0.2246
 1018YOPC   C3A13355   2.441   0.893   7.197  0.0103 -0.1638 -0.1945
 1018YOPC   C4A13356   2.439   1.318   6.972  0.0637  0.1807 -0.1290
 1018YOPC   C1B13357   1.491   0.407   7.030 -0.2655  0.0935  0.2339
 1018YOPC   C2B13358   1.445   0.345   7.463  0.0881 -0.1866  0.2620
 1018YOPC   D3B13359   1.669   0.378   7.860 -0.2047  0.0283  0.1349
 1018YOPC   C4B13360   2.151   0.224   7.922  0.0307  0.2912 -0.1301
 1019YOPC   NC313361  15.446   9.845   5.716 -0.0514 -0.1073 -0.0973
 1019YOPC   PO413362  15.645  10.203   5.730  0.1434  0.2339 -0.2708
 1019YOPC   GL113363  15.615  10.240   6.149 -0.1525  0.1007 -0.4524
 1019YOPC   GL213364  15.856  10.453   6.214 -0.2569 -0.0460 -0.1215
 1019YOPC   C1A13365  15.512  10.447   6.527  0.1083 -0.1914  0.0297
 1019YOPC   D2A13366  15.427  10.768   6.854 -0.1513 -0.2988  0.0633
 1019YOPC   C3A13367  15.474  10.758   7.251  0.0581 -0.0882  0.1568
 1019YOPC   C4A13368  15.876  10.795   7.141  0.0112  0.0001 -0.1327
 1019YOPC   C1B13369  15.991  10.569   6.667  0.0978  0.0523  0.2169
 1019YOPC   C2B13370  16.306  10.394   7.023 -0.4405 -0.0637  0.3100
 1019YOPC   D3B13371  16.150  10.465   7.431  0.2287  0.4369  0.1498
 1019YOPC   C4B13372  16.018  10.453   7.912  0.1465  0.1872  0.1833
 1020YOPC   NC313373   1.286  14.125   5.848 -0.4549 -0.0847 -0.0212
 1020YOPC   PO413374   0.795  13.985   5.858  0.3330  0.1582 -0.2028
 1020YOPC   GL113375   0.904  14.122   6.322  0.0470 -0.0298 -0.0554
 1020YOPC   GL213376   1.096  14.338   6.334 -0.1901  0.2136  0.0947
 1020YOPC   C1A13377   0.944  13.953   6.781 -0.1221 -0.1325 -0.2782
 1020YOPC   D2A13378   1.161  13.846   7.253  0.2673 -0.0094 -0.2350
 1020YOPC   C3A13379   0.934  13.937   7.648 -0.2515  0.2159 -0.1242
 1020YOPC   C4A13380   0.779  14.234   7.935  0.1262 -0.1549  0.0592
 1020YOPC   C1B13381   1.273  14.561   6.610 -0.2393  0.3705  0.2292
 1020YOPC   C2B13382   1.245  14.797   6.953  0.3035 -0.1031  0.1308
 1020YOPC   D3B13383   0.891  14.769   7.271  0.1494  0.0117 -0.0985
 1020YOPC   C4B13384   0.669  15.068   7.496 -0.1367 -0.0009 -0.1315
 1021YOPC   NC313385  18.386  12.151   5.926  0.1851 -0.0607 -0.0162
 1021YOPC   PO413386  18.687  11.851   6.084  0.1462  0.0977  0.1161
 1021YOPC   GL113387  18.758  11.889   6.570  0.1727 -0.2456 -0.0718
 1021YOPC   GL213388  19.038  11.742   6.720 -0.2705 -0.0860  0.0013
 1021YOPC   C1A13389  18.829  12.154   6.981 -0.0973  0.0067 -0.0034
 1021YOPC   D2A13390  19.008  12.013   7.394  0.1577  0.0730 -0.3111
 1021YOPC   C3A13391  19.098  12.205   7.798  0.0667 -0.0342 -0.2379
 1021YOPC   C4A13392  19.026  12.109   8.191  0.2161 -0.0649  0.2004
 1021YOPC   C1B13393  18.929  11.690   7.068  0.0004 -0.1735 -0.3808
 1021YOPC   C2B13394  18.839  11.546   7.455 -0.4214 -0.1194  0.2525
 1021YOPC   D3B13395  18.794  11.695   7.792 -0.1085  0.0030  0.1430
 1021YOPC   C4B13396  18.647  11.795   8.210 -0.1010  0.0869 -0.0147
 1022YOPC   NC313397  10.975  17.513   4.801 -0.0291  0.1740 -0.2225
 1022YOPC   PO413398  11.228  17.456   5.182 -0.2986  0.0559 -0.0518
 1022YOPC   GL113399  11.172  17.255   5.494  0.0054  0.0588  0.2068
 1022YOPC   GL213400  11.435  17.128   5.601 -0.0289  0.1243 -0.4206
 1022YOPC   C1A13401  11.036  17.172   5.968 -0.0661  0.2322 -0.1825
 1022YOPC   D2A13402  10.811  17.026   6.310 -0.0012 -0.2628 -0.1183
 1022YOPC   C3A13403  10.513  17.138   6.633  0.0230 -0.0509 -0.0771
 1022YOPC   C4A13404  10.492  17.287   7.103 -0.0813  0.0523  0.2291
 1022YOPC   C1B13405  11.396  16.814   5.989  0.0679 -0.0922 -0.1208
 1022YOPC   C2B13406  11.210  16.641   6.336 -0.1740 -0.0940  0.1724
 1022YOPC   D3B13407  10.960  16.429   6.577 -0.0085 -0.0172  0.0811
 1022YOPC   C4B13408  10.575  16.579   6.611  0.0790 -0.1561  0.1993
 1023YOPC   NC313409   4.155   6.053   5.915  0.0280 -0.1076  0.2273
 1023YOPC   PO413410   3.754   6.189   5.842  0.1538  0.1186  0.0503
 1023YOPC   GL113411   3.444   5.928   6.092 -0.2904 -0.1926 -0.0467
 1023YOPC   GL213412   3.434   5.673   6.255 -0.1259 -0.0974  0.0155
 1023YOPC   C1A13413   3.466   6.039   6.552 -0.1485 -0.1965  0.0195
 1023YOPC   D2A13414   3.933   6.105   6.785 -0.1137 -0.2474 -0.0140
 1023YOPC   C3A13415   4.024   6.150   7.285  0.1083  0.1101  0.0948
 1023YOPC   C4A13416   3.925   6.050   7.556 -0.0757  0.1208 -0.2630
 1023YOPC   C1B13417   3.194   5.491   6.556  0.2150  0.2637 -0.1075
 1023YOPC   C2B13418   3.241   5.714   6.910 -0.0324 -0.0931  0.1482
 1023YOPC   D3B13419   3.133   5.491   7.327  0.1403 -0.0708  0.0876
 1023YOPC   C4B13420   2.857   5.466   7.655 -0.3473 -0.0706 -0.0154
 1024YOPC   NC313421   1.076   8.299   5.900 -0.0363 -0.0133  0.2143
 1024YOPC   PO413422   0.855   8.693   5.953  0.2447 -0.2131  0.1987
 1024YOPC   GL113423   0.625   8.721   6.294  0.2634 -0.1027  0.0228
 1024YOPC   GL213424   0.724   8.967   6.492  0.3750  0.3177 -0.0247
 1024YOPC   C1A13425   0.442   8.581   6.691  0.0273  0.0444 -0.2431
 1024YOPC   D2A13426   0.269   8.235   6.894  0.4590  0.1941  0.0035
 1024YOPC   C3A13427   0.247   8.082   7.396 -0.1250  0.2151  0.0472
 1024YOPC   C4A13428   0.624   8.027   7.754  0.0351  0.0150  0.1850
 1024YOPC   C1B13429   0.647   9.130   6.968 -0.3535 -0.2186 -0.0213
 1024YOPC   C2B13430   0.639   9.126   7.486 -0.3676  0.0756 -0.0372
 1024YOPC   D3B13431   0.943   9.060   7.796  0.0944  0.0851 -0.2611
 1024YOPC   C4B13432   0.984   8.816   8.128  0.0922  0.2422 -0.3404
 1025YOPC   NC313433  13.955  13.965   5.896  0.2239 -0.1286 -0.0583
 1025YOPC   PO413434  13.582  14.218   6.036  0.3691  0.1796  0.1738
 1025YOPC   GL113435  13.599  14.479   6.348  0.1484 -0.1029 -0.0610
 1025YOPC   GL213436  13.772  14.719   6.162 -0.1165 -0.1046  0.0464
 1025YOPC   C1A13437  13.759  14.779   6.613 -0.5144  0.2495 -0.0565
 1025YOPC   D2A13438  13.777  15.142   6.809  0.0825  0.2722  0.0953
 1025YOPC   C3A13439  13.927  15.036   7.181 -0.1890 -0.0895 -0.1089
 1025YOPC   C4A13440  14.135  14.656   7.314 -0.1166 -0.0133 -0.0517
 1025YOPC   C1B13441  13.373  14.984   6.396  0.1721 -0.1033 -0.1761
 1025YOPC   C2B13442  13.294  15.275   6.666  0.0706  0.0146 -0.0159
 1025YOPC   D3B13443  12.881  15.360   6.865 -0.0515  0.0351  0.1197
 1025YOPC   C4B13444  12.857  15.381   7.244 -0.0456  0.1296 -0.0225
 1026YOPC   NC313445   2.794   7.305   5.750 -0.1067 -0.0280  0.1512
 1026YOPC   PO413446   3.308   7.045   5.749 -0.2236 -0.1354  0.1232
 1026YOPC   GL113447   3.140   7.216   6.191  0.1292 -0.1291  0.1749
 1026YOPC   GL213448   3.309   6.946   6.245  0.0722  0.0303  0.2940
 1026YOPC   C1A13449   3.045   7.272   6.575 -0.1283  0.0909 -0.4921
 1026YOPC   D2A13450   3.058   7.017   6.968 -0.0303  0.0724  0.0575
 1026YOPC   C3A13451   3.223   6.997   7.409  0.0091 -0.0768 -0.0734
 1026YOPC   C4A13452   3.470   6.915   7.772 -0.2554  0.1134 -0.2687
 1026YOPC   C1B13453   3.463   6.850   6.636 -0.1871  0.1527  0.1016
 1026YOPC   C2B13454   3.518   6.915   7.062 -0.0465 -0.2337 -0.1380
 1026YOPC   D3B13455   3.598   6.489   7.308  0.1990 -0.2753  0.0698
 1026YOPC   C4B13456   3.509   6.115   7.083  0.0008  0.5293 -0.0162
 1027YOPC   NC313457  16.145   7.584   6.141  0.0381  0.0640 -0.1737
 1027YOPC   PO413458  16.367   8.069   6.035  0.0498 -0.1006 -0.3212
 1027YOPC   GL113459  16.404   8.007   6.563 -0.0445  0.1347 -0.0929
 1027YOPC   GL213460  16.125   7.793   6.624 -0.0440  0.0535 -0.0779
 1027YOPC   C1A13461  16.479   8.112   7.082  0.1990  0.2212  0.1029
 1027YOPC   D2A13462  16.227   8.457   7.251 -0.0633 -0.0055 -0.1219
 1027YOPC   C3A13463  16.304   8.420   7.723 -0.2488  0.2777  0.1417
 1027YOPC   C4A13464  16.419   8.702   7.983  0.1230  0.3034  0.0844
 1027YOPC   C1B13465  16.051   7.851   7.032 -0.1269 -0.1882  0.1439
 1027YOPC   C2B13466  16.055   8.009   7.465 -0.1761  0.0222  0.0786
 1027YOPC   D3B13467  15.725   7.915   7.746  0.3401 -0.0943 -0.0514
 1027YOPC   C4B13468  15.815   7.761   8.061 -0.1362 -0.1394  0.1274
 1028YOPC   NC313469  16.539  17.854   6.099 -0.0394  0.1667  0.0167
 1028YOPC   PO413470  16.592  17.408   6.092 -0.1372 -0.2645 -0.1194
 1028YOPC   GL113471  16.610  17.221   6.481  0.0251 -0.0168  0.1553
 1028YOPC   GL213472  16.898  17.102   6.479  0.1247  0.0217  0.1264
 1028YOPC   C1A13473  16.459  17.023   6.805 -0.0741  0.1014 -0.0214
 1028YOPC   D2A13474  16.296  16.735   7.184  0.2024  0.2543 -0.0992
 1028YOPC   C3A13475  16.321  16.851   7.667  0.3373 -0.0274 -0.1438
 1028YOPC   C4A13476  16.268  16.744   8.128 -0.1024 -0.1747  0.1636
 1028YOPC   C1B13477  16.942  16.955   6.817 -0.3346  0.0533 -0.1014
 1028YOPC   C2B13478  16.921  17.164   7.234 -0.1187 -0.0609 -0.0420
 1028YOPC   D3B13479  17.265  17.135   7.470 -0.0859  0.1445  0.2175
 1028YOPC   C4B13480  17.626  17.231   7.741  0.2230 -0.0057  0.3748
 1029YOPC   NC313481  17.470  12.057   5.616 -0.3982  0.0660  0.0493
 1029YOPC   PO413482  17.527  12.248   6.041 -0.2572  0.1273  0.1999
 1029YOPC   GL113483  17.526  12.048   6.467 -0.2856 -0.0463 -0.0025
 1029YOPC   GL213484  17.601  12.353   6.665 -0.3183 -0.1491 -0.3824
 1029YOPC   C1A13485  17.207  12.111   6.785 -0.1332  0.4060  0.1671
 1029YOPC   D2A13486  16.866  11.907   7.083  0.0414  0.1940 -0.0312
 1029YOPC   C3A13487  16.657  12.240   7.389 -0.1383 -0.2466  0.0524
 1029YOPC   C4A13488  16.539  12.652   7.544  0.0524  0.1009 -0.2288
 1029YOPC   C1B13489  17.705  12.427   7.116 -0.2575  0.1900 -0.0132
 1029YOPC   C2B13490  17.550  12.585   7.541  0.0124 -0.0107  0.1051
 1029YOPC   D3B13491  17.109  12.466   7.694  0.2289  0.0781 -0.2680
 1029YOPC   C4B13492  16.865  12.427   8.088  0.0295  0.2694  0.0523
 1030YOPC   NC313493   6.818  16.419   5.205 -0.1160 -0.1280 -0.0224
 1030YOPC   PO413494   6.894  16.169   5.619  0.0912 -0.1859 -0.1847
 1030YOPC   GL113495   6.731  16.456   5.871 -0.0726 -0.2023 -0.3939
 1030YOPC   GL213496   6.895  16.658   5.972 -0.1709 -0.1458 -0.0821
 1030YOPC   C1A13497   6.322  16.362   6.209  0.0364 -0.1234 -0.1882
 1030YOPC   D2A13498   6.201  16.349   6.525 -0.2812 -0.0967 -0.1335
 1030YOPC   C3A13499   6.365  16.675   6.788  0.4325 -0.0062 -0.0456
 1030YOPC   C4A13500   6.697  16.898   6.832  0.0096 -0.0771 -0.2904
 1030YOPC   C1B13501   6.713  16.856   6.312 -0.0800 -0.3481  0.1442
 1030YOPC   C2B13502   6.291  17.110   6.483 -0.3608 -0.1259 -0.1178
 1030YOPC   D3B13503   6.286  17.233   6.870 -0.0701 -0.1057  0.0970
 1030YOPC   C4B13504   6.416  17.138   7.236  0.0151 -0.0729 -0.3670
 1031YOPC   NC313505  14.544   5.688   5.568  0.0555  0.0989  0.2410
 1031YOPC   PO413506  14.786   6.038   5.491  0.0001 -0.1134 -0.1353
 1031YOPC   GL113507  14.748   6.034   5.962 -0.0029 -0.2988 -0.2294
 1031YOPC   GL213508  14.665   5.779   6.030  0.2755 -0.1798  0.0693
 1031YOPC   C1A13509  14.778   6.045   6.401 -0.0510 -0.0189 -0.1534
 1031YOPC   D2A13510  14.690   6.330   6.784 -0.2130 -0.0359  0.4926
 1031YOPC   C3A13511  14.586   6.377   7.238  0.2586 -0.1855 -0.1802
 1031YOPC   C4A13512  14.446   6.274   7.755 -0.0874  0.0516  0.5252
 1031YOPC   C1B13513  14.569   5.464   6.336 -0.1926 -0.3048  0.1535
 1031YOPC   C2B13514  14.506   5.340   6.768 -0.0250 -0.0141  0.0209
 1031YOPC   D3B13515  14.411   5.048   7.072 -0.1283 -0.1280  0.0768
 1031YOPC   C4B13516  14.614   5.017   7.421  0.0333  0.1108  0.0697
 1032YOPC   NC313517   7.976   1.696   5.535 -0.2859  0.0233 -0.3049
 1032YOPC   PO413518   8.017   1.477   5.898  0.2056  0.1332 -0.3465
 1032YOPC   GL113519   8.302   1.364   6.186 -0.2132 -0.0510  0.0040
 1032YOPC   GL213520   8.658   1.353   6.123 -0.0491  0.1022  0.1252
 1032YOPC   C1A13521   8.342   1.210   6.548 -0.1597 -0.1363  0.1424
 1032YOPC   D2A13522   8.448   1.022   6.838 -0.1914  0.1966 -0.3865
 1032YOPC   C3A13523   8.239   0.676   7.014 -0.1653  0.0051 -0.0769
 1032YOPC   C4A13524   8.489   0.288   7.202 -0.1033 -0.2492  0.2660
 1032YOPC   C1B13525   8.930   1.243   6.434 -0.1965 -0.3480 -0.1806
 1032YOPC   C2B13526   9.051   1.027   6.798 -0.2854  0.1524 -0.0994
 1032YOPC   D3B13527   9.240   1.037   7.179 -0.0944  0.0120 -0.0168
 1032YOPC   C4B13528   9.290   0.786   7.486 -0.1484  0.3361 -0.1071
 1033YOPC   NC313529   1.674   4.222   5.914 -0.2301  0.0853  0.3797
 1033YOPC   PO413530   1.923   4.553   5.992 -0.2139  0.2710  0.3271
 1033YOPC   GL113531   1.679   4.490   6.326  0.1685  0.0023 -0.2897
 1033YOPC   GL213532   1.419   4.299   6.334  0.2899  0.2187  0.5955
 1033YOPC   C1A13533   1.562   4.595   6.726  0.0061 -0.0320  0.0936
 1033YOPC   D2A13534   1.360   4.716   7.062 -0.0770  0.0158  0.1232
 1033YOPC   C3A13535   1.013   4.692   7.157  0.1862 -0.0180 -0.0668
 1033YOPC   C4A13536   0.820   4.879   7.544 -0.2023  0.2298 -0.0510
 1033YOPC   C1B13537   1.073   4.422   6.632  0.1188 -0.0124  0.0279
 1033YOPC   C2B13538   0.599   4.346   6.834  0.0766 -0.0863  0.0702
 1033YOPC   D3B13539   0.376   4.226   7.224 -0.1034 -0.2377 -0.0188
 1033YOPC   C4B13540   0.042   3.892   7.285  0.0235 -0.0862  0.1917
 1034YOPC   NC313541  14.544  13.439   5.530  0.1489 -0.0864 -0.2434
 1034YOPC   PO413542  14.321  13.636   5.883  0.2780 -0.3378  0.3639
 1034YOPC   GL113543  14.007  13.637   6.278  0.2094  0.2419 -0.1621
 1034YOPC   GL213544  13.893  14.018   6.410  0.0837  0.2297 -0.3581
 1034YOPC   C1A13545  13.643  13.727   6.686 -0.2491  0.2170  0.0526
 1034YOPC   D2A13546  13.243  13.508   6.770  0.1431 -0.2685  0.0080
 1034YOPC   C3A13547  13.264  13.338   7.204  0.0954 -0.1612  0.2858
 1034YOPC   C4A13548  13.153  13.175   7.627  0.0061  0.1095 -0.1455
 1034YOPC   C1B13549  13.651  14.207   6.817 -0.0755  0.0915  0.1957
 1034YOPC   C2B13550  13.500  14.076   7.307 -0.3235 -0.1071  0.1059
 1034YOPC   D3B13551  13.011  14.269   7.477 -0.1956 -0.1655  0.2532
 1034YOPC   C4B13552  12.674  14.006   7.349  0.1226  0.0641  0.4751
 1035YOPC   NC313553   1.383  10.264   6.280 -0.2045  0.0698  0.1462
 1035YOPC   PO413554   1.124  10.291   6.499 -0.3917  0.0801  0.3812
 1035YOPC   GL113555   0.974  10.239   6.936 -0.2563 -0.2064 -0.1647
 1035YOPC   GL213556   0.924   9.954   7.043 -0.3435  0.4088  0.2546
 1035YOPC   C1A13557   0.855  10.429   7.283 -0.0398 -0.0946 -0.0172
 1035YOPC   D2A13558   0.769  10.591   7.709  0.2504  0.0295  0.0794
 1035YOPC   C3A13559   0.668  10.885   8.011 -0.0164 -0.2244 -0.0341
 1035YOPC   C4A13560   0.440  10.818   8.351 -0.4963 -0.0766 -0.0235
 1035YOPC   C1B13561   1.020  10.028   7.513 -0.0685  0.0502  0.0108
 1035YOPC   C2B13562   1.035  10.122   7.906  0.0770 -0.1259 -0.1088
 1035YOPC   D3B13563   1.184   9.846   8.232 -0.0014  0.1599 -0.0899
 1035YOPC   C4B13564   1.120   9.833   8.690  0.4855  0.0403 -0.1284
 1036YOPC   NC313565   1.989   3.416   5.909  0.1285 -0.0417 -0.0514
 1036YOPC   PO413566   1.671   3.233   5.678  0.0170  0.1802  0.1400
 1036YOPC   GL113567   1.717   3.088   6.140  0.2119 -0.0714 -0.0748
 1036YOPC   GL213568   1.436   3.318   6.224 -0.2631 -0.0588 -0.3171
 1036YOPC   C1A13569   1.806   2.952   6.547 -0.0462  0.3763 -0.5094
 1036YOPC   D2A13570   2.109   2.895   6.763  0.0649  0.0771  0.0178
 1036YOPC   C3A13571   2.130   2.775   7.176  0.0267 -0.0526 -0.1300
 1036YOPC   C4A13572   2.125   2.636   7.510  0.0083 -0.3632 -0.1904
 1036YOPC   C1B13573   1.273   3.283   6.665 -0.0728 -0.0637 -0.0891
 1036YOPC   C2B13574   1.126   3.320   7.162  0.1291 -0.3367 -0.1948
 1036YOPC   D3B13575   1.391   3.402   7.476  0.1174  0.1213  0.3117
 1036YOPC   C4B13576   1.735   3.618   7.511 -0.1010 -0.0242  0.0174
 1037YOPC   NC313577   5.907   7.903   5.206  0.4465 -0.0625 -0.2502
 1037YOPC   PO413578   5.750   8.192   5.536 -0.1173 -0.1964  0.0629
 1037YOPC   GL113579   5.740   8.348   5.911 -0.2870  0.1205 -0.0375
 1037YOPC   GL213580   5.986   8.162   6.160  0.0581 -0.0354 -0.1123
 1037YOPC   C1A13581   5.777   8.601   6.232  0.0520 -0.0476  0.2420
 1037YOPC   D2A13582   5.844   8.577   6.687  0.1795 -0.0483  0.0582
 1037YOPC   C3A13583   5.757   8.194   6.986 -0.0848 -0.1454 -0.1063
 1037YOPC   C4A13584   5.808   7.982   7.407  0.2931  0.2781 -0.3718
 1037YOPC   C1B13585   6.203   8.137   6.594  0.3900  0.2886  0.2839
 1037YOPC   C2B13586   6.228   8.147   7.082 -0.1302  0.2149 -0.0134
 1037YOPC   D3B13587   6.252   8.136   7.518 -0.0766  0.2474  0.0022
 1037YOPC   C4B13588   6.085   8.037   7.880  0.1477 -0.2848 -0.2273
 1038YOPC   NC313589   1.109  15.971   5.899  0.0747  0.0656  0.0811
 1038YOPC   PO413590   1.064  16.428   6.145 -0.0430  0.3044 -0.3648
 1038YOPC   GL113591   0.926  16.548   6.572  0.2596 -0.0049 -0.0586
 1038YOPC   GL213592   1.163  16.826   6.646  0.3834  0.3270  0.1294
 1038YOPC   C1A13593   0.908  16.563   7.047 -0.0428 -0.1611  0.1076
 1038YOPC   D2A13594   0.775  16.877   7.370  0.0696  0.3304  0.0996
 1038YOPC   C3A13595   0.983  16.876   7.767 -0.2272  0.0405 -0.4325
 1038YOPC   C4A13596   1.095  17.208   8.012  0.1667  0.0316 -0.0067
 1038YOPC   C1B13597   1.208  16.969   7.072  0.0406  0.1787 -0.0969
 1038YOPC   C2B13598   1.257  16.672   7.390 -0.2332 -0.0460  0.1130
 1038YOPC   D3B13599   1.003  16.278   7.576 -0.2160 -0.2431  0.1872
 1038YOPC   C4B13600   0.813  15.930   7.762 -0.1120 -0.2476  0.3921
 1039YOPC   NC313601   3.206  11.622   5.895 -0.0362 -0.0826 -0.5453
 1039YOPC   PO413602   3.501  11.627   6.276  0.0224  0.3430  0.1669
 1039YOPC   GL113603   3.397  11.730   6.630 -0.3173 -0.1056  0.1703
 1039YOPC   GL213604   3.141  11.774   6.677 -0.1336  0.1794 -0.0688
 1039YOPC   C1A13605   3.425  11.600   7.109 -0.1181  0.0637  0.2492
 1039YOPC   D2A13606   3.741  11.741   7.358 -0.2312  0.0072 -0.3783
 1039YOPC   C3A13607   4.071  11.439   7.584 -0.1076  0.1331  0.0095
 1039YOPC   C4A13608   4.469  11.327   7.630 -0.2104 -0.3168  0.0062
 1039YOPC   C1B13609   2.914  11.551   6.949  0.0971 -0.3259  0.4709
 1039YOPC   C2B13610   2.884  11.255   7.227  0.1266 -0.0537  0.0692
 1039YOPC   D3B13611   3.093  11.303   7.594 -0.0190 -0.0935 -0.1386
 1039YOPC   C4B13612   3.173  11.115   7.933  0.3435  0.1489 -0.0622
 1040YOPC   NC313613  15.512  17.459   5.520 -0.0962 -0.3166 -0.0695
 1040YOPC   PO413614  15.907  17.248   5.820  0.1669 -0.0679 -0.1002
 1040YOPC   GL113615  15.695  17.172   6.181 -0.0447  0.0435 -0.2605
 1040YOPC   GL213616  15.790  17.037   6.400  0.1430  0.0517 -0.1880
 1040YOPC   C1A13617  15.475  17.430   6.474 -0.0530 -0.0039  0.2631
 1040YOPC   D2A13618  15.089  17.448   6.555 -0.1237  0.1896 -0.1177
 1040YOPC   C3A13619  15.027  17.572   6.903  0.2442  0.2610 -0.1020
 1040YOPC   C4A13620  14.764  17.425   7.189  0.2671  0.0759 -0.0571
 1040YOPC   C1B13621  16.061  17.275   6.687  0.1123  0.1491 -0.1197
 1040YOPC   C2B13622  16.029  17.292   7.095  0.2488  0.2319 -0.0972
 1040YOPC   D3B13623  16.331  17.303   7.490 -0.0335 -0.0049 -0.3005
 1040YOPC   C4B13624  16.485  17.653   7.819 -0.1539 -0.0261  0.0740
 1041YOPC   NC313625  15.235   3.420   5.484  0.1655 -0.2280 -0.1095
 1041YOPC   PO413626  15.428   3.328   5.790 -0.4207 -0.0840 -0.0249
 1041YOPC   GL113627  15.172   3.501   6.149 -0.0974  0.1491  0.0210
 1041YOPC   GL213628  14.890   3.505   6.180  0.0340 -0.0324 -0.2921
 1041YOPC   C1A13629  15.225   3.714   6.567 -0.2432  0.0954 -0.1298
 1041YOPC   D2A13630  15.135   3.885   6.962  0.2063 -0.1333 -0.0508
 1041YOPC   C3A13631  15.029   3.768   7.387 -0.0573  0.2034  0.2692
 1041YOPC   C4A13632  14.963   3.759   7.756  0.2334 -0.0871  0.0185
 1041YOPC   C1B13633  14.873   3.311   6.563 -0.0986 -0.0012 -0.0896
 1041YOPC   C2B13634  14.887   3.398   7.001 -0.0394 -0.2171 -0.5473
 1041YOPC   D3B13635  14.911   3.139   7.378  0.0620  0.2974 -0.0146
 1041YOPC   C4B13636  14.688   3.035   7.807 -0.1327 -0.2706  0.0793
 1042YOPC   NC313637  15.204  16.602   5.713 -0.1661  0.0008  0.0077
 1042YOPC   PO413638  15.423  16.747   6.034 -0.1038  0.1807 -0.0186
 1042YOPC   GL113639  15.202  16.697   6.382 -0.1907 -0.2628 -0.1784
 1042YOPC   GL213640  14.932  16.674   6.502 -0.0443 -0.1750  0.3713
 1042YOPC   C1A13641  15.293  16.929   6.662 -0.0168 -0.1350 -0.1725
 1042YOPC   D2A13642  15.403  17.208   6.942 -0.2383 -0.1505 -0.3628
 1042YOPC   C3A13643  15.156  17.049   7.245 -0.0036  0.0553  0.0361
 1042YOPC   C4A13644  14.855  16.810   7.455  0.0074  0.1533 -0.0243
 1042YOPC   C1B13645  15.147  16.308   6.700  0.0886 -0.2895  0.0758
 1042YOPC   C2B13646  15.187  16.004   7.048 -0.0246  0.1400 -0.1702
 1042YOPC   D3B13647  15.045  16.134   7.528  0.2913 -0.2193  0.2048
 1042YOPC   C4B13648  14.763  16.416   7.734  0.1245  0.2429 -0.2748
 1043YOPC   NC313649   3.284   6.544   5.831 -0.0895  0.0424  0.0956
 1043YOPC   PO413650   2.880   6.881   5.910 -0.1652  0.1186  0.0218
 1043YOPC   GL113651   2.954   6.637   6.225  0.0526  0.1478 -0.0979
 1043YOPC   GL213652   2.853   6.806   6.572 -0.0082  0.1607  0.3164
 1043YOPC   C1A13653   3.192   6.443   6.586  0.0169 -0.2631  0.3755
 1043YOPC   D2A13654   3.272   6.510   6.862  0.1829 -0.1421  0.0763
 1043YOPC   C3A13655   3.093   6.459   7.345  0.2797  0.2247  0.3560
 1043YOPC   C4A13656   3.116   6.571   7.719  0.2739  0.0422 -0.0102
 1043YOPC   C1B13657   2.722   6.576   6.963 -0.2375 -0.1419  0.1246
 1043YOPC   C2B13658   2.512   6.457   7.209 -0.2455 -0.0976  0.1473
 1043YOPC   D3B13659   2.420   5.998   7.342 -0.2663  0.2102 -0.0721
 1043YOPC   C4B13660   2.526   5.614   7.313 -0.3523 -0.0868 -0.0080
 1044YOPC   NC313661  17.049  15.343   5.701 -0.3488  0.1195  0.0216
 1044YOPC   PO413662  16.776  15.607   5.952 -0.1426  0.0350 -0.0610
 1044YOPC   GL113663  16.655  15.601   6.256  0.1002 -0.2305 -0.0622
 1044YOPC   GL213664  16.720  15.398   6.468  0.2724  0.0559 -0.2097
 1044YOPC   C1A13665  16.579  15.860   6.632 -0.0715  0.0034 -0.1306
 1044YOPC   D2A13666  16.293  16.136   6.848  0.4494 -0.1993  0.0207
 1044YOPC   C3A13667  16.255  16.214   7.238  0.1148 -0.2689 -0.0573
 1044YOPC   C4A13668  16.191  16.391   7.721 -0.0460  0.0218  0.0896
 1044YOPC   C1B13669  17.006  15.676   6.810 -0.3587  0.0228  0.2955
 1044YOPC   C2B13670  17.247  15.344   7.024  0.0008 -0.0128  0.1481
 1044YOPC   D3B13671  17.338  15.468   7.497 -0.0768  0.0352  0.0875
 1044YOPC   C4B13672  17.424  15.515   7.952  0.0112 -0.1737  0.0290
 1045YOPC   NC313673   6.242   5.040   5.899  0.0412 -0.1664 -0.1319
 1045YOPC   PO413674   6.123   4.665   5.941 -0.0567  0.1380  0.1072
 1045YOPC   GL113675   6.123   4.731   6.405  0.1548  0.1117 -0.0737
 1045YOPC   GL213676   5.903   4.907   6.610 -0.2448  0.2675  0.2812
 1045YOPC   C1A13677   6.418   4.771   6.739 -0.0181  0.1258  0.0751
 1045YOPC   D2A13678   6.430   4.925   7.109 -0.2546 -0.1616  0.1529
 1045YOPC   C3A13679   6.722   5.074   7.386 -0.0905  0.0281  0.1289
 1045YOPC   C4A13680   6.780   5.353   7.751  0.2086 -0.2719  0.1038
 1045YOPC   C1B13681   5.879   4.681   6.930  0.0159 -0.0740  0.1105
 1045YOPC   C2B13682   5.671   4.618   7.377  0.0556  0.3162 -0.0581
 1045YOPC   D3B13683   5.853   4.536   7.823  0.1890  0.1748  0.2340
 1045YOPC   C4B13684   5.739   4.094   7.988 -0.0793 -0.2943 -0.2138
 1046YOPC   NC313685  12.827   2.847   5.466  0.0434  0.2009 -0.2307
 1046YOPC   PO413686  13.147   3.245   5.546  0.0523  0.2899 -0.0642
 1046YOPC   GL113687  13.076   3.005   5.874 -0.0474  0.3338 -0.0005
 1046YOPC   GL213688  13.189   2.751   6.114  0.0572 -0.2820 -0.4229
 1046YOPC   C1A13689  13.030   3.266   6.201  0.1463 -0.0743 -0.0048
 1046YOPC   D2A13690  12.881   3.695   6.318 -0.1210 -0.1078 -0.1298
 1046YOPC   C3A13691  12.910   3.783   6.731 -0.3383  0.1221 -0.0180
 1046YOPC   C4A13692  13.122   3.956   7.035  0.0111 -0.1855  0.1295
 1046YOPC   C1B13693  13.157   2.668   6.534 -0.1062 -0.0705 -0.0312
 1046YOPC   C2B13694  12.967   2.603   6.929 -0.0529  0.0425  0.0067
 1046YOPC   D3B13695  12.927   2.662   7.342 -0.0247 -0.2442 -0.0169
 1046YOPC   C4B13696  12.715   2.823   7.618  0.1010  0.3677  0.0534
 1047YOPC   NC313697  10.603  10.279   5.047 -0.1694  0.2754  0.0177
 1047YOPC   PO413698  10.561  10.320   5.494  0.0475  0.0008  0.2553
 1047YOPC   GL113699  10.521  10.460   5.967 -0.0075 -0.1313 -0.0763
 1047YOPC   GL213700  10.632  10.737   6.165 -0.3644 -0.0431 -0.1410
 1047YOPC   C1A13701  10.428  10.248   6.382  0.1066 -0.1788  0.2283
 1047YOPC   D2A13702  10.382  10.278   6.799  0.1150 -0.3115  0.1621
 1047YOPC   C3A13703  10.294   9.894   7.098 -0.2666  0.1319  0.0496
 1047YOPC   C4A13704  10.067   9.528   7.344 -0.3680  0.1890  0.0164
 1047YOPC   C1B13705  10.701  10.676   6.584  0.1356 -0.0156  0.0380
 1047YOPC   C2B13706  10.848  10.557   7.016  0.0186  0.1475  0.0205
 1047YOPC   D3B13707  10.715  10.819   7.182  0.0215 -0.0856  0.0967
 1047YOPC   C4B13708  10.613  11.158   7.193  0.0834  0.1385 -0.1596
 1048YOPC   NC313709  12.089  11.259   5.785 -0.1527  0.0706 -0.0170
 1048YOPC   PO413710  11.913  11.011   5.438  0.2516  0.0877 -0.0382
 1048YOPC   GL113711  11.934  10.781   5.850 -0.2250 -0.2856 -0.2553
 1048YOPC   GL213712  12.119  10.944   6.150  0.3947 -0.1933 -0.0214
 1048YOPC   C1A13713  11.736  10.699   6.302  0.1894  0.1360 -0.2938
 1048YOPC   D2A13714  11.784  10.693   6.611 -0.2547 -0.0146 -0.1894
 1048YOPC   C3A13715  11.641  10.569   6.949  0.0763 -0.2091 -0.2438
 1048YOPC   C4A13716  11.594  10.723   7.357  0.0518 -0.1742  0.0969
 1048YOPC   C1B13717  12.260  10.849   6.513 -0.1266 -0.0554 -0.1537
 1048YOPC   C2B13718  12.203  10.548   6.910  0.0078 -0.2120  0.3589
 1048YOPC   D3B13719  12.193  10.636   7.346  0.2278  0.0080  0.0898
 1048YOPC   C4B13720  11.922  10.534   7.685 -0.0289  0.1375  0.0414
 1049YOPC   NC313721   5.677   4.523   5.711  0.0475  0.0705  0.0175
 1049YOPC   PO413722   5.369   4.380   6.042  0.1564 -0.0362 -0.1954
 1049YOPC   GL113723   5.580   4.464   6.431  0.0900 -0.0564 -0.1973
 1049YOPC   GL213724   5.603   4.044   6.493  0.1813 -0.1571  0.2112
 1049YOPC   C1A13725   5.461   4.406   6.864  0.0456  0.1397 -0.1586
 1049YOPC   D2A13726   5.194   4.613   7.218  0.6861  0.1491  0.0245
 1049YOPC   C3A13727   5.292   4.741   7.700  0.0338 -0.1900  0.0872
 1049YOPC   C4A13728   5.167   4.726   8.066  0.0687 -0.1266  0.0762
 1049YOPC   C1B13729   5.445   3.897   6.975  0.0323  0.1025  0.0222
 1049YOPC   C2B13730   5.112   4.086   7.222 -0.1372  0.1380  0.1278
 1049YOPC   D3B13731   5.000   3.907   7.673 -0.1047 -0.0551 -0.2684
 1049YOPC   C4B13732   4.841   4.076   8.155 -0.1452 -0.0914 -0.0418
 1050YOPC   NC313733  14.040   1.081   5.814  0.5744 -0.1073  0.1393
 1050YOPC   PO413734  13.735   0.972   6.079  0.0341 -0.0490  0.1501
 1050YOPC   GL113735  13.950   1.105   6.364 -0.2085 -0.1124 -0.0872
 1050YOPC   GL213736  13.887   1.022   6.574 -0.2794 -0.0177 -0.1569
 1050YOPC   C1A13737  14.160   1.429   6.397  0.1338  0.0873 -0.3407
 1050YOPC   D2A13738  14.493   1.656   6.282 -0.2417 -0.0693  0.0504
 1050YOPC   C3A13739  14.987   1.606   6.283  0.0725  0.0168 -0.0810
 1050YOPC   C4A13740  15.210   1.309   6.371 -0.2025 -0.1393 -0.0772
 1050YOPC   C1B13741  13.481   1.148   6.724 -0.2660 -0.1415  0.4241
 1050YOPC   C2B13742  13.283   1.049   7.018 -0.1480 -0.2339 -0.0779
 1050YOPC   D3B13743  13.436   0.956   7.446 -0.1783  0.1694 -0.1502
 1050YOPC   C4B13744  13.667   0.928   7.782  0.0559  0.2272  0.0462
 1051YOPC   NC313745   1.198  11.676   6.083 -0.0935 -0.0325 -0.1014
 1051YOPC   PO413746   0.954  11.413   6.299  0.1326 -0.0301 -0.2367
 1051YOPC   GL113747   0.979  11.303   6.780 -0.2222  0.3720  0.2066
 1051YOPC   GL213748   0.772  11.419   6.990  0.0013  0.0959 -0.2136
 1051YOPC   C1A13749   1.238  11.284   7.127 -0.0209 -0.2440  0.1033
 1051YOPC   D2A13750   1.251  11.347   7.578 -0.1678 -0.0508 -0.2002
 1051YOPC   C3A13751   1.586  11.411   7.691 -0.3434  0.1486 -0.2842
 1051YOPC   C4A13752   1.806  11.715   7.914 -0.0096  0.1240  0.1036
 1051YOPC   C1B13753   0.901  11.676   7.256  0.1058  0.0326 -0.1395
 1051YOPC   C2B13754   0.976  11.859   7.642  0.1639  0.2575  0.0063
 1051YOPC   D3B13755   1.107  12.167   7.895  0.3169  0.0228 -0.2113
 1051YOPC   C4B13756   1.209  12.497   8.039 -0.2018 -0.0768 -0.1198
 1052YOPC   NC313757  15.395   6.123   5.621 -0.2255  0.0954  0.0816
 1052YOPC   PO413758  15.662   6.442   5.786 -0.4774  0.0727  0.1103
 1052YOPC   GL113759  15.672   6.202   6.199 -0.0941  0.2446  0.2485
 1052YOPC   GL213760  15.290   6.098   6.162  0.2793  0.0657 -0.0605
 1052YOPC   C1A13761  15.850   6.191   6.575 -0.0075  0.1220  0.0088
 1052YOPC   D2A13762  15.683   6.136   6.955 -0.3343  0.0224 -0.0242
 1052YOPC   C3A13763  15.354   5.914   7.106  0.1535  0.0055  0.0709
 1052YOPC   C4A13764  15.188   5.599   7.263 -0.3627 -0.1256 -0.1338
 1052YOPC   C1B13765  15.307   6.023   6.609 -0.0121  0.1613  0.1091
 1052YOPC   C2B13766  15.212   6.319   6.798  0.3500  0.3904 -0.2180
 1052YOPC   D3B13767  15.037   6.523   6.457 -0.4310 -0.1585  0.1232
 1052YOPC   C4B13768  14.695   6.544   6.265 -0.2095 -0.0942 -0.0008
 1053YOPC   NC313769   6.901  13.247   5.212  0.0202 -0.0723  0.0084
 1053YOPC   PO413770   6.851  12.971   5.519  0.1929  0.0909  0.1497
 1053YOPC   GL113771   6.933  13.076   5.940  0.1872  0.2097  0.0412
 1053YOPC   GL213772   7.117  12.724   6.122 -0.1820 -0.3567 -0.3375
 1053YOPC   C1A13773   6.956  13.083   6.453 -0.1407 -0.0040 -0.1946
 1053YOPC   D2A13774   6.952  12.775   6.731 -0.0579 -0.2815  0.3099
 1053YOPC   C3A13775   6.928  12.897   7.060 -0.0058  0.1786 -0.2315
 1053YOPC   C4A13776   6.769  12.938   7.445 -0.1946  0.1065  0.2480
 1053YOPC   C1B13777   7.244  12.494   6.477 -0.0287  0.0563 -0.1964
 1053YOPC   C2B13778   7.476  12.471   6.794  0.5176 -0.1196 -0.1483
 1053YOPC   D3B13779   7.379  12.561   7.223 -0.0733 -0.0619  0.2968
 1053YOPC   C4B13780   7.731  12.451   7.513  0.2002 -0.0098 -0.0099
 1054YOPC   NC313781   5.435  16.479   5.579  0.1564 -0.1186  0.0749
 1054YOPC   PO413782   5.445  16.841   5.842 -0.4591  0.4317  0.0449
 1054YOPC   GL113783   5.218  16.994   6.194  0.2591 -0.0805  0.1130
 1054YOPC   GL213784   4.949  16.781   6.187 -0.0797  0.2681  0.2856
 1054YOPC   C1A13785   5.097  17.056   6.597 -0.0645  0.0222 -0.1323
 1054YOPC   D2A13786   4.991  17.144   7.015 -0.3406 -0.1094 -0.0281
 1054YOPC   C3A13787   5.345  17.265   7.320  0.0735 -0.0564  0.1070
 1054YOPC   C4A13788   5.651  17.396   7.577  0.1084  0.1190 -0.2542
 1054YOPC   C1B13789   4.540  16.793   6.352 -0.0667  0.2146 -0.1251
 1054YOPC   C2B13790   4.372  16.435   6.612  0.2547 -0.1723  0.0137
 1054YOPC   D3B13791   4.276  16.491   7.056  0.1595  0.1994 -0.0208
 1054YOPC   C4B13792   4.152  16.256   7.562  0.3052  0.1328 -0.0236
 1055YOPC   NC313793   4.625   6.865   5.595 -0.1212  0.0147 -0.0604
 1055YOPC   PO413794   4.832   7.273   5.668 -0.1966 -0.0488 -0.1604
 1055YOPC   GL113795   4.863   7.329   6.087 -0.2330 -0.0784 -0.2227
 1055YOPC   GL213796   4.707   7.476   6.317 -0.2253  0.1605  0.3120
 1055YOPC   C1A13797   4.895   6.946   6.253  0.1187  0.5552  0.2357
 1055YOPC   D2A13798   4.570   6.593   6.369  0.0379 -0.6164 -0.1268
 1055YOPC   C3A13799   4.143   6.702   6.495 -0.0055  0.4335 -0.1294
 1055YOPC   C4A13800   3.846   6.592   6.837  0.0817  0.1396  0.3856
 1055YOPC   C1B13801   4.814   7.856   6.619 -0.0669  0.1639  0.1111
 1055YOPC   C2B13802   4.860   8.000   7.016  0.0497 -0.0580 -0.2045
 1055YOPC   D3B13803   4.855   7.743   7.272  0.1668  0.1942 -0.0718
 1055YOPC   C4B13804   5.122   7.302   7.198  0.0922  0.0769  0.0587
 1056YOPC   NC313805   7.239   4.356   5.727 -0.0203  0.1443  0.2826
 1056YOPC   PO413806   7.062   4.765   6.072  0.1322  0.2889  0.0910
 1056YOPC   GL113807   6.982   4.719   6.548  0.3244  0.0396 -0.0568
 1056YOPC   GL213808   7.203   4.479   6.751  0.0095  0.1276  0.0341
 1056YOPC   C1A13809   6.959   4.944   6.963  0.2252 -0.0729  0.2009
 1056YOPC   D2A13810   7.229   4.953   7.382 -0.0078  0.1599  0.1026
 1056YOPC   C3A13811   7.558   5.176   7.498  0.0099  0.0778  0.1156
 1056YOPC   C4A13812   7.922   5.493   7.510  0.0010 -0.2007 -0.1982
 1056YOPC   C1B13813   7.312   4.450   7.131  0.1225  0.0332  0.0747
 1056YOPC   C2B13814   7.310   4.272   7.526 -0.0932  0.0537 -0.1436
 1056YOPC   D3B13815   7.259   4.533   7.822  0.0331  0.1075  0.0983
 1056YOPC   C4B13816   6.992   4.616   8.202 -0.0176 -0.0543 -0.2140
 1057YOPC   NC313817   3.045  11.972   6.281  0.2304 -0.1822  0.1068
 1057YOPC   PO413818   2.745  11.791   6.093 -0.0398 -0.0498 -0.0272
 1057YOPC   GL113819   2.633  11.800   6.509 -0.0055  0.2156  0.1256
 1057YOPC   GL213820   2.527  11.534   6.646 -0.0379  0.2508 -0.1423
 1057YOPC   C1A13821   2.898  12.136   6.879  0.1091  0.0922  0.2199
 1057YOPC   D2A13822   2.808  12.362   7.171 -0.0725 -0.2372 -0.1441
 1057YOPC   C3A13823   2.922  12.266   7.544 -0.1191 -0.1598 -0.3109
 1057YOPC   C4A13824   3.165  12.246   7.846 -0.2529  0.0067 -0.0838
 1057YOPC   C1B13825   2.672  11.098   6.783 -0.0136  0.2911 -0.0740
 1057YOPC   C2B13826   2.735  10.777   7.207 -0.0340 -0.1616  0.1573
 1057YOPC   D3B13827   2.707  10.858   7.727 -0.1281  0.2658 -0.1907
 1057YOPC   C4B13828   2.576  10.489   7.917  0.0447 -0.1200 -0.2513
 1058YOPC   NC313829  17.178  16.730   5.782  0.1203 -0.0040 -0.1380
 1058YOPC   PO413830  17.714  16.660   5.796 -0.2956 -0.2889 -0.1120
 1058YOPC   GL113831  17.620  16.787   6.124  0.0957 -0.0723 -0.0071
 1058YOPC   GL213832  17.800  17.012   6.362 -0.3627  0.1721  0.1393
 1058YOPC   C1A13833  17.365  16.975   6.573 -0.1846 -0.3639 -0.2895
 1058YOPC   D2A13834  17.362  17.115   6.961 -0.1658  0.0167  0.0331
 1058YOPC   C3A13835  17.300  17.506   7.156 -0.1273 -0.2911 -0.0260
 1058YOPC   C4A13836  17.384  17.695   7.517 -0.0810 -0.0308  0.0911
 1058YOPC   C1B13837  17.612  17.406   6.512 -0.0664  0.0238 -0.0288
 1058YOPC   C2B13838  17.167  17.544   6.608  0.0997  0.0030  0.1007
 1058YOPC   D3B13839  16.896  17.465   6.867  0.1527  0.0311 -0.1729
 1058YOPC   C4B13840  16.472  17.459   6.954 -0.2203 -0.2295  0.1055
 1059YOPC   NC313841   4.279   0.718   5.467 -0.0531 -0.0735 -0.2217
 1059YOPC   PO413842   3.878   0.781   5.657  0.2805  0.0600 -0.2834
 1059YOPC   GL113843   3.647   0.785   6.167 -0.2018  0.0628 -0.3971
 1059YOPC   GL213844   3.478   1.096   6.286  0.2162  0.0416 -0.0801
 1059YOPC   C1A13845   3.515   0.769   6.663  0.3764  0.2673  0.1917
 1059YOPC   D2A13846   3.256   0.725   7.090  0.2686  0.0718  0.0886
 1059YOPC   C3A13847   3.349   1.120   7.455 -0.0444 -0.1597  0.0779
 1059YOPC   C4A13848   3.162   1.172   7.758 -0.2806 -0.1063 -0.1175
 1059YOPC   C1B13849   3.144   1.069   6.538  0.0490  0.1080  0.1580
 1059YOPC   C2B13850   3.018   1.143   7.126  0.1923  0.0588  0.4527
 1059YOPC   D3B13851   2.748   1.302   7.402  0.0796 -0.0869  0.0634
 1059YOPC   C4B13852   2.651   1.251   7.763 -0.0906  0.0464  0.1860
 1060YOPC   NC313853   2.581   3.161   5.804  0.1502  0.1022  0.2255
 1060YOPC   PO413854   3.055   3.015   5.965 -0.1773 -0.2246 -0.2183
 1060YOPC   GL113855   3.061   3.341   6.229 -0.2042 -0.5239  0.0159
 1060YOPC   GL213856   2.776   3.422   6.192  0.1704 -0.1035  0.1625
 1060YOPC   C1A13857   3.017   3.393   6.660  0.1164  0.2180  0.0694
 1060YOPC   D2A13858   2.797   3.336   7.070 -0.0652 -0.0716  0.3263
 1060YOPC   C3A13859   2.921   3.481   7.436 -0.0357  0.2418 -0.1167
 1060YOPC   C4A13860   2.830   3.786   7.691 -0.0114  0.4522 -0.2293
 1060YOPC   C1B13861   2.522   3.234   6.623 -0.0626 -0.0343 -0.2080
 1060YOPC   C2B13862   2.595   2.881   7.035 -0.1388  0.0848  0.1400
 1060YOPC   D3B13863   2.542   3.012   7.468 -0.0078  0.0064  0.0567
 1060YOPC   C4B13864   2.489   2.826   7.807  0.0876 -0.0368 -0.2627
 1061YOPC   NC313865   9.061   9.159   5.187  0.1309  0.3301  0.0394
 1061YOPC   PO413866   9.416   9.062   5.360  0.0305  0.0347 -0.0777
 1061YOPC   GL113867   9.330   8.941   5.658  0.0226 -0.3606 -0.1986
 1061YOPC   GL213868   9.309   8.553   5.729 -0.0004  0.2942 -0.1354
 1061YOPC   C1A13869   9.068   8.732   6.105  0.2544 -0.0557 -0.1150
 1061YOPC   D2A13870   8.885   8.913   6.485 -0.5577 -0.3031 -0.0158
 1061YOPC   C3A13871   9.036   9.318   6.771  0.1281  0.5628 -0.1441
 1061YOPC   C4A13872   9.376   9.496   6.766  0.0898 -0.1213 -0.0404
 1061YOPC   C1B13873   9.523   8.573   6.008  0.0347  0.3523  0.1402
 1061YOPC   C2B13874   9.454   8.650   6.485  0.0056 -0.1410  0.3460
 1061YOPC   D3B13875   9.442   8.968   6.727  0.2931 -0.3040  0.4440
 1061YOPC   C4B13876   9.346   9.126   7.106 -0.0053  0.0171 -0.1169
 1062YOPC   NC313877  11.438  14.990   5.089 -0.2866 -0.0834 -0.1798
 1062YOPC   PO413878  11.078  14.952   5.144  0.2773 -0.1482  0.1625
 1062YOPC   GL113879  11.145  14.886   5.542  0.0875  0.1422  0.3053
 1062YOPC   GL213880  11.042  15.003   5.668  0.0630  0.1412 -0.3258
 1062YOPC   C1A13881  11.384  14.756   6.043  0.1469  0.2296  0.0438
 1062YOPC   D2A13882  11.662  14.614   6.325 -0.0690  0.2896  0.1403
 1062YOPC   C3A13883  11.577  14.738   6.727  0.0820 -0.3718 -0.4128
 1062YOPC   C4A13884  11.507  14.780   7.124 -0.0597 -0.0682  0.1594
 1062YOPC   C1B13885  10.929  14.995   6.140 -0.0018  0.0960  0.3071
 1062YOPC   C2B13886  10.668  15.162   6.362 -0.2474  0.4112 -0.1193
 1062YOPC   D3B13887  10.534  15.198   6.739 -0.2034 -0.0125 -0.3190
 1062YOPC   C4B13888  10.334  15.137   7.122  0.1200  0.1560  0.1261
 1063YOPC   NC313889  10.981   5.942   5.377  0.2903  0.2026  0.1881
 1063YOPC   PO413890  10.799   6.024   5.782  0.0245  0.1202 -0.1784
 1063YOPC   GL113891  10.982   5.800   6.112 -0.1907  0.0694  0.4339
 1063YOPC   GL213892  11.194   6.026   6.310 -0.0621  0.2249 -0.0965
 1063YOPC   C1A13893  10.850   5.719   6.483 -0.0033  0.1588  0.0045
 1063YOPC   D2A13894  10.728   5.793   6.868  0.1854 -0.1872  0.0609
 1063YOPC   C3A13895  10.915   5.644   7.287 -0.0016  0.2287  0.0042
 1063YOPC   C4A13896  11.073   5.640   7.763  0.1489 -0.0878 -0.1068
 1063YOPC   C1B13897  11.303   5.927   6.746  0.1223 -0.0570 -0.2133
 1063YOPC   C2B13898  11.264   6.001   7.218 -0.1553  0.3026  0.0162
 1063YOPC   D3B13899  11.455   6.366   7.335  0.2114 -0.0356 -0.2305
 1063YOPC   C4B13900  11.852   6.512   7.119 -0.0110 -0.2129  0.1534
 1064YOPC   NC313901  18.386  16.586   5.455 -0.1832  0.0761 -0.0918
 1064YOPC   PO413902  18.359  16.839   5.810  0.0444  0.2765 -0.2308
 1064YOPC   GL113903  18.225  16.760   6.151 -0.0488 -0.1342 -0.1970
 1064YOPC   GL213904  18.345  17.035   6.260 -0.1679 -0.0946 -0.0135
 1064YOPC   C1A13905  18.087  16.658   6.579 -0.2051 -0.0086 -0.0675
 1064YOPC   D2A13906  17.777  16.929   6.849 -0.0781 -0.0442  0.1987
 1064YOPC   C3A13907  17.761  17.010   7.301  0.0489 -0.0215  0.2252
 1064YOPC   C4A13908  17.716  16.753   7.654  0.0193  0.0655  0.1512
 1064YOPC   C1B13909  18.468  16.944   6.599 -0.0143 -0.0258  0.2203
 1064YOPC   C2B13910  18.296  17.028   7.025  0.1055 -0.0285 -0.1415
 1064YOPC   D3B13911  18.268  17.225   7.410 -0.0775  0.0108 -0.2189
 1064YOPC   C4B13912  18.553  17.171   7.656  0.1379  0.1383  0.0235
 1065YOPC   NC313913   4.465   5.208   5.310  0.1318  0.1039 -0.4003
 1065YOPC   PO413914   4.302   4.953   5.682  0.1996 -0.0035 -0.4384
 1065YOPC   GL113915   4.333   4.971   6.160 -0.1077 -0.0020  0.0572
 1065YOPC   GL213916   4.118   4.612   6.308  0.0303  0.0891 -0.4878
 1065YOPC   C1A13917   4.639   4.836   6.499 -0.0751  0.2182  0.3972
 1065YOPC   D2A13918   5.016   4.569   6.540  0.0972  0.2492 -0.0006
 1065YOPC   C3A13919   5.100   4.115   6.602 -0.1276 -0.1774 -0.2033
 1065YOPC   C4A13920   5.199   3.812   6.331  0.4791  0.2350 -0.0424
 1065YOPC   C1B13921   4.094   4.833   6.663 -0.2048 -0.1280  0.2283
 1065YOPC   C2B13922   3.972   5.214   6.875 -0.2597  0.0109 -0.1141
 1065YOPC   D3B13923   4.038   5.306   7.248  0.1195 -0.1756  0.0715
 1065YOPC   C4B13924   3.900   5.575   7.695  0.0795  0.1204  0.2558
 1066YOPC   NC313925   3.180   0.228   5.595  0.0606 -0.2436 -0.0428
 1066YOPC   PO413926   3.341   0.588   5.793 -0.3029 -0.2006  0.1589
 1066YOPC   GL113927   3.241   0.494   6.228 -0.2603 -0.1096 -0.0806
 1066YOPC   GL213928   3.145   0.201   6.248 -0.2648  0.1619 -0.1778
 1066YOPC   C1A13929   2.883   0.612   6.427 -0.0842 -0.2558  0.0959
 1066YOPC   D2A13930   2.481   0.531   6.610 -0.0744  0.2770  0.5280
 1066YOPC   C3A13931   2.164   0.910   6.618  0.1664  0.0381  0.0790
 1066YOPC   C4A13932   2.026   1.104   6.923  0.2957  0.0565  0.0727
 1066YOPC   C1B13933   3.238   0.327   6.705 -0.1415  0.2093  0.0966
 1066YOPC   C2B13934   3.442   0.285   7.170 -0.0552 -0.2382  0.0464
 1066YOPC   D3B13935   3.315   0.587   7.589 -0.0531 -0.0198 -0.1586
 1066YOPC   C4B13936   3.446   0.586   8.106 -0.1388 -0.0626  0.1418
 1067YOPC   NC313937   0.146  12.901   5.862 -0.0289  0.0481 -0.0339
 1067YOPC   PO413938   0.248  12.695   6.242 -0.2523 -0.0572 -0.2651
 1067YOPC   GL113939   0.277  12.587   6.707  0.0216 -0.0515 -0.0358
 1067YOPC   GL213940   0.083  12.701   6.862 -0.0848 -0.0747  0.0023
 1067YOPC   C1A13941   0.536  12.547   7.035  0.0726 -0.0155  0.0316
 1067YOPC   D2A13942   0.555  12.514   7.439 -0.0198 -0.1116 -0.1313
 1067YOPC   C3A13943   0.925  12.715   7.654  0.2664  0.1465  0.1391
 1067YOPC   C4A13944   1.033  12.989   7.944  0.0711 -0.0625 -0.0414
 1067YOPC   C1B13945   0.137  12.650   7.309 -0.1775  0.1091 -0.2019
 1067YOPC   C2B13946  -0.112  12.826   7.550  0.4384 -0.3235  0.1987
 1067YOPC   D3B13947  -0.521  12.577   7.745  0.1949  0.1141 -0.0943
 1067YOPC   C4B13948  -0.818  12.492   8.035 -0.0321 -0.1577 -0.0671
 1068YOPC   NC313949   2.137  14.284   5.502 -0.0565  0.0802 -0.0256
 1068YOPC   PO413950   1.891  13.991   5.770 -0.0036  0.2259 -0.1683
 1068YOPC   GL113951   1.677  13.657   5.957 -0.3440 -0.0884 -0.0296
 1068YOPC   GL213952   1.392  13.547   6.051 -0.1395  0.3559 -0.0130
 1068YOPC   C1A13953   1.761  13.551   6.488 -0.4165 -0.1727 -0.1125
 1068YOPC   D2A13954   1.826  13.577   6.971 -0.1523  0.2647  0.1799
 1068YOPC   C3A13955   1.616  13.546   7.402 -0.1989  0.2017  0.0469
 1068YOPC   C4A13956   1.632  13.541   7.889  0.0698 -0.3184  0.0812
 1068YOPC   C1B13957   1.216  13.717   6.414  0.3146  0.0641  0.2267
 1068YOPC   C2B13958   1.344  13.656   6.858 -0.2268 -0.1505  0.0408
 1068YOPC   D3B13959   1.464  13.231   6.965 -0.2780  0.1818 -0.2510
 1068YOPC   C4B13960   1.425  12.791   7.258  0.4145  0.2203  0.1227
 1069YOPC   NC313961  12.007  15.190   5.629  0.4401  0.1158  0.0829
 1069YOPC   PO413962  12.162  14.799   5.498  0.1570  0.3335 -0.1786
 1069YOPC   GL113963  12.112  14.628   5.882  0.3488 -0.2535 -0.0145
 1069YOPC   GL213964  11.948  14.876   6.010  0.2398  0.2174  0.0503
 1069YOPC   C1A13965  12.278  14.454   6.189  0.0877 -0.1710 -0.1763
 1069YOPC   D2A13966  12.243  14.200   6.585 -0.4576 -0.0728 -0.0478
 1069YOPC   C3A13967  11.910  14.408   6.739  0.0358  0.1870 -0.0276
 1069YOPC   C4A13968  11.617  14.218   7.050  0.0020 -0.0619 -0.2858
 1069YOPC   C1B13969  12.320  14.956   6.198  0.1695  0.1496  0.1691
 1069YOPC   C2B13970  12.328  14.726   6.634  0.1241  0.1835 -0.0190
 1069YOPC   D3B13971  12.625  14.523   6.769 -0.1657  0.0943 -0.2646
 1069YOPC   C4B13972  13.022  14.385   6.962  0.0003 -0.0619 -0.2605
 1070YOPC   NC313973  18.137  10.243   6.103 -0.0380 -0.1769 -0.2034
 1070YOPC   PO413974  18.505  10.294   6.482  0.0776 -0.0663  0.1094
 1070YOPC   GL113975  18.394  10.241   6.928 -0.2053 -0.1287  0.0907
 1070YOPC   GL213976  18.309   9.939   7.098  0.3646 -0.0365  0.4356
 1070YOPC   C1A13977  18.370  10.326   7.413 -0.0679 -0.0325  0.0942
 1070YOPC   D2A13978  18.387   9.988   7.711  0.2475  0.0753  0.7035
 1070YOPC   C3A13979  18.637  10.094   8.070 -0.1921 -0.3048  0.1185
 1070YOPC   C4A13980  18.811  10.140   8.494 -0.1285  0.1573 -0.0295
 1070YOPC   C1B13981  18.047  10.004   7.338  0.1317  0.0586  0.1134
 1070YOPC   C2B13982  17.871  10.459   7.378 -0.2261  0.0636  0.4983
 1070YOPC   D3B13983  17.870  10.665   7.774  0.0060 -0.3786 -0.2349
 1070YOPC   C4B13984  17.984  10.588   8.210  0.0296 -0.1998 -0.1742
 1071YOPC   NC313985   6.524   1.740   5.374 -0.5074  0.0826  0.2756
 1071YOPC   PO413986   6.849   1.856   5.650  0.0831  0.1877 -0.0332
 1071YOPC   GL113987   7.004   1.974   6.074 -0.3132  0.0016  0.0820
 1071YOPC   GL213988   7.245   2.103   6.233  0.1765  0.2622  0.1982
 1071YOPC   C1A13989   6.661   1.979   6.391 -0.4724 -0.0756 -0.1932
 1071YOPC   D2A13990   6.366   1.689   6.598  0.1232 -0.1864 -0.0198
 1071YOPC   C3A13991   5.991   1.495   6.553 -0.1727 -0.0034  0.2005
 1071YOPC   C4A13992   5.780   1.082   6.425  0.1174 -0.1407  0.2729
 1071YOPC   C1B13993   7.144   2.060   6.739  0.2666 -0.2809  0.1236
 1071YOPC   C2B13994   7.468   2.103   7.026 -0.0218  0.2178  0.3730
 1071YOPC   D3B13995   7.382   1.916   7.425 -0.0861  0.2128  0.2960
 1071YOPC   C4B13996   7.476   1.762   7.817 -0.1698  0.1466 -0.1055
 1072YOPC   NC313997  14.048  10.202   5.471  0.1045  0.3980 -0.1642
 1072YOPC   PO413998  13.748  10.267   5.679  0.1305 -0.0257 -0.0501
 1072YOPC   GL113999  13.755  10.016   5.886 -0.0127  0.1998 -0.0933
 1072YOPC   GL214000  13.601   9.774   5.980 -0.2510  0.1725 -0.0036
 1072YOPC   C1A14001  14.113   9.893   6.198  0.4991 -0.0615 -0.0208
 1072YOPC   D2A14002  14.227   9.707   6.577  0.2066 -0.0152  0.0062
 1072YOPC   C3A14003  14.527   9.415   6.680 -0.1057  0.2091  0.2814
 1072YOPC   C4A14004  14.693   8.988   6.596  0.0550 -0.0469  0.2672
 1072YOPC   C1B14005  13.640   9.994   6.388 -0.1472 -0.1548  0.3234
 1072YOPC   C2B14006  13.842  10.090   6.709  0.2175 -0.0819 -0.2088
 1072YOPC   D3B14007  13.793  10.098   7.139  0.2835 -0.2801  0.2177
 1072YOPC   C4B14008  13.540  10.062   7.525 -0.3680 -0.0356  0.0204
 1073YOPC   NC314009  12.133   8.100   5.723 -0.2360  0.3427 -0.0942
 1073YOPC   PO414010  11.700   8.203   5.482 -0.0474  0.1093 -0.0254
 1073YOPC   GL114011  11.670   8.287   5.820 -0.0117  0.2781 -0.2541
 1073YOPC   GL214012  11.895   8.318   6.082 -0.0628  0.2170 -0.0357
 1073YOPC   C1A14013  11.457   8.553   6.037 -0.0774 -0.2196  0.0595
 1073YOPC   D2A14014  11.353   9.025   6.097  0.1225 -0.1328  0.0161
 1073YOPC   C3A14015  11.408   9.270   6.502  0.0231 -0.1467  0.0489
 1073YOPC   C4A14016  11.535   9.311   6.882  0.1315 -0.2947  0.0571
 1073YOPC   C1B14017  12.312   8.409   6.319 -0.0070 -0.1582  0.1966
 1073YOPC   C2B14018  12.638   8.368   6.634 -0.1936  0.1508  0.3203
 1073YOPC   D3B14019  12.518   8.562   7.117  0.3214  0.0837 -0.0153
 1073YOPC   C4B14020  12.226   8.292   7.431 -0.0865  0.2848 -0.2145
 1074YOPC   NC314021   1.063   1.804   5.269  0.0770  0.1210  0.1436
 1074YOPC   PO414022   0.816   2.019   5.713  0.2448  0.1182 -0.0485
 1074YOPC   GL114023   0.791   2.284   6.155  0.0817  0.0274  0.0209
 1074YOPC   GL214024   0.551   2.105   6.458 -0.1285  0.1517  0.3059
 1074YOPC   C1A14025   0.868   2.509   6.536  0.0225  0.2271  0.2142
 1074YOPC   D2A14026   0.881   2.841   6.929  0.1009 -0.1281 -0.0662
 1074YOPC   C3A14027   0.919   2.823   7.331 -0.0011 -0.2001 -0.0833
 1074YOPC   C4A14028   0.604   2.721   7.721 -0.2575 -0.0784  0.1317
 1074YOPC   C1B14029   0.378   2.013   6.886  0.0445  0.0788 -0.3190
 1074YOPC   C2B14030   0.585   1.868   7.218  0.1825 -0.2072  0.1317
 1074YOPC   D3B14031   0.340   1.920   7.611 -0.2101  0.2385 -0.1701
 1074YOPC   C4B14032   0.199   1.921   8.051  0.1697  0.2336 -0.1451
 1075YOPC   NC314033   0.458  13.705   5.659 -0.0040  0.2236  0.1787
 1075YOPC   PO414034   0.225  13.381   5.998  0.1791  0.1467  0.2733
 1075YOPC   GL114035   0.346  13.336   6.441 -0.1017  0.1792 -0.0102
 1075YOPC   GL214036   0.412  13.564   6.768  0.0056  0.1482  0.1855
 1075YOPC   C1A14037   0.523  13.066   6.791 -0.1300  0.0180 -0.2045
 1075YOPC   D2A14038   0.572  13.017   7.236  0.4305 -0.1360  0.1909
 1075YOPC   C3A14039   0.729  13.160   7.540  0.2376 -0.0430 -0.2660
 1075YOPC   C4A14040   0.615  13.296   7.912 -0.1136 -0.3055 -0.0302
 1075YOPC   C1B14041   0.836  13.428   6.594  0.0260  0.3508 -0.1409
 1075YOPC   C2B14042   1.194  13.246   6.559 -0.0592 -0.0979  0.0091
 1075YOPC   D3B14043   1.390  12.810   6.560 -0.0619  0.1902  0.1627
 1075YOPC   C4B14044   1.298  12.523   6.836 -0.0192 -0.0085 -0.2166
 1076YOPC   NC314045   3.550   0.067   5.830 -0.0691 -0.1149  0.0484
 1076YOPC   PO414046   4.078   0.274   5.692  0.1862 -0.1360  0.2253
 1076YOPC   GL114047   3.993   0.342   6.171  0.2218 -0.0503 -0.2366
 1076YOPC   GL214048   3.676   0.319   6.306  0.1277 -0.0193 -0.3651
 1076YOPC   C1A14049   4.333   0.399   6.447 -0.1141 -0.1851  0.0282
 1076YOPC   D2A14050   4.516   0.374   6.804 -0.0232 -0.0895 -0.2507
 1076YOPC   C3A14051   4.617   0.483   7.270  0.1332  0.0401 -0.1972
 1076YOPC   C4A14052   4.413   0.551   7.748  0.0231 -0.0461  0.4361
 1076YOPC   C1B14053   3.888   0.369   6.670 -0.0680 -0.3642  0.0552
 1076YOPC   C2B14054   4.148   0.298   7.088  0.0746 -0.1104 -0.1915
 1076YOPC   D3B14055   3.932   0.347   7.515 -0.1175 -0.3441  0.0276
 1076YOPC   C4B14056   3.908   0.299   7.882  0.2504 -0.0794 -0.1500
 1077YOPC   NC314057   6.820  17.828   4.668 -0.0415  0.2304 -0.0140
 1077YOPC   PO414058   6.949  17.799   5.063  0.1361  0.2075 -0.1104
 1077YOPC   GL114059   7.074  17.587   5.424  0.0506  0.0031 -0.1083
 1077YOPC   GL214060   7.070  17.755   5.600 -0.0784 -0.1656  0.0006
 1077YOPC   C1A14061   6.944  17.259   5.847 -0.2624  0.0406  0.0960
 1077YOPC   D2A14062   7.017  17.240   6.244  0.0246 -0.2850  0.0803
 1077YOPC   C3A14063   7.132  17.188   6.633 -0.2510  0.1529  0.0879
 1077YOPC   C4A14064   7.182  16.856   6.983  0.1283  0.3084 -0.0317
 1077YOPC   C1B14065   7.080  17.720   6.098  0.1561 -0.2720  0.1002
 1077YOPC   C2B14066   7.163  17.795   6.545 -0.1804 -0.0811 -0.0102
 1077YOPC   D3B14067   7.354  17.652   6.754 -0.1258  0.2739 -0.0234
 1077YOPC   C4B14068   7.357  17.397   7.174  0.0553  0.0976 -0.1216
 1078YOPC   NC314069  18.074   6.475   5.191  0.4135  0.1448 -0.0347
 1078YOPC   PO414070  17.824   6.482   5.523  0.0330 -0.2582  0.0746
 1078YOPC   GL114071  17.964   6.284   5.784 -0.0124 -0.6315  0.0324
 1078YOPC   GL214072  17.731   6.149   5.978  0.1060 -0.2254 -0.0150
 1078YOPC   C1A14073  18.239   6.070   6.044  0.4164 -0.0616 -0.0464
 1078YOPC   D2A14074  18.635   6.047   6.382 -0.0457  0.1190  0.0773
 1078YOPC   C3A14075  18.554   5.884   6.687  0.5114 -0.0291 -0.0057
 1078YOPC   C4A14076  18.541   5.930   7.137  0.1380  0.1298  0.2356
 1078YOPC   C1B14077  17.905   6.074   6.451 -0.2658  0.1314 -0.0269
 1078YOPC   C2B14078  18.110   6.023   6.805  0.1244  0.1273  0.0508
 1078YOPC   D3B14079  18.173   6.219   7.105 -0.3226  0.1537  0.0092
 1078YOPC   C4B14080  18.382   6.245   7.531  0.0399  0.1559  0.0806
 1079YOPC   NC314081   8.201   0.841   4.945  0.1312  0.0000 -0.2922
 1079YOPC   PO414082   8.376   0.575   5.246 -0.0306  0.0777 -0.1345
 1079YOPC   GL114083   8.473   0.393   5.500  0.2162  0.0322 -0.1416
 1079YOPC   GL214084   8.288   0.436   5.789 -0.1528 -0.0642  0.0160
 1079YOPC   C1A14085   8.819   0.209   5.836 -0.1670 -0.3468  0.0265
 1079YOPC   D2A14086   8.966   0.119   6.298  0.0697  0.0358 -0.0916
 1079YOPC   C3A14087   8.806  -0.216   6.555 -0.0720 -0.0117  0.1270
 1079YOPC   C4A14088   8.982  -0.337   6.930 -0.1415  0.2701 -0.0502
 1079YOPC   C1B14089   8.056   0.357   6.064  0.0013 -0.0177 -0.3021
 1079YOPC   C2B14090   7.914   0.139   6.396  0.1488 -0.0831 -0.0617
 1079YOPC   D3B14091   7.961  -0.248   6.346  0.1066 -0.1755 -0.4761
 1079YOPC   C4B14092   8.358  -0.490   6.409  0.2283  0.1322 -0.1598
 1080YOPC   NC314093  11.402  10.829   5.563 -0.1270  0.2646 -0.2106
 1080YOPC   PO414094  11.608  11.118   5.766  0.5387 -0.0349  0.3321
 1080YOPC   GL114095  11.580  11.429   6.095 -0.1612  0.2300 -0.2938
 1080YOPC   GL214096  11.894  11.454   6.208 -0.1067 -0.1814  0.0123
 1080YOPC   C1A14097  11.365  11.399   6.433  0.0250  0.1849 -0.1009
 1080YOPC   D2A14098  11.001  11.261   6.825 -0.0269  0.1707  0.1955
 1080YOPC   C3A14099  11.084  11.409   7.192  0.1428 -0.2139 -0.2628
 1080YOPC   C4A14100  11.037  11.436   7.642  0.0169  0.1272  0.1020
 1080YOPC   C1B14101  11.852  11.245   6.537  0.1578  0.0961  0.0042
 1080YOPC   C2B14102  11.984  11.107   6.950 -0.0941 -0.0534 -0.2373
 1080YOPC   D3B14103  12.374  11.033   7.098 -0.1680 -0.0175 -0.0171
 1080YOPC   C4B14104  12.642  11.208   6.831  0.2112  0.3454 -0.1650
 1081YOPC   NC314105  17.731  12.651   6.288 -0.1174  0.1157  0.0352
 1081YOPC   PO414106  18.120  12.606   6.591 -0.1265 -0.4200  0.2457
 1081YOPC   GL114107  18.158  12.869   6.978  0.0439  0.2140 -0.0945
 1081YOPC   GL214108  18.003  13.220   6.923  0.2677 -0.4781 -0.0191
 1081YOPC   C1A14109  17.952  12.876   7.341 -0.2688  0.2272 -0.0874
 1081YOPC   D2A14110  17.730  13.073   7.744  0.0728 -0.1746 -0.2741
 1081YOPC   C3A14111  17.921  13.058   8.140 -0.0997 -0.1922 -0.1995
 1081YOPC   C4A14112  18.156  13.040   8.453  0.0020 -0.2092  0.0210
 1081YOPC   C1B14113  18.061  13.352   7.341 -0.0395  0.0761 -0.0837
 1081YOPC   C2B14114  18.258  13.185   7.793 -0.0188 -0.0375  0.1702
 1081YOPC   D3B14115  18.431  12.848   8.076 -0.1686 -0.1802  0.0351
 1081YOPC   C4B14116  18.759  12.547   8.183 -0.2434 -0.2841 -0.1537
 1082YOPC   NC314117  17.134  18.369   5.775 -0.2660 -0.1453  0.1133
 1082YOPC   PO414118  16.962  18.150   6.121 -0.2153  0.0413 -0.0104
 1082YOPC   GL114119  16.730  18.300   6.490 -0.1824  0.0967 -0.0350
 1082YOPC   GL214120  16.460  18.547   6.485 -0.1274  0.3528 -0.1234
 1082YOPC   C1A14121  16.631  18.091   6.895 -0.0571  0.0595  0.0387
 1082YOPC   D2A14122  16.579  17.951   7.315  0.1114 -0.0998 -0.1951
 1082YOPC   C3A14123  16.773  17.576   7.452 -0.0800 -0.0663  0.0747
 1082YOPC   C4A14124  16.759  17.199   7.736 -0.0376 -0.0679  0.0234
 1082YOPC   C1B14125  16.522  18.721   6.841 -0.0089 -0.0920  0.0818
 1082YOPC   C2B14126  16.413  18.969   7.094  0.1776 -0.0928  0.0174
 1082YOPC   D3B14127  16.476  18.917   7.531  0.2697 -0.1592 -0.1391
 1082YOPC   C4B14128  16.320  18.783   8.005 -0.2661 -0.1393 -0.2841
 1083YOPC   NC314129  16.228   0.830   6.094 -0.1623  0.0622  0.0779
 1083YOPC   PO414130  16.331   0.370   6.086  0.1125  0.1939  0.3449
 1083YOPC   GL114131  16.220   0.586   6.502 -0.3492 -0.0621 -0.1915
 1083YOPC   GL214132  16.031   0.309   6.604 -0.0832 -0.1154 -0.0558
 1083YOPC   C1A14133  16.325   0.851   6.828  0.0517 -0.2044 -0.1390
 1083YOPC   D2A14134  16.655   1.122   6.762  0.0256 -0.3127 -0.0338
 1083YOPC   C3A14135  16.845   1.186   7.020 -0.1408  0.0929  0.0133
 1083YOPC   C4A14136  16.916   1.183   7.406 -0.0832  0.2628  0.0660
 1083YOPC   C1B14137  15.888   0.253   7.002 -0.0116 -0.0313 -0.5300
 1083YOPC   C2B14138  15.833   0.305   7.483  0.0799 -0.1805 -0.0409
 1083YOPC   D3B14139  15.958   0.581   7.852 -0.0094  0.1413 -0.0878
 1083YOPC   C4B14140  16.259   0.805   8.080  0.0174  0.0788 -0.0749
 1084YOPC   NC314141   7.577  10.597   5.744 -0.1938  0.2487 -0.0552
 1084YOPC   PO414142   7.143  10.594   5.702  0.1704 -0.0010 -0.3435
 1084YOPC   GL114143   7.157  10.564   6.118 -0.2323  0.0661 -0.2247
 1084YOPC   GL214144   7.355  10.656   6.310  0.3682 -0.2583  0.3014
 1084YOPC   C1A14145   6.904  10.742   6.483  0.3465  0.3380 -0.1073
 1084YOPC   D2A14146   6.730  10.574   6.898 -0.1502  0.2778  0.0813
 1084YOPC   C3A14147   6.748  10.702   7.294  0.3172  0.1405  0.4772
 1084YOPC   C4A14148   6.743  10.547   7.627  0.3314 -0.1765  0.0378
 1084YOPC   C1B14149   7.657  10.626   6.715  0.1241 -0.0945  0.2126
 1084YOPC   C2B14150   7.713  10.717   7.197 -0.0383  0.0369 -0.0381
 1084YOPC   D3B14151   7.670  10.423   7.498 -0.1215 -0.0857  0.0705
 1084YOPC   C4B14152   7.440  10.600   7.970 -0.2720  0.2741 -0.0968
 1085YOPC   NC314153   3.848   3.086   5.650  0.0368  0.0544  0.1550
 1085YOPC   PO414154   3.915   2.646   5.676 -0.3515 -0.1557 -0.1864
 1085YOPC   GL114155   4.148   2.855   6.034 -0.1866 -0.2405  0.1758
 1085YOPC   GL214156   4.040   3.107   6.211 -0.2173 -0.3039  0.1182
 1085YOPC   C1A14157   4.412   2.764   6.336 -0.1850  0.1378  0.1281
 1085YOPC   D2A14158   4.693   2.832   6.641 -0.2371  0.1677 -0.0554
 1085YOPC   C3A14159   4.666   2.771   7.060  0.0399  0.2328 -0.3348
 1085YOPC   C4A14160   4.718   2.691   7.488 -0.0264 -0.2306 -0.1759
 1085YOPC   C1B14161   4.534   3.309   6.230 -0.0285 -0.1102 -0.0018
 1085YOPC   C2B14162   4.920   3.471   6.053  0.0600  0.1038  0.0098
 1085YOPC   D3B14163   5.306   3.385   6.129 -0.0134 -0.2541 -0.3830
 1085YOPC   C4B14164   5.590   3.545   6.502  0.0709 -0.2405  0.2956
 1086YOPC   NC314165  14.693   7.825   5.606  0.4423 -0.1291  0.2027
 1086YOPC   PO414166  15.150   7.790   5.911 -0.1569 -0.1033  0.0294
 1086YOPC   GL114167  14.936   7.686   6.293  0.4724  0.1087  0.0500
 1086YOPC   GL214168  15.130   7.483   6.528  0.0468  0.0373 -0.2550
 1086YOPC   C1A14169  14.689   7.662   6.726  0.2911 -0.1147 -0.1822
 1086YOPC   D2A14170  14.481   7.730   7.040  0.3281  0.0440  0.0440
 1086YOPC   C3A14171  14.602   7.748   7.412 -0.0295  0.0855  0.0623
 1086YOPC   C4A14172  14.831   7.663   7.712 -0.0157 -0.1887 -0.3175
 1086YOPC   C1B14173  15.021   7.420   6.968  0.1110  0.0146 -0.0311
 1086YOPC   C2B14174  14.948   7.232   7.416  0.1401  0.0023 -0.0681
 1086YOPC   D3B14175  15.142   6.997   7.874 -0.2669  0.0560 -0.1414
 1086YOPC   C4B14176  15.501   6.911   8.171  0.1646 -0.0504  0.1417
 1087YOPC   NC314177   6.486   2.702   5.783  0.2820 -0.1814  0.2250
 1087YOPC   PO414178   6.717   2.985   6.004 -0.0857 -0.3804  0.1528
 1087YOPC   GL114179   6.788   3.131   6.324  0.0271  0.0023 -0.3245
 1087YOPC   GL214180   6.684   2.950   6.589  0.4677  0.0996 -0.3337
 1087YOPC   C1A14181   6.853   3.425   6.618  0.0023  0.0314 -0.2017
 1087YOPC   D2A14182   6.851   3.560   7.117 -0.0536  0.2227  0.0547
 1087YOPC   C3A14183   6.540   3.509   7.408  0.2720 -0.3625  0.3025
 1087YOPC   C4A14184   6.308   3.253   7.754  0.0714 -0.1110 -0.2940
 1087YOPC   C1B14185   6.685   3.039   6.971 -0.0644  0.1153  0.2774
 1087YOPC   C2B14186   6.737   2.996   7.449 -0.1228  0.3510  0.0224
 1087YOPC   D3B14187   6.488   2.657   7.696  0.0455  0.1114  0.0224
 1087YOPC   C4B14188   6.298   2.777   8.118 -0.1120 -0.1182  0.1430
 1088YOPC   NC314189  12.071  13.374   5.291 -0.0852 -0.1147 -0.2440
 1088YOPC   PO414190  12.051  13.900   5.473  0.2337  0.0831 -0.1469
 1088YOPC   GL114191  12.043  13.919   5.844  0.2153  0.0181  0.1238
 1088YOPC   GL214192  11.883  14.170   6.009  0.1594  0.1508  0.1684
 1088YOPC   C1A14193  12.350  13.782   6.092 -0.0058 -0.0026 -0.0574
 1088YOPC   D2A14194  12.475  13.691   6.428 -0.1568  0.1580  0.0257
 1088YOPC   C3A14195  12.913  13.706   6.464 -0.3110 -0.3337 -0.1595
 1088YOPC   C4A14196  13.210  14.006   6.632  0.2199 -0.0836  0.3567
 1088YOPC   C1B14197  11.799  13.997   6.436  0.2410 -0.1124  0.0091
 1088YOPC   C2B14198  11.505  13.837   6.670  0.1122 -0.2549 -0.2119
 1088YOPC   D3B14199  11.496  13.421   6.782 -0.0556 -0.1294  0.3294
 1088YOPC   C4B14200  11.166  13.174   6.982 -0.1427  0.0053 -0.1362
 1089YOPC   NC314201  16.843   2.991   5.843 -0.2376  0.2155  0.0178
 1089YOPC   PO414202  17.301   3.176   5.908 -0.0490  0.3024 -0.1056
 1089YOPC   GL114203  17.191   2.978   6.354  0.0247  0.1361  0.3652
 1089YOPC   GL214204  16.996   2.704   6.365  0.0366  0.2449 -0.1889
 1089YOPC   C1A14205  17.172   3.048   6.763  0.0458  0.4066  0.1236
 1089YOPC   D2A14206  17.401   3.161   7.039  0.1273  0.3889  0.2192
 1089YOPC   C3A14207  17.453   3.060   7.412  0.1408 -0.2912  0.1453
 1089YOPC   C4A14208  17.608   3.040   7.887  0.0677 -0.2215 -0.0999
 1089YOPC   C1B14209  16.854   2.636   6.770  0.0552 -0.2912 -0.1961
 1089YOPC   C2B14210  16.739   2.692   7.126  0.1793 -0.1257 -0.2252
 1089YOPC   D3B14211  16.913   3.017   7.141 -0.0902  0.2936 -0.1320
 1089YOPC   C4B14212  17.019   3.367   7.281 -0.5750 -0.2579 -0.2053
 1090YOPC   NC314213   6.677  15.573   5.739  0.1825  0.1550 -0.0595
 1090YOPC   PO414214   7.016  15.667   5.411 -0.0596  0.0886 -0.0080
 1090YOPC   GL114215   7.086  15.801   5.893 -0.3135 -0.1312  0.0122
 1090YOPC   GL214216   7.183  16.190   5.993 -0.0724 -0.3644  0.2627
 1090YOPC   C1A14217   6.991  15.613   6.271 -0.1592  0.0533 -0.1608
 1090YOPC   D2A14218   6.741  15.705   6.630  0.1091 -0.1381 -0.0634
 1090YOPC   C3A14219   6.364  15.869   6.546 -0.3143  0.0295  0.1907
 1090YOPC   C4A14220   6.080  15.865   6.340 -0.0888  0.2027  0.2733
 1090YOPC   C1B14221   7.241  16.050   6.381  0.2373 -0.1516  0.1224
 1090YOPC   C2B14222   7.176  15.894   6.826 -0.1837 -0.1208  0.0877
 1090YOPC   D3B14223   7.196  16.271   7.229  0.0191  0.1481  0.3453
 1090YOPC   C4B14224   7.284  16.579   7.394 -0.0289 -0.0405 -0.2282
 1091YOPC   NC314225   2.515  17.310   5.564  0.0114  0.0315  0.1710
 1091YOPC   PO414226   2.385  17.246   5.979  0.0496 -0.1317  0.0754
 1091YOPC   GL114227   2.705  17.185   6.308  0.0960  0.1527 -0.0107
 1091YOPC   GL214228   2.460  16.804   6.252  0.0673 -0.5724 -0.1678
 1091YOPC   C1A14229   2.722  17.122   6.710 -0.2599  0.1683 -0.1679
 1091YOPC   D2A14230   2.861  17.309   7.140 -0.0899  0.1517 -0.2683
 1091YOPC   C3A14231   2.909  17.063   7.513 -0.0655 -0.1141 -0.0349
 1091YOPC   C4A14232   3.351  16.949   7.672  0.2404 -0.0879 -0.1775
 1091YOPC   C1B14233   2.464  16.685   6.706 -0.2266 -0.0369 -0.0090
 1091YOPC   C2B14234   2.359  16.522   7.088  0.2355 -0.1074  0.0400
 1091YOPC   D3B14235   2.640  16.252   7.370  0.0143 -0.0203 -0.0368
 1091YOPC   C4B14236   2.810  16.109   7.784  0.2472 -0.2656  0.0402
 1092YOPC   NC314237   7.105  13.612   5.791  0.0654 -0.1043  0.0109
 1092YOPC   PO414238   7.303  13.350   5.504 -0.0589 -0.1244  0.0008
 1092YOPC   GL114239   7.565  13.459   5.801 -0.0018  0.0534  0.2832
 1092YOPC   GL214240   7.866  13.247   5.884 -0.1698 -0.1391 -0.2104
 1092YOPC   C1A14241   7.741  13.639   6.159 -0.1065 -0.0484  0.1571
 1092YOPC   D2A14242   7.718  13.817   6.598 -0.0837 -0.1784  0.0971
 1092YOPC   C3A14243   7.866  14.132   6.753 -0.2386  0.0678  0.1916
 1092YOPC   C4A14244   7.525  14.415   6.834 -0.0223 -0.0823 -0.1144
 1092YOPC   C1B14245   7.966  13.294   6.380 -0.0170  0.2501  0.1125
 1092YOPC   C2B14246   7.873  13.264   6.778  0.0225 -0.0254  0.1476
 1092YOPC   D3B14247   7.521  13.488   6.876 -0.2509 -0.0695 -0.3158
 1092YOPC   C4B14248   7.618  13.853   7.099  0.0338  0.2365 -0.0032
 1093YOPC   NC314249  13.524   4.846   5.587 -0.0534 -0.2161  0.1911
 1093YOPC   PO414250  13.671   5.353   5.646 -0.0723 -0.2636  0.1997
 1093YOPC   GL114251  13.403   5.201   5.964  0.0014  0.0114 -0.1464
 1093YOPC   GL214252  13.150   5.406   6.123  0.0002 -0.1345  0.1642
 1093YOPC   C1A14253  13.407   4.802   6.137 -0.0453 -0.0459 -0.0271
 1093YOPC   D2A14254  13.404   4.397   6.088  0.0965 -0.0877  0.1188
 1093YOPC   C3A14255  13.722   4.150   6.292 -0.0292 -0.1603 -0.2695
 1093YOPC   C4A14256  14.047   3.904   6.192 -0.1579 -0.3689  0.2139
 1093YOPC   C1B14257  13.209   5.095   6.541  0.1634  0.0264 -0.0594
 1093YOPC   C2B14258  12.915   4.785   6.766 -0.0105  0.1369  0.0947
 1093YOPC   D3B14259  13.068   4.581   7.163  0.2815 -0.4336  0.2109
 1093YOPC   C4B14260  13.075   4.241   7.442 -0.2363  0.0812 -0.4313
 1094YOPC   NC314261   8.206   2.002   5.858 -0.1066 -0.0535  0.0670
 1094YOPC   PO414262   7.759   2.018   5.831  0.2558 -0.1321  0.4366
 1094YOPC   GL114263   7.810   2.102   6.252 -0.2490 -0.1555  0.0586
 1094YOPC   GL214264   8.014   1.784   6.262 -0.1068  0.2733  0.0865
 1094YOPC   C1A14265   7.836   2.212   6.650 -0.5008  0.0043  0.0082
 1094YOPC   D2A14266   7.940   1.971   6.980 -0.2002  0.0421  0.0139
 1094YOPC   C3A14267   8.346   1.899   7.148  0.1117 -0.1388 -0.0574
 1094YOPC   C4A14268   8.415   1.590   7.489  0.0348  0.1567  0.3054
 1094YOPC   C1B14269   8.128   1.633   6.654 -0.1546  0.0236  0.1152
 1094YOPC   C2B14270   8.156   1.427   7.042  0.1400 -0.5094  0.1776
 1094YOPC   D3B14271   8.221   1.091   7.324 -0.0182  0.1208  0.0568
 1094YOPC   C4B14272   8.459   0.742   7.640  0.3643  0.0236 -0.2684
 1095YOPC   NC314273  12.703   0.675   5.821 -0.0524  0.1356 -0.0120
 1095YOPC   PO414274  12.758   1.114   5.763  0.0803  0.2750  0.5117
 1095YOPC   GL114275  12.759   1.086   6.207 -0.0936 -0.0503  0.1207
 1095YOPC   GL214276  12.501   1.084   6.176  0.1109  0.2243  0.0496
 1095YOPC   C1A14277  12.979   1.060   6.625 -0.0245 -0.0205  0.2035
 1095YOPC   D2A14278  12.865   0.890   7.030 -0.0330 -0.0320  0.0950
 1095YOPC   C3A14279  13.009   1.186   7.426 -0.0296 -0.0257  0.3504
 1095YOPC   C4A14280  13.202   1.334   7.693  0.2751 -0.1688  0.0035
 1095YOPC   C1B14281  12.330   0.826   6.424  0.0275 -0.1615  0.2632
 1095YOPC   C2B14282  12.454   0.529   6.772  0.1828  0.3660  0.0206
 1095YOPC   D3B14283  12.174   0.551   7.163 -0.1549  0.0524 -0.1207
 1095YOPC   C4B14284  11.824   0.390   7.213  0.0938  0.1765 -0.0721
 1096YOPC   NC314285  16.423   6.097   5.584  0.1258  0.0276 -0.5322
 1096YOPC   PO414286  16.158   6.342   5.923  0.0583 -0.0476  0.0414
 1096YOPC   GL114287  16.293   6.221   6.336  0.3500 -0.1732  0.1142
 1096YOPC   GL214288  16.507   6.390   6.406  0.1204 -0.1236  0.0927
 1096YOPC   C1A14289  16.337   6.259   6.832 -0.2926  0.1847 -0.0941
 1096YOPC   D2A14290  16.506   6.272   7.156  0.0721  0.0113 -0.2380
 1096YOPC   C3A14291  16.506   6.615   7.454 -0.0627 -0.2446 -0.0723
 1096YOPC   C4A14292  16.717   7.046   7.652 -0.1878 -0.1204 -0.1629
 1096YOPC   C1B14293  16.625   6.628   6.715  0.0624 -0.1509 -0.1062
 1096YOPC   C2B14294  16.844   6.759   7.080 -0.1671 -0.1011  0.2358
 1096YOPC   D3B14295  17.283   6.853   7.204  0.0477 -0.0470 -0.1591
 1096YOPC   C4B14296  17.569   6.849   7.546  0.0156 -0.1048 -0.2265
 1097YOPC   NC314297  12.270   2.336   6.110 -0.0886  0.0514 -0.0343
 1097YOPC   PO414298  12.736   2.592   5.908 -0.0958  0.0440 -0.2121
 1097YOPC   GL114299  12.786   2.386   6.330  0.0939 -0.0579 -0.0522
 1097YOPC   GL214300  12.518   2.388   6.565  0.3333  0.0630  0.0590
 1097YOPC   C1A14301  12.998   2.183   6.731 -0.0372  0.1776 -0.1993
 1097YOPC   D2A14302  13.222   2.009   7.011 -0.1894 -0.0865 -0.1004
 1097YOPC   C3A14303  13.201   2.243   7.358  0.0381 -0.0280  0.0361
 1097YOPC   C4A14304  13.301   2.467   7.752 -0.1441 -0.0649 -0.0211
 1097YOPC   C1B14305  12.589   2.305   6.991 -0.0989  0.3413  0.0434
 1097YOPC   C2B14306  12.560   2.100   7.235 -0.1898  0.1894  0.2409
 1097YOPC   D3B14307  12.610   2.295   7.611  0.3790 -0.0545  0.1049
 1097YOPC   C4B14308  12.684   2.523   8.045 -0.1885 -0.3741  0.0675
 1098YOPC   NC314309  17.531   6.899   5.677 -0.0085 -0.1829 -0.0582
 1098YOPC   PO414310  17.315   7.211   5.910 -0.0766 -0.1228 -0.2651
 1098YOPC   GL114311  17.547   6.875   6.187 -0.1124 -0.1722 -0.2230
 1098YOPC   GL214312  17.498   6.602   6.023 -0.2560 -0.1279 -0.0512
 1098YOPC   C1A14313  17.748   6.795   6.526 -0.0042 -0.1873  0.2719
 1098YOPC   D2A14314  17.988   6.658   6.767  0.0028 -0.0701 -0.1723
 1098YOPC   C3A14315  18.333   6.736   6.984 -0.0297 -0.2865 -0.1518
 1098YOPC   C4A14316  18.438   6.781   7.386 -0.2214 -0.4597  0.0899
 1098YOPC   C1B14317  18.036   6.587   6.194 -0.1088 -0.1338  0.0905
 1098YOPC   C2B14318  18.281   6.380   6.512  0.2607 -0.2574  0.1429
 1098YOPC   D3B14319  18.712   6.429   6.719 -0.0212 -0.0239 -0.0116
 1098YOPC   C4B14320  18.788   6.393   7.144 -0.2722  0.0128  0.2194
 1099YOPC   NC314321   1.275  17.926   6.120  0.0752 -0.0951  0.2200
 1099YOPC   PO414322   0.993  17.486   6.015  0.1371  0.0032  0.2521
 1099YOPC   GL114323   1.280  17.476   6.373 -0.2277 -0.1959 -0.0899
 1099YOPC   GL214324   1.584  17.281   6.450 -0.0163 -0.0489 -0.1553
 1099YOPC   C1A14325   1.229  17.369   6.722  0.2003  0.2415 -0.1159
 1099YOPC   D2A14326   1.462  17.617   6.962  0.1204  0.2449  0.1142
 1099YOPC   C3A14327   1.549  17.551   7.374 -0.0814 -0.2220 -0.4356
 1099YOPC   C4A14328   1.526  17.520   7.841  0.0776 -0.2603 -0.0467
 1099YOPC   C1B14329   1.683  17.162   6.915 -0.3030  0.1844  0.2472
 1099YOPC   C2B14330   1.705  17.110   7.275  0.2630  0.0513 -0.0143
 1099YOPC   D3B14331   2.047  17.407   7.579  0.1795  0.0079  0.1246
 1099YOPC   C4B14332   2.007  17.714   7.904 -0.0249 -0.1010 -0.1274
 1100YOPC   NC314333   1.407  11.307   6.494 -0.2885 -0.3166  0.1528
 1100YOPC   PO414334   1.416  11.855   6.528  0.1801  0.1930 -0.0820
 1100YOPC   GL114335   1.469  11.682   6.927 -0.1543 -0.4233 -0.4824
 1100YOPC   GL214336   1.710  11.890   6.987  0.0970 -0.1499  0.2181
 1100YOPC   C1A14337   1.446  11.830   7.393 -0.0166  0.0814  0.1799
 1100YOPC   D2A14338   1.531  12.088   7.757  0.1248  0.0845  0.0699
 1100YOPC   C3A14339   1.923  12.182   8.030  0.3091  0.1433 -0.2470
 1100YOPC   C4A14340   2.282  12.465   8.112  0.2953  0.0509 -0.0809
 1100YOPC   C1B14341   1.942  11.904   7.436  0.0741  0.0075  0.2047
 1100YOPC   C2B14342   2.272  11.973   7.774  0.3442 -0.0154  0.0989
 1100YOPC   D3B14343   2.440  11.667   7.916  0.0400 -0.0545 -0.1379
 1100YOPC   C4B14344   2.924  11.646   7.941 -0.1468 -0.0824 -0.3095
 1101YOPC   NC314345   8.985  16.346   4.947  0.1014 -0.0355 -0.0895
 1101YOPC   PO414346   9.226  16.594   5.247 -0.1239  0.1049  0.0397
 1101YOPC   GL114347   9.520  16.576   5.689  0.0800 -0.1292  0.1407
 1101YOPC   GL214348   9.732  16.635   5.763  0.1921  0.0011  0.0630
 1101YOPC   C1A14349   9.413  16.439   6.124 -0.2974 -0.0011 -0.1856
 1101YOPC   D2A14350   9.421  16.400   6.511 -0.0703  0.0603 -0.1478
 1101YOPC   C3A14351   9.645  16.143   6.766  0.1167  0.0730 -0.4086
 1101YOPC   C4A14352   9.931  15.922   7.075  0.2485 -0.0713  0.1155
 1101YOPC   C1B14353   9.772  16.837   6.067 -0.0050 -0.2521  0.0124
 1101YOPC   C2B14354   9.626  16.933   6.425 -0.2109  0.1830 -0.2041
 1101YOPC   D3B14355   9.668  16.722   6.868  0.0415  0.1383 -0.0262
 1101YOPC   C4B14356   9.763  16.420   7.207  0.0423  0.0678 -0.1572
 1102YOPC   NC314357   9.917   0.917   5.477 -0.0247  0.0324 -0.1036
 1102YOPC   PO414358   9.405   0.684   5.498  0.0858 -0.0344 -0.1497
 1102YOPC   GL114359   9.313   0.315   5.732 -0.1903  0.0855 -0.1916
 1102YOPC   GL214360   9.222   0.495   6.030 -0.0841  0.2502  0.4421
 1102YOPC   C1A14361   9.244  -0.129   5.839 -0.2084 -0.1117 -0.1050
 1102YOPC   D2A14362   8.888  -0.366   6.020  0.1898  0.1851  0.0714
 1102YOPC   C3A14363   8.982  -0.849   5.896 -0.2309  0.0449 -0.0427
 1102YOPC   C4A14364   9.225  -1.112   5.804 -0.1289  0.0986  0.0585
 1102YOPC   C1B14365   9.302   0.376   6.479 -0.2347 -0.3097  0.4521
 1102YOPC   C2B14366   9.126   0.123   6.729  0.0115  0.0053 -0.0997
 1102YOPC   D3B14367   8.958   0.079   7.140 -0.2035 -0.0718 -0.0336
 1102YOPC   C4B14368   8.923  -0.117   7.438 -0.0935 -0.2508  0.2536
 1103YOPC   NC314369  15.812   8.790   5.266 -0.2862 -0.1411  0.0170
 1103YOPC   PO414370  15.870   8.973   5.743 -0.1604 -0.2430 -0.5191
 1103YOPC   GL114371  15.982   8.949   6.243 -0.0722 -0.1480 -0.3102
 1103YOPC   GL214372  16.235   9.099   6.421  0.0405 -0.0046 -0.1966
 1103YOPC   C1A14373  15.776   9.148   6.585  0.1663 -0.5482 -0.1799
 1103YOPC   D2A14374  15.642   9.145   7.062  0.0225  0.0674 -0.1859
 1103YOPC   C3A14375  15.986   9.080   7.368  0.0828 -0.0813  0.0528
 1103YOPC   C4A14376  16.353   8.917   7.538  0.1930 -0.2057 -0.0462
 1103YOPC   C1B14377  16.253   9.105   6.753  0.0505 -0.0264 -0.0259
 1103YOPC   C2B14378  16.326   8.859   7.033  0.1401  0.0854  0.3144
 1103YOPC   D3B14379  16.728   8.871   7.206 -0.2749 -0.1913  0.0643
 1103YOPC   C4B14380  17.077   8.870   7.469 -0.0387  0.1043  0.1718
 1104YOPC   NC314381  12.963  15.048   5.621  0.0629  0.2120  0.0713
 1104YOPC   PO414382  13.178  15.342   5.636  0.2038  0.1686  0.3015
 1104YOPC   GL114383  13.041  15.459   6.054  0.1157 -0.2101  0.1240
 1104YOPC   GL214384  12.999  15.209   6.125 -0.0235 -0.0603 -0.0938
 1104YOPC   C1A14385  13.013  15.619   6.484  0.2270 -0.1651  0.0160
 1104YOPC   D2A14386  13.263  15.723   6.881 -0.1663  0.0947  0.2173
 1104YOPC   C3A14387  13.348  15.438   7.198  0.0755  0.1741  0.0325
 1104YOPC   C4A14388  13.419  15.045   7.316 -0.0753 -0.1118  0.0694
 1104YOPC   C1B14389  12.636  15.261   6.335 -0.2952 -0.3366 -0.1874
 1104YOPC   C2B14390  12.398  15.226   6.692  0.1798 -0.2371 -0.3519
 1104YOPC   D3B14391  12.585  14.964   7.023  0.2133 -0.1358  0.0963
 1104YOPC   C4B14392  12.981  14.852   7.227  0.2034  0.1123 -0.0498
 1105YOPC   NC314393   0.642   1.000   5.742 -0.1172  0.0602 -0.2039
 1105YOPC   PO414394   1.093   1.011   5.951  0.2411  0.1010  0.2023
 1105YOPC   GL114395   1.213   0.877   6.368 -0.0081  0.0870 -0.1756
 1105YOPC   GL214396   1.035   1.116   6.589  0.0124 -0.1867  0.1881
 1105YOPC   C1A14397   1.470   0.840   6.750 -0.0964 -0.2843  0.2466
 1105YOPC   D2A14398   1.711   0.815   7.182 -0.1109 -0.1287 -0.0596
 1105YOPC   C3A14399   1.898   1.095   7.387 -0.0345 -0.4613  0.0491
 1105YOPC   C4A14400   2.172   0.986   7.750  0.0633 -0.1098 -0.1486
 1105YOPC   C1B14401   1.080   1.109   6.951 -0.2789  0.1122  0.1094
 1105YOPC   C2B14402   1.176   0.937   7.396  0.1347 -0.0110 -0.2684
 1105YOPC   D3B14403   1.535   0.852   7.715 -0.2466  0.0379 -0.1093
 1105YOPC   C4B14404   1.786   0.993   8.099 -0.0424  0.2933 -0.0609
 1106YOPC   NC314405   5.242   8.963   5.511  0.4787  0.0109 -0.1781
 1106YOPC   PO414406   4.955   8.783   5.933  0.2677  0.3270  0.2719
 1106YOPC   GL114407   5.180   8.613   6.172 -0.0595  0.0352 -0.2887
 1106YOPC   GL214408   5.341   8.753   6.397  0.1391  0.1446 -0.1491
 1106YOPC   C1A14409   5.448   8.262   6.372 -0.3596  0.2262  0.2882
 1106YOPC   D2A14410   5.768   7.973   6.529  0.2696 -0.2158 -0.0064
 1106YOPC   C3A14411   5.733   7.562   6.673  0.1319  0.4537  0.1780
 1106YOPC   C4A14412   5.495   7.211   6.888  0.2538 -0.2477  0.1697
 1106YOPC   C1B14413   5.372   8.609   6.878 -0.0447  0.2478  0.2317
 1106YOPC   C2B14414   5.502   8.486   7.240  0.0556 -0.0473  0.1718
 1106YOPC   D3B14415   5.590   8.399   7.619  0.1720  0.0009 -0.2169
 1106YOPC   C4B14416   5.571   8.056   7.866  0.2181  0.3363 -0.1102
 1107YOPC   NC314417   6.897   7.370   5.713 -0.0794 -0.0185  0.1117
 1107YOPC   PO414418   6.478   7.741   5.596  0.0049 -0.2120  0.1814
 1107YOPC   GL114419   6.409   7.508   5.849 -0.0453  0.0085 -0.1553
 1107YOPC   GL214420   6.032   7.377   5.866 -0.1772 -0.1942  0.0989
 1107YOPC   C1A14421   6.171   7.619   6.310  0.0945  0.2627  0.0419
 1107YOPC   D2A14422   6.212   7.603   6.789 -0.0812 -0.0937  0.0033
 1107YOPC   C3A14423   6.261   7.612   7.248  0.2109 -0.4937 -0.1416
 1107YOPC   C4A14424   6.452   7.660   7.603  0.1053  0.0689  0.1317
 1107YOPC   C1B14425   5.763   7.185   6.226 -0.3554  0.3116 -0.1497
 1107YOPC   C2B14426   5.331   7.238   6.385 -0.2629  0.0543 -0.0806
 1107YOPC   D3B14427   5.051   7.291   6.624 -0.1122 -0.0214 -0.0626
 1107YOPC   C4B14428   4.773   7.437   6.863 -0.0660  0.0876 -0.0573
 1108YOPC   NC314429  14.489  11.873   5.716 -0.1340  0.0403 -0.0307
 1108YOPC   PO414430  14.013  11.753   5.673  0.0118  0.2487  0.2046
 1108YOPC   GL114431  14.134  11.842   6.081  0.0624  0.2311  0.1777
 1108YOPC   GL214432  14.363  12.222   6.085  0.0188 -0.1024  0.3958
 1108YOPC   C1A14433  14.100  11.853   6.470  0.1100 -0.2500 -0.3028
 1108YOPC   D2A14434  14.123  12.051   6.899  0.3248  0.0655 -0.2241
 1108YOPC   C3A14435  14.253  12.072   7.258 -0.2314 -0.2725  0.0262
 1108YOPC   C4A14436  14.463  11.805   7.495 -0.2309 -0.1621 -0.0907
 1108YOPC   C1B14437  14.526  12.255   6.405 -0.3411 -0.4736  0.0660
 1108YOPC   C2B14438  14.939  12.102   6.697 -0.0214  0.0346 -0.3763
 1108YOPC   D3B14439  14.986  12.149   7.115  0.0309 -0.0120  0.1988
 1108YOPC   C4B14440  14.854  12.163   7.626 -0.1590 -0.1207 -0.1772
 1109YOPC   NC314441  14.311  15.943   5.551  0.0694 -0.2218  0.0566
 1109YOPC   PO414442  14.453  15.568   5.741  0.0358  0.1026 -0.0363
 1109YOPC   GL114443  14.503  15.520   6.184  0.0171  0.1368  0.2810
 1109YOPC   GL214444  14.749  15.559   6.300  0.0188  0.2092 -0.0413
 1109YOPC   C1A14445  14.125  15.489   6.496  0.0053 -0.0547 -0.2756
 1109YOPC   D2A14446  14.195  15.383   6.980 -0.2467  0.1354 -0.0298
 1109YOPC   C3A14447  14.737  15.385   6.998  0.1383 -0.0809 -0.0617
 1109YOPC   C4A14448  15.096  15.471   7.219  0.0925  0.0611  0.0533
 1109YOPC   C1B14449  14.587  15.211   6.577 -0.3329  0.0387 -0.2794
 1109YOPC   C2B14450  14.720  14.824   6.520 -0.1015 -0.0070 -0.0660
 1109YOPC   D3B14451  15.018  14.654   6.871  0.1057 -0.0589 -0.3050
 1109YOPC   C4B14452  15.049  14.513   7.339  0.1623 -0.0501 -0.0567
 1110YOPC   NC314453   2.213   5.654   5.276  0.0003  0.1026  0.1109
 1110YOPC   PO414454   2.125   5.385   5.552  0.3383  0.0695  0.0123
 1110YOPC   GL114455   2.108   5.560   6.007 -0.1896  0.1695 -0.0642
 1110YOPC   GL214456   2.022   5.189   6.117  0.0322 -0.0201 -0.1273
 1110YOPC   C1A14457   2.117   5.622   6.452 -0.0986  0.1503  0.0695
 1110YOPC   D2A14458   1.827   5.493   6.759  0.3047  0.2375 -0.1066
 1110YOPC   C3A14459   1.637   5.846   6.980  0.0155  0.1379  0.0495
 1110YOPC   C4A14460   1.348   6.147   7.341  0.1987  0.1613 -0.1390
 1110YOPC   C1B14461   1.841   4.975   6.483 -0.0932 -0.1099 -0.0518
 1110YOPC   C2B14462   1.769   5.080   6.947  0.2481 -0.0040 -0.1482
 1110YOPC   D3B14463   1.647   5.057   7.298  0.1216  0.3432 -0.1137
 1110YOPC   C4B14464   1.795   5.234   7.712 -0.2679 -0.0130  0.0957
 1111YOPC   NC314465  13.147   2.040   5.683  0.1491  0.3380 -0.1060
 1111YOPC   PO414466  13.131   1.733   5.961 -0.1260  0.3862 -0.3407
 1111YOPC   GL114467  13.118   1.805   6.255  0.0539  0.1402  0.0569
 1111YOPC   GL214468  13.068   1.468   6.363 -0.0055 -0.0950 -0.0422
 1111YOPC   C1A14469  13.422   1.957   6.459 -0.0698  0.0102  0.0608
 1111YOPC   D2A14470  13.532   2.291   6.608 -0.0638  0.3620  0.0464
 1111YOPC   C3A14471  13.696   2.349   6.997 -0.2079 -0.2675 -0.0089
 1111YOPC   C4A14472  14.135   2.211   7.161  0.1597  0.1328  0.3754
 1111YOPC   C1B14473  13.190   1.529   6.814 -0.2006 -0.1653 -0.3416
 1111YOPC   C2B14474  13.249   1.546   7.165  0.0607  0.1356  0.1182
 1111YOPC   D3B14475  13.055   1.788   7.503 -0.0044  0.2923  0.2804
 1111YOPC   C4B14476  12.780   1.658   7.812 -0.1089  0.1346  0.1638
 1112YOPC   NC314477   6.339   0.986   5.481  0.0734  0.1801  0.3938
 1112YOPC   PO414478   6.242   1.321   5.560 -0.2279  0.1148 -0.0348
 1112YOPC   GL114479   6.109   1.097   5.971  0.0080 -0.1060  0.1097
 1112YOPC   GL214480   6.118   1.383   6.111  0.3268 -0.0121  0.0554
 1112YOPC   C1A14481   6.253   0.823   6.257  0.0139  0.0580  0.3611
 1112YOPC   D2A14482   6.038   0.662   6.726 -0.0331 -0.0474  0.1728
 1112YOPC   C3A14483   6.133   0.769   7.038 -0.1378 -0.1746 -0.0392
 1112YOPC   C4A14484   6.382   0.813   7.370 -0.2041 -0.1754 -0.0569
 1112YOPC   C1B14485   6.446   1.276   6.353 -0.1906  0.2196  0.0346
 1112YOPC   C2B14486   6.442   0.998   6.691 -0.0957 -0.4931  0.1926
 1112YOPC   D3B14487   6.677   1.066   6.959  0.0964  0.2397  0.0258
 1112YOPC   C4B14488   6.640   1.253   7.421 -0.1196 -0.0448  0.0348
 1113YOPC   NC314489  11.341   0.422   5.362  0.2920 -0.3400  0.0916
 1113YOPC   PO414490  10.903   0.398   5.568  0.2211  0.2072 -0.1025
 1113YOPC   GL114491  10.740   0.202   6.042 -0.0619 -0.0559 -0.2630
 1113YOPC   GL214492  10.635   0.459   6.205  0.1866 -0.1735 -0.0523
 1113YOPC   C1A14493  10.800  -0.107   6.289  0.2886 -0.2164 -0.2284
 1113YOPC   D2A14494  10.565  -0.498   6.310  0.0235 -0.0706  0.2545
 1113YOPC   C3A14495  10.481  -0.463   6.741 -0.1201 -0.1994  0.0290
 1113YOPC   C4A14496  10.253  -0.640   7.080 -0.1896 -0.0479  0.0218
 1113YOPC   C1B14497  10.521   0.310   6.613 -0.1095  0.0390  0.1042
 1113YOPC   C2B14498  10.305   0.065   6.868 -0.0796  0.1026  0.0662
 1113YOPC   D3B14499  10.566  -0.043   7.209 -0.2723  0.0654  0.3539
 1113YOPC   C4B14500  10.560   0.006   7.539 -0.4332 -0.1478  0.2479
 1114YOPC   NC314501   3.354   3.243   5.409 -0.1433 -0.5335 -0.1075
 1114YOPC   PO414502   3.690   3.538   5.555  0.2147 -0.1486  0.5028
 1114YOPC   GL114503   3.934   3.564   5.915  0.2788  0.2273  0.0331
 1114YOPC   GL214504   4.219   3.435   5.853 -0.0117  0.0055 -0.2141
 1114YOPC   C1A14505   4.038   3.547   6.353 -0.3127  0.2829 -0.1724
 1114YOPC   D2A14506   4.265   3.723   6.614 -0.3527 -0.2628 -0.2401
 1114YOPC   C3A14507   4.193   3.736   7.050  0.1469 -0.1789 -0.0316
 1114YOPC   C4A14508   4.244   3.718   7.572 -0.2342  0.2110  0.0158
 1114YOPC   C1B14509   4.489   3.788   6.085 -0.0339 -0.0310  0.1500
 1114YOPC   C2B14510   4.727   3.782   6.514 -0.0889  0.2645  0.0986
 1114YOPC   D3B14511   4.689   3.846   6.902 -0.3768  0.2227  0.0307
 1114YOPC   C4B14512   4.611   4.016   7.349  0.1444 -0.3763 -0.0080
 1115YOPC   NC314513  11.600   1.020   5.876  0.1534 -0.2226  0.3525
 1115YOPC   PO414514  11.420   1.390   5.908  0.0903  0.0504  0.1860
 1115YOPC   GL114515  11.448   1.528   6.302  0.2162 -0.0192  0.3386
 1115YOPC   GL214516  11.612   1.315   6.362 -0.2079 -0.0867 -0.2059
 1115YOPC   C1A14517  11.476   1.588   6.701 -0.1414 -0.1462 -0.0871
 1115YOPC   D2A14518  11.560   1.663   7.117  0.0185  0.1274 -0.1059
 1115YOPC   C3A14519  11.407   1.476   7.391  0.0420  0.1882  0.3089
 1115YOPC   C4A14520  11.487   1.174   7.704  0.0495  0.0039 -0.0733
 1115YOPC   C1B14521  11.699   1.120   6.730  0.2071  0.1632 -0.0122
 1115YOPC   C2B14522  11.956   0.696   6.774 -0.0252  0.2030 -0.0401
 1115YOPC   D3B14523  12.057   0.366   6.518  0.1170 -0.2168 -0.0130
 1115YOPC   C4B14524  11.777   0.219   6.136 -0.1864 -0.0409 -0.3299
 1116YOPC   NC314525  14.603   8.589   5.775  0.1115  0.0690  0.0181
 1116YOPC   PO414526  14.373   8.167   5.778 -0.0164  0.0439  0.0883
 1116YOPC   GL114527  14.457   8.251   6.187  0.2132 -0.0615  0.1247
 1116YOPC   GL214528  14.237   8.206   6.472 -0.0823  0.0084  0.2031
 1116YOPC   C1A14529  14.672   8.103   6.567  0.0630  0.2261  0.1769
 1116YOPC   D2A14530  14.553   8.403   6.763  0.1178 -0.0892  0.1242
 1116YOPC   C3A14531  14.333   8.270   7.176  0.0364 -0.0848  0.1405
 1116YOPC   C4A14532  14.104   7.996   7.405 -0.1726 -0.2752 -0.1102
 1116YOPC   C1B14533  14.106   7.995   6.843 -0.1586  0.2820  0.0440
 1116YOPC   C2B14534  13.846   7.668   6.963 -0.0970 -0.0978 -0.1316
 1116YOPC   D3B14535  14.156   7.440   7.206  0.0243  0.1912  0.0176
 1116YOPC   C4B14536  14.375   7.360   7.562  0.2314  0.1660  0.0705
 1117YOPC   NC314537  13.200  16.232   5.520 -0.3459 -0.0680  0.2106
 1117YOPC   PO414538  12.818  16.427   5.605  0.1390 -0.1898  0.1277
 1117YOPC   GL114539  12.847  16.266   5.957  0.2403 -0.3765 -0.0794
 1117YOPC   GL214540  13.069  16.053   6.215 -0.0581 -0.0021 -0.1335
 1117YOPC   C1A14541  12.664  16.342   6.326  0.0617  0.0566 -0.2243
 1117YOPC   D2A14542  12.576  16.334   6.674  0.1662  0.2007 -0.1400
 1117YOPC   C3A14543  12.774  16.513   6.994 -0.0352 -0.2762  0.0589
 1117YOPC   C4A14544  12.955  16.905   6.988 -0.0698  0.1387  0.0077
 1117YOPC   C1B14545  13.070  16.119   6.697 -0.0469  0.1142 -0.2626
 1117YOPC   C2B14546  13.006  16.055   7.131 -0.3807 -0.0806  0.2216
 1117YOPC   D3B14547  13.286  16.422   7.299 -0.0035  0.0124  0.1896
 1117YOPC   C4B14548  13.505  16.816   7.046 -0.1179 -0.1250 -0.2357
 1118YOPC   NC314549   8.672  17.562   4.984  0.0773 -0.3934 -0.1694
 1118YOPC   PO414550   8.419  17.199   4.934  0.5028 -0.0276 -0.0521
 1118YOPC   GL114551   8.405  16.944   5.325 -0.2773  0.0224  0.0855
 1118YOPC   GL214552   8.174  16.929   5.557 -0.0870 -0.1905 -0.2543
 1118YOPC   C1A14553   8.686  16.909   5.645 -0.1571 -0.1887  0.1873
 1118YOPC   D2A14554   8.545  16.604   5.900 -0.0833  0.0984 -0.0634
 1118YOPC   C3A14555   8.479  16.821   6.345 -0.0006  0.0554  0.2018
 1118YOPC   C4A14556   8.592  17.203   6.424 -0.1752  0.2347  0.1630
 1118YOPC   C1B14557   8.464  17.231   5.934 -0.0538 -0.3599  0.3443
 1118YOPC   C2B14558   8.838  17.232   6.026 -0.0891 -0.0671  0.0220
 1118YOPC   D3B14559   9.097  17.313   6.390  0.1162 -0.5079  0.0123
 1118YOPC   C4B14560   9.321  17.084   6.808 -0.0060  0.1919  0.3869
 1119YOPC   NC314561   5.416   6.202   5.739  0.0077  0.0190 -0.0548
 1119YOPC   PO414562   5.548   5.737   5.898  0.1169 -0.0261 -0.2128
 1119YOPC   GL114563   5.474   5.861   6.239 -0.3026 -0.1490  0.3263
 1119YOPC   GL214564   5.589   6.200   6.193  0.0842  0.1852 -0.0787
 1119YOPC   C1A14565   5.393   5.860   6.680 -0.1023 -0.1035  0.0657
 1119YOPC   D2A14566   5.285   5.658   7.054  0.5343 -0.0575  0.1794
 1119YOPC   C3A14567   5.384   5.856   7.483  0.0599  0.2586 -0.1308
 1119YOPC   C4A14568   5.424   5.760   7.949  0.2171 -0.0007 -0.1611
 1119YOPC   C1B14569   5.593   6.299   6.585 -0.0043  0.2557 -0.1667
 1119YOPC   C2B14570   5.681   6.700   6.788 -0.4933  0.1742 -0.0669
 1119YOPC   D3B14571   5.594   6.914   7.217  0.0799  0.0481 -0.0067
 1119YOPC   C4B14572   5.824   6.664   7.602  0.2370 -0.0403  0.2035
 1120YOPC   NC314573  15.510  16.294   6.166  0.1610 -0.1066 -0.1537
 1120YOPC   PO414574  15.037  16.269   6.065 -0.3589 -0.1506 -0.3965
 1120YOPC   GL114575  14.669  16.057   6.163 -0.3042  0.0756 -0.0031
 1120YOPC   GL214576  14.442  16.001   6.035 -0.1063  0.3907  0.0491
 1120YOPC   C1A14577  14.513  15.892   6.562  0.2416  0.0349  0.2826
 1120YOPC   D2A14578  14.230  15.941   6.850 -0.1262  0.2243 -0.0216
 1120YOPC   C3A14579  13.985  16.201   6.633 -0.0291  0.1072 -0.0809
 1120YOPC   C4A14580  13.765  16.382   6.442  0.1116  0.0616 -0.1885
 1120YOPC   C1B14581  14.438  16.385   6.385 -0.0271 -0.0866  0.0055
 1120YOPC   C2B14582  14.607  16.320   6.759 -0.0367 -0.0454  0.1920
 1120YOPC   D3B14583  14.309  16.333   7.135 -0.1443  0.3404 -0.1964
 1120YOPC   C4B14584  13.949  16.104   7.366 -0.4539  0.2233 -0.1360
 1121YOPC   NC314585   1.081   6.966   5.694  0.1738 -0.0626  0.0276
 1121YOPC   PO414586   1.067   6.549   5.670  0.1322 -0.0583  0.1480
 1121YOPC   GL114587   0.881   6.531   6.062 -0.1375  0.1118  0.1202
 1121YOPC   GL214588   0.704   6.827   6.088  0.1880 -0.0270 -0.0994
 1121YOPC   C1A14589   0.800   6.564   6.509  0.2410 -0.2139  0.0590
 1121YOPC   D2A14590   0.817   6.704   6.815  0.1776 -0.2507  0.1294
 1121YOPC   C3A14591   0.793   6.367   7.128 -0.2260 -0.2518  0.1051
 1121YOPC   C4A14592   0.842   6.115   7.452 -0.2341  0.0599 -0.0032
 1121YOPC   C1B14593   1.006   7.003   6.387 -0.2744  0.1328 -0.2524
 1121YOPC   C2B14594   0.940   7.257   6.813 -0.0703 -0.2343  0.0254
 1121YOPC   D3B14595   1.079   7.038   7.248  0.0460  0.2792  0.1248
 1121YOPC   C4B14596   1.146   6.637   7.449  0.0356  0.2416 -0.2832
 1122YOPC   NC314597   5.230  10.943   5.880  0.1966  0.1852  0.2223
 1122YOPC   PO414598   5.273  11.319   5.993  0.1342  0.0702  0.2069
 1122YOPC   GL114599   5.221  11.501   6.350  0.0338 -0.0578  0.0916
 1122YOPC   GL214600   5.251  11.840   6.313 -0.4016 -0.3989 -0.2284
 1122YOPC   C1A14601   5.143  11.423   6.758 -0.2484  0.1692 -0.1519
 1122YOPC   D2A14602   5.300  11.337   7.206  0.2892  0.0904  0.1577
 1122YOPC   C3A14603   5.335  11.550   7.579 -0.2393 -0.1623 -0.1056
 1122YOPC   C4A14604   5.624  11.479   7.988  0.1239  0.0676 -0.0356
 1122YOPC   C1B14605   5.461  11.951   6.673  0.0804 -0.0843 -0.0455
 1122YOPC   C2B14606   5.552  11.758   7.116  0.3385  0.1785 -0.4723
 1122YOPC   D3B14607   5.667  11.935   7.532  0.2031 -0.0189  0.0840
 1122YOPC   C4B14608   5.885  12.248   7.782 -0.2018 -0.1131  0.0852
 1123YOPC   NC314609  18.426   7.165   5.485  0.1116 -0.1672 -0.1086
 1123YOPC   PO414610  18.242   7.387   5.793 -0.0434 -0.0443 -0.0334
 1123YOPC   GL114611  18.589   7.454   6.036 -0.2400 -0.1271 -0.0913
 1123YOPC   GL214612  18.509   7.661   6.362 -0.0610  0.2113  0.2676
 1123YOPC   C1A14613  18.981   7.338   6.214  0.0667 -0.0766 -0.0547
 1123YOPC   D2A14614  19.066   7.081   6.518 -0.3204  0.1063 -0.1229
 1123YOPC   C3A14615  18.874   6.934   6.882  0.2383 -0.0153  0.2983
 1123YOPC   C4A14616  19.096   6.837   7.283  0.3857  0.2082  0.0351
 1123YOPC   C1B14617  18.637   7.322   6.617  0.0640  0.1570  0.0277
 1123YOPC   C2B14618  18.461   7.227   6.951 -0.3383  0.1121  0.2211
 1123YOPC   D3B14619  18.687   7.187   7.323  0.0308  0.0282 -0.2547
 1123YOPC   C4B14620  18.865   7.120   7.718  0.2348 -0.2327  0.1221
 1124YOPC   NC314621  13.029   5.324   5.639  0.0393 -0.0809 -0.0925
 1124YOPC   PO414622  12.756   5.604   5.594  0.0155  0.0733  0.0037
 1124YOPC   GL114623  12.730   5.715   6.045  0.1248 -0.1528 -0.1428
 1124YOPC   GL214624  13.013   5.873   6.168  0.1595  0.0773  0.0627
 1124YOPC   C1A14625  12.517   5.530   6.365  0.0020  0.3419  0.0042
 1124YOPC   D2A14626  12.440   5.704   6.741  0.0643 -0.1286 -0.0030
 1124YOPC   C3A14627  12.546   5.586   7.110 -0.2097 -0.0348 -0.0420
 1124YOPC   C4A14628  12.812   5.736   7.083 -0.1804 -0.1704 -0.1050
 1124YOPC   C1B14629  12.974   5.805   6.604 -0.2030 -0.2037  0.2097
 1124YOPC   C2B14630  12.891   5.448   6.700  0.0119  0.1298 -0.2145
 1124YOPC   D3B14631  13.012   5.285   7.075  0.0157  0.0582 -0.0948
 1124YOPC   C4B14632  13.226   5.152   7.342 -0.2633 -0.1013  0.2120
 1125YOPC   NC314633   4.931  13.825   5.915  0.1281  0.1308 -0.3067
 1125YOPC   PO414634   5.121  13.585   5.646  0.2457  0.1498 -0.1184
 1125YOPC   GL114635   5.019  13.403   6.131 -0.2444  0.0948 -0.4890
 1125YOPC   GL214636   4.719  13.444   6.151 -0.3662 -0.0897  0.1157
 1125YOPC   C1A14637   5.026  13.083   6.464 -0.1567 -0.1031  0.0555
 1125YOPC   D2A14638   4.943  13.103   6.913  0.1253  0.0342  0.1370
 1125YOPC   C3A14639   5.084  13.395   7.236  0.0311  0.3093  0.3027
 1125YOPC   C4A14640   5.166  13.382   7.718  0.3321 -0.1783  0.1038
 1125YOPC   C1B14641   4.666  13.616   6.489  0.0616 -0.1867 -0.0091
 1125YOPC   C2B14642   4.810  13.589   6.902  0.0624 -0.3107  0.2523
 1125YOPC   D3B14643   4.678  13.683   7.365  0.1892  0.2628  0.2223
 1125YOPC   C4B14644   4.515  14.033   7.704  0.1027  0.1163  0.3709
 1126YOPC   NC314645   0.187  11.278   5.863  0.0421  0.2859  0.1378
 1126YOPC   PO414646  -0.187  11.273   6.031  0.0744  0.1118  0.0231
 1126YOPC   GL114647  -0.361  11.100   6.393 -0.5709  0.3504 -0.2766
 1126YOPC   GL214648  -0.418  11.419   6.587 -0.0680  0.1165  0.2930
 1126YOPC   C1A14649  -0.620  10.978   6.681  0.1450  0.1291  0.2152
 1126YOPC   D2A14650  -1.101  11.098   6.841  0.3265  0.2220  0.1610
 1126YOPC   C3A14651  -1.345  11.096   7.183  0.0106 -0.1196  0.1038
 1126YOPC   C4A14652  -1.541  11.014   7.619  0.1875  0.1658  0.3665
 1126YOPC   C1B14653  -0.795  11.478   6.851 -0.1477 -0.4387  0.1230
 1126YOPC   C2B14654  -1.255  11.536   7.047 -0.2509  0.2761 -0.0019
 1126YOPC   D3B14655  -1.247  11.443   7.541 -0.3624 -0.0707  0.2673
 1126YOPC   C4B14656  -1.495  11.422   7.935  0.3510 -0.0133 -0.2657
 1127YOPC   NC314657  10.665  14.879   4.909  0.1567 -0.1378 -0.1079
 1127YOPC   PO414658  10.854  14.503   5.083  0.0102  0.5842 -0.0809
 1127YOPC   GL114659  10.924  14.354   5.508  0.1729  0.2072 -0.1594
 1127YOPC   GL214660  10.600  14.229   5.542  0.0218 -0.0692 -0.0058
 1127YOPC   C1A14661  10.848  14.549   5.921  0.1651  0.2627 -0.0310
 1127YOPC   D2A14662  10.684  14.607   6.317  0.2515 -0.0963 -0.1303
 1127YOPC   C3A14663  10.273  14.457   6.449 -0.0151 -0.1520 -0.0911
 1127YOPC   C4A14664  10.077  14.089   6.670 -0.0317  0.2132  0.1148
 1127YOPC   C1B14665  10.750  14.055   6.065  0.4664 -0.0880 -0.0908
 1127YOPC   C2B14666  10.995  13.918   6.367  0.1145 -0.2721 -0.4313
 1127YOPC   D3B14667  11.174  13.629   6.193  0.0891  0.1856  0.2737
 1127YOPC   C4B14668  11.229  13.250   5.896  0.2063  0.0924  0.2014
 1128YOPC   NC314669  17.372   5.129   5.643  0.4827 -0.1013 -0.1078
 1128YOPC   PO414670  17.659   5.429   5.420 -0.2178 -0.1936  0.0847
 1128YOPC   GL114671  17.714   5.357   5.944  0.1439  0.3542  0.1134
 1128YOPC   GL214672  17.610   5.657   6.006  0.1548  0.0195  0.1848
 1128YOPC   C1A14673  17.576   5.240   6.407 -0.4061 -0.1059 -0.1206
 1128YOPC   D2A14674  17.556   5.333   6.785 -0.1281  0.2279 -0.3674
 1128YOPC   C3A14675  17.735   5.740   6.961 -0.2325 -0.1230 -0.0044
 1128YOPC   C4A14676  18.031   5.772   7.373 -0.3447  0.0772 -0.0587
 1128YOPC   C1B14677  17.640   5.700   6.405  0.0252  0.3443 -0.0543
 1128YOPC   C2B14678  17.387   5.924   6.651  0.0709  0.1155 -0.2848
 1128YOPC   D3B14679  17.223   5.882   7.083  0.0263 -0.0733  0.1799
 1128YOPC   C4B14680  17.101   5.710   7.476  0.1008  0.0641  0.0324
 1129YOPC   NC314681  10.851  13.352   5.035  0.1038  0.1202 -0.0118
 1129YOPC   PO414682  10.677  13.705   5.091 -0.0614 -0.0041 -0.3434
 1129YOPC   GL114683  10.972  13.738   5.370  0.1022  0.1506 -0.0234
 1129YOPC   GL214684  11.014  13.407   5.502 -0.2297  0.0793  0.0492
 1129YOPC   C1A14685  11.216  13.880   5.706  0.1687  0.1903 -0.0849
 1129YOPC   D2A14686  11.596  13.743   5.945 -0.1878  0.1021 -0.1289
 1129YOPC   C3A14687  11.605  13.397   6.309  0.2236  0.0152  0.5438
 1129YOPC   C4A14688  11.702  12.990   6.660  0.1750  0.0674  0.4628
 1129YOPC   C1B14689  10.791  13.515   5.808  0.0257 -0.0051 -0.1325
 1129YOPC   C2B14690  10.613  13.630   6.304 -0.1000  0.0245  0.1450
 1129YOPC   D3B14691  10.571  13.636   6.799  0.3177  0.0565  0.0130
 1129YOPC   C4B14692  10.401  13.739   7.104 -0.3165  0.2503 -0.2045
 1130YOPC   NC314693  16.197   1.665   5.520  0.0991  0.1144  0.0687
 1130YOPC   PO414694  16.307   1.354   5.898  0.1346  0.0415  0.4653
 1130YOPC   GL114695  16.092   1.385   6.259 -0.1842 -0.0606 -0.0083
 1130YOPC   GL214696  16.190   1.218   6.496 -0.3495 -0.0807 -0.0963
 1130YOPC   C1A14697  15.971   1.736   6.575  0.0071  0.2443  0.1183
 1130YOPC   D2A14698  15.918   1.742   6.914 -0.1415 -0.1113 -0.2247
 1130YOPC   C3A14699  16.168   1.892   7.330  0.2798  0.0674 -0.1229
 1130YOPC   C4A14700  16.557   2.046   7.632  0.1284  0.3124 -0.1385
 1130YOPC   C1B14701  16.170   1.340   6.852 -0.0907  0.2748 -0.0850
 1130YOPC   C2B14702  16.288   1.162   7.232  0.4487 -0.0225  0.0034
 1130YOPC   D3B14703  16.499   0.861   7.360  0.3353 -0.0217 -0.0537
 1130YOPC   C4B14704  16.622   0.913   7.768  0.0360  0.4264  0.0384
 1131YOPC   NC314705   4.193   1.808   6.018 -0.2325  0.0086  0.0490
 1131YOPC   PO414706   4.649   1.746   5.927 -0.1403  0.2105  0.4413
 1131YOPC   GL114707   4.683   1.441   6.238 -0.1294  0.1318 -0.0263
 1131YOPC   GL214708   4.388   1.409   6.239 -0.1359  0.2708 -0.2448
 1131YOPC   C1A14709   4.875   1.309   6.582  0.0858 -0.2850 -0.2627
 1131YOPC   D2A14710   4.856   1.345   7.038 -0.3199 -0.1498  0.2448
 1131YOPC   C3A14711   4.941   1.186   7.395  0.1359  0.0648 -0.1199
 1131YOPC   C4A14712   4.855   0.816   7.473  0.0441 -0.3635 -0.1007
 1131YOPC   C1B14713   4.344   1.344   6.739  0.2872  0.1719  0.3678
 1131YOPC   C2B14714   4.038   1.430   6.961  0.5377 -0.0322 -0.2869
 1131YOPC   D3B14715   3.773   1.086   7.083  0.0722  0.2371 -0.0733
 1131YOPC   C4B14716   3.758   0.644   7.080 -0.0044 -0.1507 -0.0295
 1132YOPC   NC314717  15.462   1.780   5.723  0.2618  0.2261  0.3978
 1132YOPC   PO414718  15.489   2.074   5.912 -0.3658 -0.4153 -0.0679
 1132YOPC   GL114719  15.535   2.487   6.207 -0.0203  0.1569  0.3367
 1132YOPC   GL214720  15.767   2.316   6.371 -0.3773  0.3943  0.1773
 1132YOPC   C1A14721  15.590   2.735   6.552 -0.0619 -0.3754 -0.2949
 1132YOPC   D2A14722  15.529   2.729   6.916  0.1016 -0.0683  0.1313
 1132YOPC   C3A14723  15.324   2.612   7.297 -0.0475  0.0177  0.3535
 1132YOPC   C4A14724  15.587   2.524   7.649 -0.1415 -0.0605 -0.0820
 1132YOPC   C1B14725  15.714   2.222   6.770 -0.1469  0.0853 -0.0724
 1132YOPC   C2B14726  15.786   2.203   7.190  0.2319 -0.1111  0.0844
 1132YOPC   D3B14727  15.581   2.002   7.582 -0.2886  0.1081  0.1176
 1132YOPC   C4B14728  15.403   2.054   8.049 -0.1066  0.1293  0.3324
 1133YOPC   NC314729  17.733  16.104   5.712  0.1963 -0.1018  0.0051
 1133YOPC   PO414730  17.579  15.846   6.166  0.0690  0.0910  0.1680
 1133YOPC   GL114731  17.421  15.740   6.523  0.0351  0.2097 -0.3692
 1133YOPC   GL214732  17.341  15.998   6.703 -0.1618  0.3626 -0.0564
 1133YOPC   C1A14733  17.690  15.515   6.862  0.1341  0.0552 -0.0694
 1133YOPC   D2A14734  17.706  15.537   7.237  0.1336  0.0788  0.0789
 1133YOPC   C3A14735  17.810  15.907   7.305  0.0027  0.0950  0.1769
 1133YOPC   C4A14736  17.834  16.233   7.628  0.0102 -0.2611  0.2823
 1133YOPC   C1B14737  17.392  15.922   7.081 -0.1388 -0.1759  0.0328
 1133YOPC   C2B14738  17.301  16.168   7.339 -0.0217 -0.2141  0.0839
 1133YOPC   D3B14739  17.436  15.916   7.687 -0.0451 -0.0287  0.0972
 1133YOPC   C4B14740  17.829  15.683   7.736  0.0155 -0.3022  0.1252
 1134YOPC   NC314741   7.904  14.619   5.236 -0.1400  0.0177 -0.1284
 1134YOPC   PO414742   7.880  14.121   5.382 -0.1516 -0.0136 -0.0231
 1134YOPC   GL114743   7.887  14.055   5.847  0.0249 -0.2781  0.0294
 1134YOPC   GL214744   7.460  14.088   5.971  0.0108  0.2767 -0.0094
 1134YOPC   C1A14745   8.008  14.039   6.246  0.1716  0.0918  0.4166
 1134YOPC   D2A14746   8.340  14.233   6.548 -0.1398  0.1636  0.1239
 1134YOPC   C3A14747   8.307  14.315   7.010  0.1448  0.1949  0.0545
 1134YOPC   C4A14748   8.456  14.639   7.265 -0.0791 -0.1484  0.5389
 1134YOPC   C1B14749   7.573  14.249   6.324  0.1242  0.1824 -0.2352
 1134YOPC   C2B14750   7.915  14.532   6.472 -0.0068  0.0832 -0.2775
 1134YOPC   D3B14751   7.965  14.718   6.868  0.1923 -0.2115 -0.0807
 1134YOPC   C4B14752   7.842  15.011   7.175  0.1808 -0.1995 -0.1516
 1135YOPC   NC314753   0.658  18.488   5.588  0.1004  0.0108  0.1741
 1135YOPC   PO414754   0.342  18.229   5.828 -0.2068 -0.2269 -0.0930
 1135YOPC   GL114755   0.579  18.210   6.269 -0.0820 -0.2323 -0.2053
 1135YOPC   GL214756   0.759  17.945   6.331  0.0665 -0.0453  0.0976
 1135YOPC   C1A14757   0.642  18.272   6.761 -0.2098 -0.0242 -0.1849
 1135YOPC   D2A14758   0.848  18.293   7.059 -0.1049  0.1742  0.0155
 1135YOPC   C3A14759   0.781  18.126   7.490 -0.3078 -0.1926 -0.0169
 1135YOPC   C4A14760   0.441  17.953   7.767 -0.0659 -0.1810 -0.0790
 1135YOPC   C1B14761   0.304  17.941   6.565 -0.2388  0.0661  0.0211
 1135YOPC   C2B14762  -0.170  18.119   6.565 -0.1863 -0.0448  0.3507
 1135YOPC   D3B14763  -0.252  18.193   7.004  0.1594 -0.4002  0.2365
 1135YOPC   C4B14764  -0.412  18.273   7.369  0.2754  0.0609 -0.2333
 1136YOPC   NC314765   7.109   8.531   5.356 -0.1378  0.0776 -0.1696
 1136YOPC   PO414766   7.319   8.274   5.738  0.2905  0.2900 -0.1814
 1136YOPC   GL114767   7.153   8.258   6.091  0.0654 -0.4233  0.1910
 1136YOPC   GL214768   7.282   7.910   6.362 -0.1260  0.0020 -0.0951
 1136YOPC   C1A14769   6.981   8.411   6.454 -0.0137 -0.2685  0.2363
 1136YOPC   D2A14770   7.096   8.260   6.838  0.0560 -0.1290  0.1799
 1136YOPC   C3A14771   7.126   8.309   7.242 -0.2983  0.0742  0.0959
 1136YOPC   C4A14772   7.234   8.107   7.533 -0.1094 -0.3050 -0.3206
 1136YOPC   C1B14773   7.117   7.791   6.813 -0.1207  0.0952 -0.0629
 1136YOPC   C2B14774   7.228   7.761   7.165  0.0486 -0.0373 -0.0112
 1136YOPC   D3B14775   7.124   7.552   7.478 -0.3124  0.1376 -0.1696
 1136YOPC   C4B14776   7.174   7.524   7.823  0.1415 -0.0133 -0.2625
 1137YOPC   NC314777  17.242  13.403   6.148  0.0972 -0.2329 -0.3478
 1137YOPC   PO414778  17.364  12.976   6.197  0.1300 -0.1134 -0.0644
 1137YOPC   GL114779  17.167  13.088   6.495 -0.0149 -0.0260  0.0140
 1137YOPC   GL214780  17.333  13.312   6.764 -0.0346  0.2611  0.2465
 1137YOPC   C1A14781  16.887  13.281   6.837 -0.2378  0.1603  0.2901
 1137YOPC   D2A14782  16.552  13.238   7.220  0.5327 -0.2934  0.0187
 1137YOPC   C3A14783  16.149  13.145   7.206 -0.6402  0.2673 -0.2719
 1137YOPC   C4A14784  16.079  12.951   7.552  0.2030 -0.0791  0.1509
 1137YOPC   C1B14785  17.167  13.551   7.160  0.5208 -0.2588 -0.1105
 1137YOPC   C2B14786  17.217  13.723   7.495  0.0348  0.0485 -0.3206
 1137YOPC   D3B14787  17.227  13.763   7.915  0.2107 -0.1653 -0.0571
 1137YOPC   C4B14788  16.936  13.862   8.218 -0.1642 -0.2372 -0.1139
 1138YOPC   NC314789  12.337   5.882   5.696  0.0064  0.0742  0.0644
 1138YOPC   PO414790  12.732   6.117   5.728  0.2720 -0.1569 -0.1007
 1138YOPC   GL114791  12.662   6.503   5.831 -0.0837 -0.1156  0.1644
 1138YOPC   GL214792  12.937   6.425   6.158  0.3298  0.0143  0.2327
 1138YOPC   C1A14793  12.567   6.717   6.282  0.3023 -0.1356 -0.0568
 1138YOPC   D2A14794  12.593   6.870   6.752  0.1224 -0.1086  0.0334
 1138YOPC   C3A14795  13.031   7.017   6.913  0.0509  0.0739  0.0777
 1138YOPC   C4A14796  13.272   6.964   7.412  0.0385  0.1001  0.1102
 1138YOPC   C1B14797  13.226   6.226   6.425 -0.2530  0.0379 -0.0163
 1138YOPC   C2B14798  13.359   6.143   6.843  0.4120  0.0190 -0.0596
 1138YOPC   D3B14799  13.294   6.069   7.194 -0.0950  0.0580 -0.3855
 1138YOPC   C4B14800  13.476   6.182   7.569  0.1383 -0.2786 -0.0030
 1139YOPC   NC314801  15.954   8.102   6.292  0.1839  0.0706  0.2453
 1139YOPC   PO414802  16.208   8.518   6.309  0.1833 -0.0601 -0.1149
 1139YOPC   GL114803  15.964   8.494   6.725 -0.3334 -0.0461  0.2072
 1139YOPC   GL214804  15.688   8.252   6.704  0.1505 -0.1846 -0.0603
 1139YOPC   C1A14805  15.844   8.645   7.063 -0.0064 -0.0007  0.1047
 1139YOPC   D2A14806  15.840   8.560   7.579 -0.1505  0.2022  0.3554
 1139YOPC   C3A14807  16.005   8.912   7.884  0.0217 -0.2495 -0.0492
 1139YOPC   C4A14808  16.307   9.223   7.914 -0.2386 -0.2198  0.0215
 1139YOPC   C1B14809  15.622   8.199   7.219  0.3052 -0.2315 -0.1304
 1139YOPC   C2B14810  15.380   8.148   7.437 -0.0519 -0.2112 -0.0412
 1139YOPC   D3B14811  15.118   8.039   7.713 -0.0282 -0.2477 -0.2960
 1139YOPC   C4B14812  15.001   8.264   8.122  0.0311  0.1422  0.1238
 1140YOPC   NC314813  15.427   9.014   5.983 -0.0819 -0.1796 -0.5899
 1140YOPC   PO414814  15.234   8.591   6.066 -0.4917  0.1954 -0.3857
 1140YOPC   GL114815  15.242   8.523   6.473  0.1875  0.0606  0.0657
 1140YOPC   GL214816  14.993   8.614   6.652  0.1463  0.0850  0.0712
 1140YOPC   C1A14817  15.380   8.612   6.944  0.0955  0.0247  0.1839
 1140YOPC   D2A14818  15.391   8.757   7.325  0.0946  0.1156 -0.2211
 1140YOPC   C3A14819  15.557   8.980   7.653 -0.0567 -0.1153 -0.1069
 1140YOPC   C4A14820  15.505   9.284   7.957 -0.0589 -0.2913  0.2527
 1140YOPC   C1B14821  14.799   8.696   7.087 -0.1683  0.0876  0.1105
 1140YOPC   C2B14822  14.525   8.830   7.282 -0.0484  0.1199 -0.2013
 1140YOPC   D3B14823  14.321   8.556   7.620 -0.3728  0.0506  0.1353
 1140YOPC   C4B14824  14.031   8.416   7.845 -0.1191 -0.0951 -0.0528
 1141YOPC   NC314825   2.150   8.246   6.055  0.2619 -0.2009  0.0403
 1141YOPC   PO414826   1.632   8.177   6.063 -0.0199  0.1488  0.2523
 1141YOPC   GL114827   1.646   8.033   6.419  0.2196 -0.0506  0.3202
 1141YOPC   GL214828   1.905   7.908   6.390  0.1126  0.4322 -0.1529
 1141YOPC   C1A14829   1.466   7.863   6.745 -0.1484 -0.3054  0.0582
 1141YOPC   D2A14830   1.574   7.905   7.244  0.0863 -0.0904 -0.0114
 1141YOPC   C3A14831   1.772   7.645   7.587 -0.1927  0.0086 -0.0603
 1141YOPC   C4A14832   1.965   7.691   7.890 -0.1621 -0.3160 -0.1989
 1141YOPC   C1B14833   2.005   7.696   6.752 -0.1768  0.3486 -0.1623
 1141YOPC   C2B14834   1.974   7.545   7.166 -0.2759  0.4333  0.0182
 1141YOPC   D3B14835   1.976   7.156   7.532  0.1653  0.0324 -0.1173
 1141YOPC   C4B14836   2.139   6.951   7.736 -0.0210 -0.2428 -0.1757
 1142YOPC   NC314837   6.672  10.873   5.585  0.1764  0.1036  0.1016
 1142YOPC   PO414838   6.660  10.598   5.905 -0.0941  0.0779  0.0915
 1142YOPC   GL114839   6.703  10.316   6.317  0.1140  0.1470  0.2858
 1142YOPC   GL214840   6.517   9.997   6.331  0.5291 -0.1536 -0.2710
 1142YOPC   C1A14841   6.791  10.115   6.767  0.3542  0.0616 -0.0814
 1142YOPC   D2A14842   6.737  10.137   7.161  0.1167  0.1113  0.0834
 1142YOPC   C3A14843   6.981   9.927   7.456  0.0781 -0.0645 -0.3724
 1142YOPC   C4A14844   6.654   9.964   7.762  0.0833 -0.0961 -0.1219
 1142YOPC   C1B14845   6.364   9.807   6.810  0.0115  0.1407  0.0276
 1142YOPC   C2B14846   6.267   9.957   7.246  0.0614 -0.2459 -0.1731
 1142YOPC   D3B14847   5.812  10.086   7.260 -0.0828 -0.0206 -0.0401
 1142YOPC   C4B14848   5.362   9.916   7.227  0.2291 -0.1255  0.1895
 1143YOPC   NC314849  11.255   3.320   5.554 -0.1353  0.2492 -0.1676
 1143YOPC   PO414850  11.483   3.640   5.692  0.2074 -0.1632  0.0306
 1143YOPC   GL114851  11.817   3.494   6.031  0.1226  0.1216  0.1224
 1143YOPC   GL214852  11.720   3.122   6.094 -0.1507 -0.0615 -0.2429
 1143YOPC   C1A14853  11.630   3.523   6.419  0.0230 -0.4824 -0.0760
 1143YOPC   D2A14854  11.583   3.585   6.827  0.0179 -0.0346 -0.1706
 1143YOPC   C3A14855  12.074   3.687   6.684  0.2405  0.0461  0.3151
 1143YOPC   C4A14856  12.460   4.003   6.639  0.0890 -0.2136 -0.1255
 1143YOPC   C1B14857  11.944   3.053   6.484  0.3443  0.4910 -0.1431
 1143YOPC   C2B14858  11.978   2.962   6.904 -0.1666  0.1414  0.0951
 1143YOPC   D3B14859  12.023   3.409   7.049 -0.0523 -0.1254 -0.0591
 1143YOPC   C4B14860  12.289   3.671   7.208 -0.1937 -0.0503  0.2394
 1144ERGO   ROH14861  13.602   1.466   6.277 -0.3758  0.0124  0.1784
 1144ERGO    R114862  13.700   1.510   6.539 -0.4030 -0.2219  0.2307
 1144ERGO    R214863  13.818   1.747   6.616  0.0905 -0.4753  0.3056
 1144ERGO    R314864  13.630   1.740   6.812 -0.0337 -0.0787  0.2085
 1144ERGO    R414865  13.870   1.845   6.944  0.1507 -0.6498  0.3489
 1144ERGO    R514866  13.751   1.675   7.008 -0.2790 -0.3943  0.2602
 1144ERGO    C114867  13.723   1.896   7.318  0.0691 -0.3791  0.2829
 1144ERGO    C214868  13.847   2.161   7.533  0.2627  0.0082 -0.2250
 1145ERGO   ROH14869   1.056   8.486   6.404 -0.1617  0.0025 -0.0831
 1145ERGO    R114870   1.130   8.546   6.670 -0.0166 -0.1755 -0.0813
 1145ERGO    R214871   1.000   8.738   6.821  0.3317  0.0228 -0.0248
 1145ERGO    R314872   0.972   8.534   6.998  0.0062  0.0311 -0.0610
 1145ERGO    R414873   1.011   8.772   7.165  0.1389 -0.0215 -0.0130
 1145ERGO    R514874   1.125   8.587   7.174 -0.0540 -0.1410  0.0465
 1145ERGO    C114875   0.991   8.600   7.531 -0.2789 -0.0394 -0.0401
 1145ERGO    C214876   0.941   8.483   7.752  0.4516 -0.2857  0.1865
 1146ERGO   ROH14877  14.302   4.352   5.859  0.2856 -0.0360  0.1574
 1146ERGO    R114878  14.361   4.309   6.133  0.1501  0.1817  0.2241
 1146ERGO    R214879  14.329   4.504   6.324 -0.0780  0.2941  0.0768
 1146ERGO    R314880  14.178   4.315   6.447 -0.0407  0.2881  0.1130
 1146ERGO    R414881  14.328   4.443   6.665  0.1753  0.1440  0.0528
 1146ERGO    R514882  14.320   4.230   6.621  0.0725  0.1653 -0.0368
 1146ERGO    C114883  14.186   4.230   6.978  0.3578  0.0508  0.0729
 1146ERGO    C214884  13.934   4.301   7.284 -0.1189 -0.5242  0.1773
 1147ERGO   ROH14885   2.122   8.268   6.603  0.1408  0.0031  0.0911
 1147ERGO    R114886   1.979   8.180   6.831  0.0634  0.0431  0.0589
 1147ERGO    R214887   2.097   8.034   7.034 -0.0463 -0.0724  0.0420
 1147ERGO    R314888   1.998   8.232   7.191  0.0597 -0.0428  0.0713
 1147ERGO    R414889   2.161   8.068   7.372 -0.0607 -0.1828  0.0557
 1147ERGO    R514890   1.952   8.124   7.400 -0.0295 -0.0587  0.0439
 1147ERGO    C114891   2.104   8.274   7.716  0.0304 -0.2193  0.0913
 1147ERGO    C214892   2.254   8.125   7.931 -0.0007 -0.2555  0.1456
 1148ERGO   ROH14893  17.080  10.704   6.639 -0.0067 -0.0606 -0.0571
 1148ERGO    R114894  16.872  10.708   6.831 -0.0951 -0.1037 -0.1492
 1148ERGO    R214895  16.824  10.496   7.002 -0.0397 -0.0630 -0.0712
 1148ERGO    R314896  16.846  10.687   7.194 -0.2363  0.0418 -0.1518
 1148ERGO    R414897  16.720  10.461   7.330  0.1515 -0.0846 -0.0129
 1148ERGO    R514898  16.647  10.666   7.324 -0.1473 -0.1962 -0.0586
 1148ERGO    C114899  16.681  10.621   7.701  0.0784  0.0012 -0.0547
 1148ERGO    C214900  16.502  10.561   8.025 -0.4823  0.0858  0.1197
 1149ERGO   ROH14901   7.787  15.153   5.728  0.1198  0.3065 -0.0449
 1149ERGO    R114902   7.798  15.118   6.009 -0.0195  0.4515 -0.0202
 1149ERGO    R214903   7.998  14.974   6.133 -0.3894  0.0208  0.1002
 1149ERGO    R314904   8.028  15.202   6.278  0.1556  0.0489 -0.0347
 1149ERGO    R414905   8.116  14.988   6.458 -0.5024 -0.0995  0.1476
 1149ERGO    R514906   7.966  15.140   6.500 -0.1286  0.3472 -0.0207
 1149ERGO    C114907   8.213  15.211   6.782 -0.0567 -0.1430  0.0487
 1149ERGO    C214908   8.511  15.136   7.007  0.1398 -0.1958  0.1647
 1150ERGO   ROH14909  14.783   0.814   6.248 -0.0772 -0.1533 -0.0682
 1150ERGO    R114910  14.806   1.071   6.365  0.2928 -0.1649 -0.1021
 1150ERGO    R214911  14.607   1.180   6.524  0.2049  0.3511 -0.5355
 1150ERGO    R314912  14.811   1.208   6.702 -0.0740 -0.0914 -0.1228
 1150ERGO    R414913  14.598   1.381   6.805  0.1182  0.4687 -0.6219
 1150ERGO    R514914  14.804   1.439   6.764  0.3609 -0.0442 -0.2242
 1150ERGO    C114915  14.783   1.525   7.136 -0.1942  0.1219 -0.2849
 1150ERGO    C214916  14.785   1.621   7.468  0.1781 -0.0748 -0.1447
 1151ERGO   ROH14917  12.067  16.130   5.793 -0.3561 -0.2057  0.1864
 1151ERGO    R114918  12.050  16.041   6.061 -0.3787 -0.0671  0.2328
 1151ERGO    R214919  12.213  16.140   6.261 -0.0817 -0.2802  0.1066
 1151ERGO    R314920  11.975  16.189   6.385  0.0665  0.2109  0.2173
 1151ERGO    R414921  12.143  16.067   6.592 -0.1484 -0.3694  0.0723
 1151ERGO    R514922  11.945  16.001   6.531 -0.3429  0.1613  0.0810
 1151ERGO    C114923  11.881  16.070   6.900 -0.0482  0.0396  0.1564
 1151ERGO    C214924  11.651  16.195   7.284  0.2080 -0.1451 -0.0095
 1152ERGO   ROH14925   3.369  12.844   6.606 -0.0977 -0.0884  0.0841
 1152ERGO    R114926   3.553  12.834   6.820 -0.2457  0.1505  0.2256
 1152ERGO    R214927   3.475  12.857   7.084 -0.5565 -0.4443  0.1950
 1152ERGO    R314928   3.610  12.622   7.110  0.1186 -0.1112 -0.0243
 1152ERGO    R414929   3.663  12.767   7.360 -0.6871 -0.3269  0.3244
 1152ERGO    R514930   3.812  12.682   7.225 -0.2061  0.3317  0.3715
 1152ERGO    C114931   3.898  12.495   7.546 -0.1295  0.0541  0.1938
 1152ERGO    C214932   4.116  12.448   7.775 -0.0368 -0.1439 -0.1477
 1153ERGO   ROH14933  11.235   7.048   6.105 -0.1052 -0.0277  0.1514
 1153ERGO    R114934  11.271   7.051   6.386 -0.1005  0.0365  0.1495
 1153ERGO    R214935  11.251   7.281   6.537 -0.2505  0.0424  0.1138
 1153ERGO    R314936  11.070   7.134   6.678 -0.1495 -0.0560  0.1441
 1153ERGO    R414937  11.099   7.385   6.829 -0.3819  0.0360  0.0495
 1153ERGO    R514938  11.122   7.182   6.907 -0.2210  0.0822  0.1353
 1153ERGO    C114939  10.841   7.308   7.132 -0.3636 -0.0600  0.0404
 1153ERGO    C214940  10.578   7.553   7.251 -0.2366 -0.0694 -0.0512
 1154ERGO   ROH14941   2.293   9.388   6.488 -0.0334  0.0779  0.0693
 1154ERGO    R114942   2.221   9.405   6.761 -0.1079  0.0229  0.0538
 1154ERGO    R214943   2.118   9.191   6.903  0.0179 -0.0552  0.0292
 1154ERGO    R314944   2.323   9.246   7.072 -0.0596  0.0947  0.0752
 1154ERGO    R414945   2.132   9.096   7.235  0.0240 -0.0743  0.0231
 1154ERGO    R514946   2.217   9.290   7.282 -0.1400 -0.0080  0.0576
 1154ERGO    C114947   2.332   9.093   7.587 -0.0452  0.0553  0.0627
 1154ERGO    C214948   2.346   9.050   7.876  0.2590 -0.0182 -0.0338
 1155ERGO   ROH14949   7.586   2.556   6.941  0.0863 -0.0507 -0.0195
 1155ERGO    R114950   7.676   2.540   7.209  0.1898 -0.0300 -0.0520
 1155ERGO    R214951   7.532   2.412   7.407  0.1466  0.1953  0.0669
 1155ERGO    R314952   7.763   2.275   7.443  0.0269 -0.0240  0.0162
 1155ERGO    R414953   7.639   2.281   7.708  0.1496  0.2060  0.0700
 1155ERGO    R514954   7.841   2.345   7.658  0.1935 -0.0161 -0.0458
 1155ERGO    C114955   7.919   2.075   7.917  0.0390  0.0063  0.0242
 1155ERGO    C214956   8.061   1.751   7.912 -0.4674 -0.0808 -0.2664
 1156ERGO   ROH14957   7.092   1.502   5.921  0.0034  0.0869 -0.1307
 1156ERGO    R114958   7.021   1.414   6.180 -0.0613 -0.0304 -0.1869
 1156ERGO    R214959   7.129   1.525   6.410  0.0677 -0.2985 -0.1126
 1156ERGO    R314960   6.868   1.561   6.476  0.1061 -0.0889 -0.0700
 1156ERGO    R414961   7.009   1.557   6.732  0.1735  0.0546 -0.1046
 1156ERGO    R514962   6.839   1.434   6.676  0.0860  0.1031  0.0512
 1156ERGO    C114963   6.694   1.610   6.982  0.2712  0.4569 -0.0601
 1156ERGO    C214964   6.418   1.872   7.138 -0.1341  0.1244  0.1722
 1157ERGO   ROH14965  13.336   6.612   6.112  0.2477 -0.2719  0.0030
 1157ERGO    R114966  13.511   6.646   6.332  0.0596 -0.0402  0.1223
 1157ERGO    R214967  13.451   6.808   6.547 -0.3451 -0.1909  0.1335
 1157ERGO    R314968  13.501   6.583   6.690 -0.0645 -0.1533  0.0987
 1157ERGO    R414969  13.570   6.802   6.871 -0.1523 -0.1063  0.0655
 1157ERGO    R514970  13.698   6.635   6.816 -0.0380  0.0096 -0.0119
 1157ERGO    C114971  13.687   6.587   7.194  0.2234 -0.0218 -0.0068
 1157ERGO    C214972  13.731   6.660   7.584  0.0953 -0.0038 -0.0271
 1158ERGO   ROH14973  10.883   7.280   5.985  0.1575  0.1589  0.0525
 1158ERGO    R114974  10.842   7.223   6.260 -0.0232 -0.1153 -0.0264
 1158ERGO    R214975  10.789   7.420   6.446  0.2039 -0.2551  0.1943
 1158ERGO    R314976  10.573   7.265   6.501 -0.0509 -0.0075 -0.0761
 1158ERGO    R414977  10.596   7.444   6.732  0.0954 -0.2789  0.1229
 1158ERGO    R514978  10.586   7.227   6.737 -0.2211 -0.2746 -0.1076
 1158ERGO    C114979  10.281   7.312   6.950 -0.2071 -0.0603 -0.1725
 1158ERGO    C214980  10.220   7.255   7.216  0.0167 -0.2115  0.1235
 1159ERGO   ROH14981   5.827  16.299   6.195  0.2423  0.1395 -0.0079
 1159ERGO    R114982   5.687  16.256   6.438  0.0937  0.1332 -0.0923
 1159ERGO    R214983   5.789  16.099   6.643 -0.1155 -0.0320 -0.1063
 1159ERGO    R314984   5.744  16.323   6.791 -0.0240 -0.0610 -0.0356
 1159ERGO    R414985   5.748  16.105   6.986  0.0081 -0.1041 -0.0905
 1159ERGO    R514986   5.591  16.253   6.960  0.0263 -0.0725  0.0023
 1159ERGO    C114987   5.683  16.319   7.324  0.1659 -0.1732 -0.0149
 1159ERGO    C214988   5.800  16.545   7.537  0.1018 -0.0059 -0.0572
 1160ERGO   ROH14989  14.062   9.158   6.625  0.0727 -0.2370  0.0932
 1160ERGO    R114990  13.806   9.092   6.726  0.1228 -0.2026  0.2457
 1160ERGO    R214991  13.760   9.041   6.993  0.2140  0.1158  0.3270
 1160ERGO    R314992  13.572   9.235   6.965  0.1390  0.0162  0.1330
 1160ERGO    R414993  13.534   9.135   7.238 -0.0774  0.0120  0.1027
 1160ERGO    R514994  13.381   9.151   7.083  0.0647 -0.0761 -0.0493
 1160ERGO    C114995  13.226   9.371   7.353 -0.3174 -0.1418 -0.2100
 1160ERGO    C214996  13.231   9.604   7.588  0.1209  0.2402 -0.0169
 1161ERGO   ROH14997   7.525   9.522   6.077 -0.1943 -0.0349 -0.1134
 1161ERGO    R114998   7.380   9.501   6.319 -0.0210  0.1453  0.0066
 1161ERGO    R214999   7.330   9.259   6.443 -0.2088  0.2132  0.0457
 1161ERGO    R315000   7.445   9.382   6.656  0.1087  0.0762 -0.0387
 1161ERGO    R415001   7.325   9.138   6.766 -0.4792  0.3896  0.1126
 1161ERGO    R515002   7.293   9.341   6.837  0.0059  0.5321  0.0010
 1161ERGO    C115003   7.431   9.182   7.155 -0.3386  0.3638  0.0723
 1161ERGO    C215004   7.566   9.096   7.435 -0.0055 -0.0321 -0.2568
 1162ERGO   ROH15005  11.390  14.356   5.783 -0.1417  0.2486 -0.0839
 1162ERGO    R115006  11.239  14.290   6.012 -0.0648  0.1308 -0.0675
 1162ERGO    R215007  11.355  14.236   6.257  0.0074  0.1474 -0.1033
 1162ERGO    R315008  11.186  14.430   6.344 -0.0772  0.0440 -0.0310
 1162ERGO    R415009  11.286  14.304   6.589  0.2024  0.1740 -0.0663
 1162ERGO    R515010  11.077  14.334   6.534  0.1336  0.0037  0.0762
 1162ERGO    C115011  11.087  14.526   6.864  0.2365  0.0925  0.0231
 1162ERGO    C215012  11.099  14.512   7.244 -0.3911 -0.2786 -0.1838
 1163ERGO   ROH15013  16.220  17.876   6.751 -0.3621 -0.3097 -0.1783
 1163ERGO    R115014  16.178  17.930   7.025 -0.0608 -0.3012 -0.1297
 1163ERGO    R215015  15.928  17.918   7.143  0.0158  0.0017  0.0794
 1163ERGO    R315016  16.052  17.748   7.315 -0.0541 -0.1924 -0.0579
 1163ERGO    R415017  15.897  17.928   7.487  0.1524 -0.1609  0.0974
 1163ERGO    R515018  16.110  17.886   7.502  0.1254 -0.3396 -0.0032
 1163ERGO    C115019  15.996  17.775   7.849  0.1664 -0.4378 -0.0210
 1163ERGO    C215020  16.048  17.808   8.236 -0.0804  0.2080  0.4389
 1164ERGO   ROH15021  18.038   7.592   6.730 -0.0280  0.0004  0.1285
 1164ERGO    R115022  18.065   7.544   7.007  0.0553 -0.0079  0.1198
 1164ERGO    R215023  17.869   7.420   7.157  0.0138  0.1634  0.2162
 1164ERGO    R315024  18.072   7.253   7.226 -0.0935 -0.0037  0.1289
 1164ERGO    R415025  17.867   7.210   7.431 -0.0170  0.1979  0.2418
 1164ERGO    R515026  18.076   7.260   7.465  0.0429  0.0206  0.1235
 1164ERGO    C115027  18.056   6.930   7.656 -0.1359  0.0611  0.1746
 1164ERGO    C215028  17.954   6.760   7.966  0.1047  0.0597 -0.3150
 1165ERGO   ROH15029   1.983   1.949   6.230  0.0033  0.0878 -0.0554
 1165ERGO    R115030   1.981   2.118   6.457 -0.0031  0.1879 -0.1306
 1165ERGO    R215031   2.040   2.028   6.710 -0.2813  0.2380 -0.0493
 1165ERGO    R315032   2.221   2.231   6.706 -0.0797  0.0636  0.0026
 1165ERGO    R415033   2.193   2.160   6.990 -0.3788  0.2059  0.0205
 1165ERGO    R515034   2.170   2.359   6.903 -0.1187  0.1972 -0.0890
 1165ERGO    C115035   2.453   2.427   7.150 -0.2464  0.0236  0.1099
 1165ERGO    C215036   2.715   2.500   7.435 -0.0364  0.0728 -0.1070
 1166ERGO   ROH15037   6.491  12.928   6.281 -0.1955 -0.0533  0.1915
 1166ERGO    R115038   6.405  13.100   6.489 -0.2666 -0.1287  0.2250
 1166ERGO    R215039   6.351  13.009   6.745  0.0157 -0.1616  0.2765
 1166ERGO    R315040   6.529  13.203   6.816 -0.1693  0.0670  0.1282
 1166ERGO    R415041   6.399  13.126   7.067  0.0140  0.0231  0.2106
 1166ERGO    R515042   6.416  13.327   6.986 -0.2416  0.0119  0.1209
 1166ERGO    C115043   6.594  13.376   7.320 -0.1607  0.3451  0.0331
 1166ERGO    C215044   6.680  13.596   7.623 -0.2616  0.3609  0.2602
 1167ERGO   ROH15045  10.170  17.469   5.517  0.4218 -0.0225  0.0838
 1167ERGO    R115046  10.209  17.635   5.743  0.2516 -0.0842  0.1610
 1167ERGO    R215047  10.059  17.862   5.788  0.2840 -0.0408  0.0563
 1167ERGO    R315048  10.011  17.744   6.028 -0.0021 -0.0763 -0.0142
 1167ERGO    R415049  10.063  18.025   6.093  0.2085 -0.1403  0.1107
 1167ERGO    R515050  10.164  17.851   6.179 -0.0118 -0.2614  0.1324
 1167ERGO    C115051  10.022  18.008   6.496 -0.1041 -0.2318  0.0762
 1167ERGO    C215052  10.003  18.157   6.767 -0.0874 -0.2941 -0.3591
 1168ERGO   ROH15053   2.814   5.065   6.284  0.3296  0.1386  0.1569
 1168ERGO    R115054   2.700   5.205   6.502 -0.0257  0.1352 -0.0175
 1168ERGO    R215055   2.426   5.220   6.543 -0.0911 -0.3345 -0.1498
 1168ERGO    R315056   2.490   5.122   6.788  0.0049  0.0004 -0.0375
 1168ERGO    R415057   2.228   5.245   6.825 -0.1161 -0.2514 -0.1762
 1168ERGO    R515058   2.407   5.284   6.942 -0.1714  0.0675 -0.2131
 1168ERGO    C115059   2.173   5.167   7.219 -0.0407  0.1114 -0.0863
 1168ERGO    C215060   2.090   4.960   7.441 -0.0789  0.0766  0.1469
 1169ERGO   ROH15061  17.607  16.340   6.413 -0.2905 -0.0544 -0.1406
 1169ERGO    R115062  17.556  16.513   6.631 -0.1993 -0.0287 -0.1395
 1169ERGO    R215063  17.304  16.544   6.741 -0.1394 -0.0744  0.0125
 1169ERGO    R315064  17.433  16.480   6.971  0.0214  0.0001 -0.0557
 1169ERGO    R415065  17.204  16.638   7.058 -0.0364 -0.1509  0.0685
 1169ERGO    R515066  17.412  16.674   7.108 -0.0327 -0.0185 -0.0380
 1169ERGO    C115067  17.267  16.633   7.459  0.1746 -0.1254  0.0372
 1169ERGO    C215068  17.184  16.720   7.747 -0.0845 -0.2366 -0.2152
 1170ERGO   ROH15069   3.374  12.222   6.577  0.0391 -0.0066 -0.0228
 1170ERGO    R115070   3.469  12.290   6.834 -0.1394  0.0906  0.0201
 1170ERGO    R215071   3.303  12.310   7.055 -0.2195 -0.3697  0.0128
 1170ERGO    R315072   3.480  12.133   7.163  0.1592 -0.0417 -0.0497
 1170ERGO    R415073   3.389  12.295   7.389 -0.2954 -0.3891  0.0309
 1170ERGO    R515074   3.596  12.260   7.329 -0.1826  0.1239  0.0707
 1170ERGO    C115075   3.605  12.122   7.685  0.0158 -0.0925 -0.0171
 1170ERGO    C215076   3.790  12.057   7.998  0.1638  0.2912 -0.1940
 1171ERGO   ROH15077   7.114  11.398   6.302  0.3119  0.1568  0.0902
 1171ERGO    R115078   7.065  11.201   6.500  0.1232  0.1044 -0.0050
 1171ERGO    R215079   7.266  11.044   6.606 -0.0126 -0.0943 -0.0265
 1171ERGO    R315080   7.171  11.140   6.842  0.0056 -0.1219 -0.0087
 1171ERGO    R415081   7.299  10.886   6.912 -0.0057 -0.1292 -0.0458
 1171ERGO    R515082   7.095  10.945   6.959  0.0041 -0.1281 -0.0270
 1171ERGO    C115083   7.228  10.883   7.311  0.0155 -0.1755 -0.0403
 1171ERGO    C215084   7.383  10.885   7.511 -0.0095 -0.1731  0.2404
 1172ERGO   ROH15085  14.405  13.984   6.337  0.2329  0.3171  0.0003
 1172ERGO    R115086  14.347  13.878   6.593  0.0884  0.2805 -0.0476
 1172ERGO    R215087  14.544  13.819   6.777 -0.0079  0.1034 -0.0086
 1172ERGO    R315088  14.397  13.981   6.939  0.0477  0.1477  0.0002
 1172ERGO    R415089  14.463  13.750   7.106 -0.1364  0.0433 -0.0515
 1172ERGO    R515090  14.264  13.831   7.069 -0.0826  0.1814 -0.0835
 1172ERGO    C115091  14.277  13.861   7.449 -0.1590  0.0498 -0.0682
 1172ERGO    C215092  14.111  13.604   7.741  0.1863 -0.1094 -0.2433
 1173ERGO   ROH15093   8.300  13.679   5.941  0.0482 -0.0608  0.0704
 1173ERGO    R115094   8.323  13.592   6.209 -0.0130  0.0192  0.1030
 1173ERGO    R215095   8.425  13.752   6.410  0.0017  0.0574  0.0677
 1173ERGO    R315096   8.190  13.692   6.532 -0.0317  0.1600  0.0521
 1173ERGO    R415097   8.370  13.771   6.751  0.0646 -0.1437  0.0891
 1173ERGO    R515098   8.255  13.586   6.737 -0.0892 -0.0425 -0.0321
 1173ERGO    C115099   8.118  13.726   7.064  0.0697 -0.1645  0.0869
 1173ERGO    C215100   8.061  13.935   7.273  0.3311  0.3594 -0.0824
 1174ERGO   ROH15101   3.999  11.477   6.399  0.1553 -0.2550  0.0645
 1174ERGO    R115102   4.054  11.611   6.642  0.1951 -0.0007 -0.0813
 1174ERGO    R215103   4.089  11.477   6.882 -0.0739  0.2641  0.1132
 1174ERGO    R315104   4.323  11.615   6.887  0.0866  0.0015  0.0393
 1174ERGO    R415105   4.263  11.560   7.168  0.1042  0.0838  0.0600
 1174ERGO    R515106   4.305  11.755   7.080  0.2995  0.0337  0.0381
 1174ERGO    C115107   4.584  11.738   7.340  0.3585 -0.2678 -0.0404
 1174ERGO    C215108   4.875  11.720   7.588  0.2482  0.2296 -0.6250
 1175ERGO   ROH15109  12.299   3.333   6.075  0.0664  0.1018 -0.1320
 1175ERGO    R115110  12.316   3.410   6.347  0.0597 -0.0011 -0.1021
 1175ERGO    R215111  12.373   3.231   6.549  0.1248 -0.0639 -0.1773
 1175ERGO    R315112  12.570   3.409   6.607  0.0753 -0.0286 -0.1165
 1175ERGO    R415113  12.495   3.293   6.866  0.0543 -0.0904 -0.1449
 1175ERGO    R515114  12.503   3.505   6.816  0.0153 -0.0780 -0.1106
 1175ERGO    C115115  12.751   3.496   7.105 -0.0331 -0.0728 -0.0690
 1175ERGO    C215116  12.842   3.270   7.393 -0.1051  0.3834  0.0095
 1176ERGO   ROH15117  14.792   7.167   6.462  0.0832 -0.2519 -0.0889
 1176ERGO    R115118  14.859   6.942   6.620  0.1663 -0.1089  0.0848
 1176ERGO    R215119  15.069   6.944   6.801  0.1070  0.1376  0.1644
 1176ERGO    R315120  14.877   6.864   6.975  0.0881  0.1409  0.1433
 1176ERGO    R415121  15.125   6.851   7.129  0.1120 -0.2385  0.0597
 1176ERGO    R515122  14.980   6.691   7.103 -0.0374 -0.0786 -0.0549
 1176ERGO    C115123  14.977   6.721   7.483  0.0972 -0.4545 -0.0210
 1176ERGO    C215124  14.899   6.497   7.689  0.1369  0.2537  0.0678
 1177ERGO   ROH15125  10.002  10.786   5.974  0.2985 -0.0364 -0.0477
 1177ERGO    R115126   9.976  10.715   6.247  0.1903 -0.1714 -0.0933
 1177ERGO    R215127  10.194  10.679   6.413  0.1152 -0.0405  0.0208
 1177ERGO    R315128  10.067  10.862   6.568 -0.1444 -0.2225  0.0327
 1177ERGO    R415129  10.251  10.726   6.750  0.1642  0.0929 -0.0042
 1177ERGO    R515130  10.037  10.752   6.778  0.1125 -0.2588  0.0633
 1177ERGO    C115131  10.165  10.925   7.092 -0.0511 -0.0001 -0.0076
 1177ERGO    C215132  10.239  10.973   7.441  0.1037 -0.0917  0.0731
 1178ERGO   ROH15133  18.420  11.733   6.878  0.0340 -0.0534  0.0191
 1178ERGO    R115134  18.424  11.679   7.155  0.1163  0.0692  0.0444
 1178ERGO    R215135  18.429  11.879   7.346  0.1399  0.1602 -0.0381
 1178ERGO    R315136  18.210  11.749   7.441  0.1813  0.1688  0.0654
 1178ERGO    R415137  18.320  11.890   7.674  0.2722  0.1642  0.0053
 1178ERGO    R515138  18.274  11.677   7.661  0.2647  0.1746  0.0351
 1178ERGO    C115139  18.051  11.774   7.954  0.3880  0.1745  0.1278
 1178ERGO    C215140  17.960  11.982   8.186 -0.0527 -0.1762 -0.2969
 1179ERGO   ROH15141  13.603  11.810   5.952  0.1405  0.2202 -0.0244
 1179ERGO    R115142  13.678  11.995   6.153  0.0329  0.2149  0.0210
 1179ERGO    R215143  13.493  12.130   6.308 -0.0437  0.0010  0.1164
 1179ERGO    R315144  13.638  12.025   6.513  0.0999  0.0535  0.0431
 1179ERGO    R415145  13.484  12.243   6.635  0.0022 -0.0668  0.1415
 1179ERGO    R515146  13.700  12.215   6.645  0.0263  0.0697  0.0563
 1179ERGO    C115147  13.616  12.211   7.017  0.1639 -0.0571  0.0872
 1179ERGO    C215148  13.755  12.044   7.334  0.0159 -0.0046 -0.0046
 1180ERGO   ROH15149  11.741   0.805   6.255  0.0513 -0.2537 -0.1305
 1180ERGO    R115150  11.525   0.717   6.415  0.0164 -0.1900 -0.1445
 1180ERGO    R215151  11.539   0.490   6.574 -0.0186 -0.1202 -0.0452
 1180ERGO    R315152  11.465   0.663   6.770 -0.0696 -0.0422 -0.1368
 1180ERGO    R415153  11.446   0.399   6.893  0.1724  0.0346  0.0582
 1180ERGO    R515154  11.290   0.550   6.886  0.0610 -0.0896  0.0121
 1180ERGO    C115155  11.321   0.508   7.264  0.2357  0.1980  0.0325
 1180ERGO    C215156  11.520   0.481   7.577  0.0404 -0.0773  0.1919
 1181ERGO   ROH15157   5.712  14.249   6.200 -0.0693  0.1462 -0.2492
 1181ERGO    R115158   5.534  14.391   6.368 -0.0185  0.1710 -0.2161
 1181ERGO    R215159   5.447  14.291   6.611 -0.1249  0.1026 -0.2836
 1181ERGO    R315160   5.541  14.528   6.705 -0.0031  0.0038 -0.1458
 1181ERGO    R415161   5.379  14.418   6.925 -0.2769  0.0705 -0.3028
 1181ERGO    R515162   5.359  14.616   6.835 -0.0414  0.1172 -0.2701
 1181ERGO    C115163   5.428  14.714   7.197 -0.2510 -0.0409 -0.1846
 1181ERGO    C215164   5.345  14.620   7.567  0.1244  0.2838  0.2008
 1182ERGO   ROH15165   9.241   6.293   6.422  0.1767 -0.0710 -0.0505
 1182ERGO    R115166   9.349   6.139   6.634  0.0006  0.0001  0.0923
 1182ERGO    R215167   9.621   6.099   6.665 -0.0455 -0.2100  0.1726
 1182ERGO    R315168   9.574   6.196   6.915 -0.0039  0.0229  0.0960
 1182ERGO    R415169   9.851   6.103   6.923 -0.1712 -0.5634  0.2974
 1182ERGO    R515170   9.692   6.047   7.060 -0.3890 -0.1678  0.2421
 1182ERGO    C115171   9.942   6.197   7.307 -0.2053 -0.5507  0.2982
 1182ERGO    C215172  10.019   6.197   7.590 -0.0723  0.3038 -0.2121
 1183ERGO   ROH15173   7.853   1.273   6.355  0.1027  0.0518  0.0547
 1183ERGO    R115174   7.812   1.058   6.534 -0.0401  0.0258 -0.0077
 1183ERGO    R215175   7.928   1.047   6.784  0.0311 -0.1695 -0.0450
 1183ERGO    R315176   7.671   1.013   6.867  0.0234  0.0408  0.0206
 1183ERGO    R415177   7.834   0.911   7.088 -0.0038 -0.2992 -0.1137
 1183ERGO    R515178   7.674   0.805   6.985 -0.1539 -0.0526 -0.1369
 1183ERGO    C115179   7.539   0.800   7.342 -0.0312 -0.1773 -0.0922
 1183ERGO    C215180   7.490   0.688   7.544 -0.0368 -0.1335  0.0409
 1184ERGO   ROH15181  14.334   6.152   6.327  0.1841  0.0197  0.1073
 1184ERGO    R115182  14.255   6.037   6.574  0.0757  0.0397  0.0829
 1184ERGO    R215183  14.410   5.851   6.707 -0.0088  0.0069  0.1391
 1184ERGO    R315184  14.385   6.026   6.913 -0.0408  0.0164  0.1267
 1184ERGO    R415185  14.445   5.769   7.041  0.0509  0.0478  0.1427
 1184ERGO    R515186  14.276   5.899   7.086  0.0164 -0.0008  0.1488
 1184ERGO    C115187  14.442   5.885   7.429  0.0557  0.0806  0.1332
 1184ERGO    C215188  14.702   5.802   7.676 -0.0093  0.2618  0.0060
 1185ERGO   ROH15189   3.137   3.857   6.483  0.3927 -0.1989  0.0483
 1185ERGO    R115190   2.987   3.885   6.721  0.1678 -0.1182 -0.1003
 1185ERGO    R215191   3.075   3.791   6.965 -0.0909 -0.0972  0.0060
 1185ERGO    R315192   3.030   4.047   7.044 -0.1031 -0.0712 -0.0853
 1185ERGO    R415193   3.078   3.900   7.293 -0.0911  0.0240 -0.0342
 1185ERGO    R515194   2.906   4.026   7.248 -0.0974 -0.0025 -0.0760
 1185ERGO    C115195   3.038   4.205   7.558 -0.1026  0.1191 -0.1433
 1185ERGO    C215196   3.081   4.480   7.800 -0.2351 -0.0003 -0.1502
 1186ERGO   ROH15197   2.805   9.480   6.271 -0.0459  0.2364 -0.0180
 1186ERGO    R115198   2.818   9.563   6.542 -0.1502  0.3678 -0.0523
 1186ERGO    R215199   2.612   9.699   6.665 -0.5224 -0.2119  0.0084
 1186ERGO    R315200   2.630   9.498   6.847  0.1957 -0.1183  0.0703
 1186ERGO    R415201   2.543   9.731   7.002 -0.4942 -0.3220  0.0251
 1186ERGO    R515202   2.715   9.604   7.044 -0.0523  0.2268  0.0020
 1186ERGO    C115203   2.520   9.561   7.369  0.1964 -0.2982  0.0929
 1186ERGO    C215204   2.543   9.513   7.794  0.2154 -0.1143 -0.0708
 1187ERGO   ROH15205   2.040   7.226   6.583  0.1303  0.0602 -0.1855
 1187ERGO    R115206   2.220   7.232   6.801  0.1090  0.0150 -0.1684
 1187ERGO    R215207   2.152   7.138   7.052  0.0733 -0.0037 -0.1899
 1187ERGO    R315208   2.376   6.987   7.021  0.0614 -0.0267 -0.1794
 1187ERGO    R415209   2.388   7.081   7.299  0.1745  0.1631 -0.2440
 1187ERGO    R515210   2.544   7.102   7.148  0.1150  0.0615 -0.3243
 1187ERGO    C115211   2.735   6.906   7.413  0.2223  0.2386 -0.2657
 1187ERGO    C215212   2.804   6.987   7.733 -0.1912  0.2340 -0.0020
 1188ERGO   ROH15213  10.568   9.877   5.732 -0.1655 -0.0098  0.1470
 1188ERGO    R115214  10.488   9.859   6.003  0.0011  0.0764  0.2036
 1188ERGO    R215215  10.492   9.621   6.144 -0.3479  0.0223  0.1393
 1188ERGO    R315216  10.644   9.764   6.318  0.0670 -0.3018  0.0609
 1188ERGO    R415217  10.510   9.564   6.484 -0.2596 -0.0190  0.1281
 1188ERGO    R515218  10.510   9.780   6.515  0.2182 -0.0174  0.1409
 1188ERGO    C115219  10.662   9.666   6.846  0.1812 -0.3473  0.0481
 1188ERGO    C215220  10.605   9.574   7.204  0.1210  0.1299  0.0435
 1189ERGO   ROH15221   7.625   8.288   6.299  0.2596  0.0976 -0.0372
 1189ERGO    R115222   7.567   8.284   6.576  0.0865  0.1480 -0.0711
 1189ERGO    R215223   7.616   8.063   6.735 -0.1376  0.1286 -0.0250
 1189ERGO    R315224   7.756   8.242   6.884 -0.1255  0.0585  0.0487
 1189ERGO    R415225   7.643   8.054   7.079 -0.1463 -0.0091 -0.0273
 1189ERGO    R515226   7.623   8.271   7.081 -0.1277 -0.0076  0.0573
 1189ERGO    C115227   7.790   8.217   7.420 -0.1399 -0.1552  0.0405
 1189ERGO    C215228   7.739   8.204   7.735  0.2209  0.0755  0.1260
 1190ERGO   ROH15229   1.606  14.109   6.230 -0.2952 -0.3278 -0.1015
 1190ERGO    R115230   1.555  14.056   6.503 -0.1232 -0.2152 -0.0463
 1190ERGO    R215231   1.757  14.016   6.687 -0.0053 -0.0420 -0.1373
 1190ERGO    R315232   1.630  14.216   6.821 -0.0123 -0.0285 -0.1636
 1190ERGO    R415233   1.757  14.055   7.031 -0.0576 -0.0376 -0.1378
 1190ERGO    R515234   1.546  14.111   7.019 -0.0535 -0.0206 -0.1748
 1190ERGO    C115235   1.637  14.264   7.356 -0.0946 -0.0225 -0.1628
 1190ERGO    C215236   1.749  14.418   7.665  0.0469 -0.1715 -0.0572
 1191ERGO   ROH15237   1.179  14.846   6.273  0.2572 -0.0086  0.0174
 1191ERGO    R115238   1.348  15.045   6.383  0.0916  0.1362  0.0126
 1191ERGO    R215239   1.302  15.159   6.630  0.1069 -0.0468  0.0969
 1191ERGO    R315240   1.558  15.080   6.678  0.2371  0.2330 -0.0985
 1191ERGO    R415241   1.504  15.285   6.881  0.0612 -0.0015  0.1114
 1191ERGO    R515242   1.671  15.282   6.742  0.0078  0.3341  0.0198
 1191ERGO    C115243   1.861  15.284   7.072  0.1568  0.2878 -0.0635
 1191ERGO    C215244   2.191  15.499   7.209 -0.1420 -0.0589  0.0364
 1192ERGO   ROH15245  18.496  13.215   6.840 -0.3714  0.2555  0.1099
 1192ERGO    R115246  18.619  13.169   7.091 -0.4111 -0.0501  0.0774
 1192ERGO    R215247  18.748  13.368   7.232  0.0727 -0.3444  0.0769
 1192ERGO    R315248  18.579  13.292   7.431 -0.0626  0.0048  0.1012
 1192ERGO    R415249  18.795  13.434   7.569  0.2191 -0.3752  0.0625
 1192ERGO    R515250  18.723  13.233   7.613 -0.1575 -0.2374  0.0998
 1192ERGO    C115251  18.663  13.400   7.950  0.1773 -0.0653  0.0771
 1192ERGO    C215252  18.398  13.434   8.200 -0.3194  0.1783 -0.2306
 1193ERGO   ROH15253   4.084  14.171   6.410  0.0173 -0.0419 -0.0161
 1193ERGO    R115254   4.211  14.059   6.637 -0.0463 -0.0817 -0.0007
 1193ERGO    R215255   4.485  14.064   6.671 -0.0564 -0.1378  0.0491
 1193ERGO    R315256   4.421  14.179   6.909 -0.0715 -0.1440  0.0486
 1193ERGO    R415257   4.685  14.057   6.953  0.0967  0.1503 -0.0481
 1193ERGO    R515258   4.505  14.025   7.073  0.1805 -0.0177  0.0490
 1193ERGO    C115259   4.740  14.161   7.341  0.1717  0.3123 -0.1051
 1193ERGO    C215260   4.911  14.318   7.513 -0.1398 -0.2036  0.5873
 1194ERGO   ROH15261   3.420   8.710   6.267 -0.1268  0.0054  0.1231
 1194ERGO    R115262   3.575   8.688   6.503 -0.0765 -0.0421  0.0849
 1194ERGO    R215263   3.505   8.812   6.739  0.0461  0.0217  0.0861
 1194ERGO    R315264   3.527   8.561   6.841 -0.0509  0.0231  0.1136
 1194ERGO    R415265   3.510   8.735   7.076 -0.1085  0.0438  0.0950
 1194ERGO    R515266   3.665   8.587   7.035 -0.1234  0.0061  0.1687
 1194ERGO    C115267   3.534   8.454   7.367 -0.2896  0.0581  0.1260
 1194ERGO    C215268   3.624   8.280   7.637 -0.0357 -0.1689  0.0912
 1195ERGO   ROH15269   1.202   4.765   6.315 -0.0981  0.1396 -0.1076
 1195ERGO    R115270   1.178   5.009   6.455  0.1543  0.2246 -0.2101
 1195ERGO    R215271   1.088   5.023   6.716 -0.2335  0.4554 -0.3585
 1195ERGO    R315272   1.321   5.157   6.755 -0.0259  0.0241 -0.0177
 1195ERGO    R415273   1.157   5.224   6.989 -0.3785  0.5067 -0.3574
 1195ERGO    R515274   1.255   5.365   6.854  0.1692  0.2363 -0.2931
 1195ERGO    C115275   1.416   5.467   7.184 -0.2681  0.1318 -0.0367
 1195ERGO    C215276   1.483   5.660   7.440  0.2152 -0.0132 -0.3870
 1196ERGO   ROH15277   8.391   6.408   6.499  0.0763  0.0446  0.0458
 1196ERGO    R115278   8.300   6.284   6.737  0.0821  0.0542  0.0535
 1196ERGO    R215279   8.336   6.015   6.788 -0.0116  0.0311  0.0160
 1196ERGO    R315280   8.450   6.107   7.017  0.0790 -0.0353 -0.0023
 1196ERGO    R415281   8.317   5.857   7.095  0.0846 -0.0345 -0.0115
 1196ERGO    R515282   8.291   6.053   7.188  0.1381 -0.0569  0.0426
 1196ERGO    C115283   8.413   5.852   7.488  0.2257 -0.1350 -0.0447
 1196ERGO    C215284   8.516   5.787   7.773  0.1000  0.1191 -0.2647
 1197ERGO   ROH15285  17.147   4.792   5.988  0.0645 -0.0521 -0.0675
 1197ERGO    R115286  17.172   4.933   6.233 -0.0299 -0.0530 -0.0563
 1197ERGO    R215287  17.004   4.888   6.449  0.0273 -0.2163 -0.0414
 1197ERGO    R315288  17.238   4.848   6.581  0.0766 -0.0317 -0.0714
 1197ERGO    R415289  17.035   4.855   6.791  0.1382  0.1086 -0.0178
 1197ERGO    R515290  17.216   4.976   6.781  0.1031  0.1485 -0.1818
 1197ERGO    C115291  17.273   4.799   7.114  0.2489  0.4711 -0.0323
 1197ERGO    C215292  17.422   4.634   7.337  0.0596 -0.0678  0.1018
 1198ERGO   ROH15293  15.154   2.186   6.251  0.3915 -0.1354  0.0650
 1198ERGO    R115294  15.244   2.243   6.513  0.2487 -0.2107  0.1304
 1198ERGO    R215295  15.074   2.332   6.713  0.1924  0.0262 -0.0232
 1198ERGO    R315296  15.175   2.119   6.848 -0.1784 -0.0828  0.0973
 1198ERGO    R415297  15.036   2.277   7.052  0.0583  0.2661  0.0033
 1198ERGO    R515298  15.243   2.210   7.059 -0.0476 -0.0823  0.0584
 1198ERGO    C115299  15.109   2.046   7.376 -0.3677  0.3034  0.1319
 1198ERGO    C215300  15.097   2.112   7.656 -0.2144 -0.0263  0.1876
 1199ERGO   ROH15301   4.410   7.916   6.314  0.0203  0.1584 -0.0030
 1199ERGO    R115302   4.296   7.879   6.571 -0.0919  0.0131 -0.0726
 1199ERGO    R215303   4.337   7.650   6.720  0.1702  0.0927 -0.0219
 1199ERGO    R315304   4.419   7.827   6.909 -0.2288  0.2477  0.0167
 1199ERGO    R415305   4.314   7.599   7.061  0.4312 -0.1243 -0.0330
 1199ERGO    R515306   4.256   7.808   7.083 -0.1288 -0.2710  0.0747
 1199ERGO    C115307   4.378   7.736   7.437  0.2087 -0.1051 -0.0032
 1199ERGO    C215308   4.329   7.877   7.742  0.0261 -0.0443 -0.1472
 1200ERGO   ROH15309   8.535   9.937   6.324 -0.2283  0.0670 -0.1110
 1200ERGO    R115310   8.379   9.899   6.557 -0.3404  0.1843 -0.1644
 1200ERGO    R215311   8.491   9.868   6.808 -0.4330 -0.1606 -0.1569
 1200ERGO    R315312   8.325  10.074   6.872 -0.1013  0.0870 -0.0679
 1200ERGO    R415313   8.366   9.931   7.124 -0.5161 -0.2343 -0.1752
 1200ERGO    R515314   8.175   9.981   7.033 -0.3737  0.2028 -0.2503
 1200ERGO    C115315   8.138  10.160   7.368 -0.2531 -0.0450 -0.1023
 1200ERGO    C215316   7.985  10.117   7.763  0.0429 -0.0387 -0.3581
 1201ERGO   ROH15317   7.311  13.328   6.227 -0.0092 -0.0950 -0.0832
 1201ERGO    R115318   7.330  13.549   6.402 -0.0287 -0.1175 -0.0527
 1201ERGO    R215319   7.210  13.791   6.350  0.0869 -0.0695 -0.0989
 1201ERGO    R315320   7.100  13.754   6.595 -0.0643 -0.0528 -0.1633
 1201ERGO    R415321   7.153  14.043   6.580  0.1427 -0.0843 -0.0688
 1201ERGO    R515322   7.219  13.907   6.737 -0.0308 -0.1678 -0.0664
 1201ERGO    C115323   7.016  14.155   6.944  0.0332 -0.0772 -0.1117
 1201ERGO    C215324   6.998  14.463   7.118 -0.0993 -0.1632  0.0407
 1202ERGO   ROH15325  17.530   2.292   6.323 -0.1595 -0.0115  0.1994
 1202ERGO    R115326  17.521   2.488   6.527 -0.0434  0.0474  0.1489
 1202ERGO    R215327  17.311   2.508   6.705 -0.0209  0.2032  0.1597
 1202ERGO    R315328  17.509   2.490   6.891 -0.0160  0.1496  0.1495
 1202ERGO    R415329  17.269   2.564   7.043  0.0201  0.2548  0.1563
 1202ERGO    R515330  17.461   2.667   7.045  0.0589  0.1839  0.1336
 1202ERGO    C115331  17.430   2.579   7.415  0.0483  0.2346  0.1448
 1202ERGO    C215332  17.439   2.590   7.768  0.1880 -0.1562 -0.3159
 1203ERGO   ROH15333   2.250  17.157   6.557  0.0982 -0.0670 -0.0237
 1203ERGO    R115334   2.221  17.171   6.838  0.0471 -0.0300 -0.0309
 1203ERGO    R215335   2.169  16.949   6.993 -0.1900  0.0216 -0.0344
 1203ERGO    R315336   2.389  17.031   7.129 -0.1440 -0.1735  0.0133
 1203ERGO    R415337   2.205  16.937   7.337 -0.1674 -0.2606 -0.0440
 1203ERGO    R515338   2.302  17.132   7.328 -0.0875 -0.2913  0.0998
 1203ERGO    C115339   2.432  17.008   7.664 -0.1110 -0.6081 -0.0049
 1203ERGO    C215340   2.609  16.992   7.918  0.3376 -0.1818 -0.1776
 1204ERGO   ROH15341  11.713   5.751   6.349 -0.0911  0.0953  0.0701
 1204ERGO    R115342  11.735   5.582   6.576  0.0377 -0.0085 -0.0180
 1204ERGO    R215343  11.979   5.518   6.690  0.0820  0.2260  0.0294
 1204ERGO    R315344  11.860   5.613   6.916 -0.1168 -0.0446  0.0419
 1204ERGO    R415345  12.108   5.490   7.010  0.0208  0.2502  0.0561
 1204ERGO    R515346  11.908   5.448   7.082  0.0560 -0.0594 -0.0238
 1204ERGO    C115347  12.071   5.562   7.407 -0.2015  0.0101  0.0833
 1204ERGO    C215348  12.038   5.681   7.756  0.2623  0.1112 -0.0578
 1205ERGO   ROH15349   3.182   4.874   6.573  0.0407 -0.0263 -0.0327
 1205ERGO    R115350   3.316   4.818   6.816  0.0113 -0.0806 -0.0293
 1205ERGO    R215351   3.500   4.613   6.841  0.0064 -0.0861 -0.0531
 1205ERGO    R315352   3.660   4.812   6.933 -0.0025 -0.1078  0.0115
 1205ERGO    R415353   3.772   4.567   7.048 -0.1225 -0.1172  0.1123
 1205ERGO    R515354   3.714   4.747   7.157 -0.1466 -0.0883  0.0534
 1205ERGO    C115355   4.082   4.728   7.255 -0.2058 -0.1557  0.2692
 1205ERGO    C215356   4.329   4.692   7.481  0.1563 -0.1022 -0.0464
 1206ERGO   ROH15357  17.728  14.915   6.595  0.1893 -0.1605  0.0371
 1206ERGO    R115358  17.642  14.901   6.865  0.2225 -0.3168  0.0381
 1206ERGO    R215359  17.810  14.825   7.071  0.3647 -0.0223  0.0200
 1206ERGO    R315360  17.731  15.062   7.179 -0.0521 -0.1607  0.0436
 1206ERGO    R415361  17.751  14.881   7.407  0.4180 -0.1422  0.0517
 1206ERGO    R515362  17.579  15.001   7.352  0.1382 -0.4710  0.1230
 1206ERGO    C115363  17.643  15.135   7.704  0.0576 -0.3417  0.0923
 1206ERGO    C215364  17.647  15.007   8.043 -0.2737 -0.0256  0.2226
 1207ERGO   ROH15365  17.603   1.397   6.653  0.0600  0.1728 -0.1111
 1207ERGO    R115366  17.696   1.433   6.918 -0.0356  0.1380 -0.0724
 1207ERGO    R215367  17.565   1.593   7.101 -0.1969 -0.0193 -0.0452
 1207ERGO    R315368  17.570   1.368   7.253 -0.0828 -0.0751 -0.1308
 1207ERGO    R415369  17.510   1.583   7.442 -0.2595 -0.1899 -0.0596
 1207ERGO    R515370  17.670   1.436   7.459 -0.1696 -0.0920 -0.0843
 1207ERGO    C115371  17.482   1.365   7.783 -0.1885 -0.3416 -0.1483
 1207ERGO    C215372  17.456   1.419   8.074  0.0301  0.1600  0.0918
 1208ERGO   ROH15373   0.852   1.698   6.196  0.1142 -0.1967 -0.1564
 1208ERGO    R115374   1.036   1.699   6.411  0.0822 -0.0687 -0.1293
 1208ERGO    R215375   1.015   1.874   6.624  0.0095  0.0111 -0.2012
 1208ERGO    R315376   1.022   1.645   6.771  0.0414  0.0699 -0.1098
 1208ERGO    R415377   1.045   1.861   6.968 -0.4411  0.1629 -0.1497
 1208ERGO    R515378   1.180   1.692   6.945 -0.2371  0.2887  0.0914
 1208ERGO    C115379   1.069   1.639   7.306 -0.6736  0.3065 -0.0338
 1208ERGO    C215380   0.996   1.815   7.559 -0.0974 -0.0146  0.2836
 1209ERGO   ROH15381  17.657   9.248   6.627 -0.1119 -0.3246  0.1034
 1209ERGO    R115382  17.626   9.104   6.869 -0.0734 -0.2525  0.1526
 1209ERGO    R215383  17.796   9.134   7.084  0.0297 -0.2698  0.0775
 1209ERGO    R315384  17.565   9.182   7.219  0.1033 -0.1387  0.1582
 1209ERGO    R415385  17.760   9.113   7.427  0.1302 -0.2539  0.0892
 1209ERGO    R515386  17.565   9.021   7.395  0.0678 -0.1395  0.1545
 1209ERGO    C115387  17.521   9.146   7.753  0.2576 -0.1215  0.1718
 1209ERGO    C215388  17.345   9.364   8.020 -0.2808 -0.0303 -0.0011
 1210ERGO   ROH15389   5.612   9.200   6.312 -0.0095  0.0857  0.1075
 1210ERGO    R115390   5.682   9.035   6.531 -0.0503  0.0201  0.0715
 1210ERGO    R215391   5.852   9.120   6.732 -0.0311 -0.0663  0.0892
 1210ERGO    R315392   5.645   9.048   6.893 -0.0474 -0.0518  0.0753
 1210ERGO    R415393   5.874   9.073   7.074 -0.0232 -0.1887  0.0726
 1210ERGO    R515394   5.743   8.901   7.054 -0.0842 -0.1408  0.0199
 1210ERGO    C115395   5.692   8.979   7.424 -0.0340 -0.2465  0.0498
 1210ERGO    C215396   5.585   8.859   7.776  0.1619 -0.2170 -0.1262
 1211ERGO   ROH15397   6.109   6.199   6.331  0.1212 -0.3394  0.1535
 1211ERGO    R115398   6.196   6.250   6.596  0.1441 -0.1547  0.1115
 1211ERGO    R215399   6.330   6.481   6.667  0.0626 -0.0598 -0.0406
 1211ERGO    R315400   6.131   6.501   6.851  0.0845 -0.0356 -0.0193
 1211ERGO    R415401   6.312   6.724   6.912  0.1471 -0.0896 -0.0047
 1211ERGO    R515402   6.243   6.571   7.051  0.1212 -0.0921 -0.0196
 1211ERGO    C115403   6.116   6.884   7.229  0.2169 -0.0842  0.0363
 1211ERGO    C215404   6.270   7.128   7.246  0.0315 -0.1460 -0.0438
 1212ERGO   ROH15405  15.544   0.083   6.561 -0.3248 -0.3618  0.0743
 1212ERGO    R115406  15.504   0.309   6.726 -0.0484 -0.2434 -0.0140
 1212ERGO    R215407  15.268   0.354   6.862  0.0288  0.0625  0.0307
 1212ERGO    R315408  15.433   0.371   7.078  0.1049 -0.0133 -0.0215
 1212ERGO    R415409  15.252   0.600   7.105  0.1910  0.0419  0.0630
 1212ERGO    R515410  15.470   0.606   7.106  0.1919 -0.0298 -0.0076
 1212ERGO    C115411  15.397   0.758   7.448  0.3568 -0.0411  0.0328
 1212ERGO    C215412  15.506   1.029   7.507 -0.3283  0.0088  0.1614
 1213ERGO   ROH15413   9.220   9.938   5.647 -0.2136  0.1019 -0.0172
 1213ERGO    R115414   9.092   9.889   5.894 -0.0811  0.1672  0.0653
 1213ERGO    R215415   9.180   9.696   6.071 -0.1665  0.0012 -0.0699
 1213ERGO    R315416   9.183   9.904   6.246  0.2123 -0.0578  0.0035
 1213ERGO    R415417   9.048   9.686   6.390 -0.4769  0.2180 -0.1859
 1213ERGO    R515418   8.972   9.888   6.360  0.0602  0.4360 -0.1857
 1213ERGO    C115419   8.974   9.875   6.741 -0.3021  0.2888 -0.1846
 1213ERGO    C215420   9.005   9.726   7.013  0.1388  0.2943  0.0776
 1214ERGO   ROH15421   9.660   6.541   6.549 -0.0059  0.2420 -0.0359
 1214ERGO    R115422   9.443   6.700   6.635 -0.1852 -0.0318  0.0281
 1214ERGO    R215423   9.270   6.620   6.836  0.1561 -0.1255  0.2907
 1214ERGO    R315424   9.339   6.860   6.945 -0.1234  0.1069 -0.0208
 1214ERGO    R415425   9.101   6.776   7.094  0.1544 -0.1475  0.3031
 1214ERGO    R515426   9.130   6.966   6.992 -0.2615 -0.1920  0.0764
 1214ERGO    C115427   9.067   7.092   7.347 -0.1091  0.0579  0.0179
 1214ERGO    C215428   8.860   7.236   7.532  0.4322 -0.3587  0.2141
 1215ERGO   ROH15429   6.925   2.420   6.473 -0.1437 -0.2949  0.1983
 1215ERGO    R115430   7.055   2.558   6.684  0.1867 -0.3656  0.0470
 1215ERGO    R215431   6.921   2.647   6.908  0.3980  0.1635 -0.0232
 1215ERGO    R315432   7.111   2.504   7.039  0.0992 -0.1379  0.0967
 1215ERGO    R415433   6.922   2.586   7.248  0.1327  0.2231 -0.0093
 1215ERGO    R515434   7.138   2.619   7.248  0.1937 -0.1409  0.0865
 1215ERGO    C115435   7.101   2.417   7.569 -0.3023 -0.0251  0.1114
 1215ERGO    C215436   7.157   2.158   7.773 -0.1304  0.0002 -0.2699
 1216ERGO   ROH15437   6.627  15.956   6.041 -0.2760 -0.0447  0.0686
 1216ERGO    R115438   6.785  16.045   6.258 -0.1282 -0.0549 -0.0329
 1216ERGO    R215439   6.789  16.309   6.341 -0.0719 -0.0568 -0.0218
 1216ERGO    R315440   6.726  16.200   6.582  0.0888 -0.0706  0.0149
 1216ERGO    R415441   6.829  16.466   6.646 -0.1629  0.0448 -0.0617
 1216ERGO    R515442   6.898  16.277   6.729  0.0436  0.1306 -0.0370
 1216ERGO    C115443   6.793  16.455   7.050 -0.0650  0.0910 -0.0504
 1216ERGO    C215444   6.855  16.734   7.298 -0.0568 -0.2535  0.0619
 1217ERGO   ROH15445  13.568   0.692   6.442  0.1052 -0.2716 -0.1507
 1217ERGO    R115446  13.584   0.626   6.717  0.0334 -0.1559 -0.1193
 1217ERGO    R215447  13.820   0.553   6.839  0.0054 -0.0604 -0.0192
 1217ERGO    R315448  13.757   0.754   7.010 -0.0819 -0.0053 -0.1136
 1217ERGO    R415449  14.000   0.635   7.123  0.0173  0.1834 -0.0940
 1217ERGO    R515450  13.811   0.668   7.227  0.0096  0.1298 -0.0755
 1217ERGO    C115451  14.045   0.872   7.448 -0.0577  0.3771 -0.2262
 1217ERGO    C215452  14.088   1.162   7.623 -0.1984  0.0424 -0.3081
 1218ERGO   ROH15453  17.903  17.983   6.276 -0.2321 -0.0401 -0.0783
 1218ERGO    R115454  17.800  17.876   6.517  0.0221 -0.0685  0.0212
 1218ERGO    R215455  17.938  17.888   6.756  0.0618  0.3632 -0.0148
 1218ERGO    R315456  17.709  18.005   6.846 -0.1461 -0.0010 -0.0501
 1218ERGO    R415457  17.861  17.944   7.089 -0.0216  0.3529 -0.0321
 1218ERGO    R515458  17.656  17.885   7.046  0.0720 -0.0256 -0.0034
 1218ERGO    C115459  17.602  18.086   7.366 -0.2652  0.0048 -0.0752
 1218ERGO    C215460  17.684  18.141   7.750 -0.1475  0.2492  0.1375
 1219ERGO   ROH15461  18.270   5.571   6.183  0.1159  0.0602  0.0633
 1219ERGO    R115462  18.200   5.616   6.453  0.0874  0.0606  0.0559
 1219ERGO    R215463  18.051   5.435   6.601  0.0704  0.0612  0.0402
 1219ERGO    R315464  18.261   5.453   6.773  0.0528  0.0600  0.0621
 1219ERGO    R415465  18.041   5.348   6.935  0.0620 -0.0247  0.0179
 1219ERGO    R515466  18.163   5.523   6.980  0.0228 -0.0120  0.0718
 1219ERGO    C115467  18.233   5.314   7.291  0.0406 -0.0758  0.0254
 1219ERGO    C215468  18.203   5.361   7.657  0.1707 -0.1558  0.1349
 1220ERGO   ROH15469   5.614   2.929   6.015 -0.2400  0.1139  0.0312
 1220ERGO    R115470   5.435   2.936   6.234 -0.1021 -0.0469  0.1507
 1220ERGO    R215471   5.401   2.722   6.405  0.2101 -0.0742  0.1786
 1220ERGO    R315472   5.459   2.906   6.596  0.1646 -0.0168  0.1389
 1220ERGO    R415473   5.239   2.748   6.709  0.2055 -0.0586  0.1757
 1220ERGO    R515474   5.245   2.965   6.688  0.1459 -0.0569  0.1292
 1220ERGO    C115475   5.199   2.936   7.066  0.1602  0.0042  0.1368
 1220ERGO    C215476   5.117   2.993   7.411  0.1039  0.3567 -0.0458
 1221ERGO   ROH15477   6.690   4.383   6.744 -0.0083  0.3951 -0.1869
 1221ERGO    R115478   6.654   4.399   7.025 -0.1663  0.1976 -0.1925
 1221ERGO    R215479   6.862   4.364   7.203 -0.2761  0.0040 -0.0915
 1221ERGO    R315480   6.781   4.606   7.296 -0.2589 -0.0388  0.0335
 1221ERGO    R415481   6.842   4.450   7.537 -0.0709 -0.0886 -0.0542
 1221ERGO    R515482   6.655   4.554   7.493 -0.1159 -0.1124  0.1020
 1221ERGO    C115483   6.753   4.727   7.819  0.0647 -0.1827  0.0848
 1221ERGO    C215484   6.672   4.954   8.076 -0.1242 -0.0246  0.0333
 1222ERGO   ROH15485  17.631   8.541   6.613  0.3205  0.2937 -0.0606
 1222ERGO    R115486  17.719   8.492   6.878 -0.0009  0.2088  0.0358
 1222ERGO    R215487  17.934   8.625   6.990  0.1430 -0.1336  0.1903
 1222ERGO    R315488  17.753   8.684   7.185  0.0611  0.2396  0.0081
 1222ERGO    R415489  18.014   8.692   7.319 -0.0559 -0.3363  0.2828
 1222ERGO    R515490  17.840   8.577   7.381 -0.3762  0.0326  0.0945
 1222ERGO    C115491  17.892   8.788   7.694 -0.2482 -0.1040  0.1656
 1222ERGO    C215492  18.056   9.011   7.848 -0.0334  0.3669 -0.0682
 1223ERGO   ROH15493   9.698   4.579   6.469  0.0108  0.3023 -0.1734
 1223ERGO    R115494   9.665   4.775   6.671 -0.2294  0.1481 -0.0581
 1223ERGO    R215495   9.523   4.727   6.903 -0.0282 -0.2228 -0.0028
 1223ERGO    R315496   9.753   4.809   7.023 -0.1018  0.1225 -0.0875
 1223ERGO    R415497   9.538   4.915   7.192 -0.2005 -0.2470  0.0230
 1223ERGO    R515498   9.702   5.029   7.103 -0.4155  0.0317 -0.0279
 1223ERGO    C115499   9.763   5.102   7.473 -0.3699  0.0631 -0.0414
 1223ERGO    C215500   9.620   5.174   7.870  0.1444  0.0754 -0.0677
 1224ERGO   ROH15501   7.303   7.421   6.250 -0.2255  0.1028 -0.0081
 1224ERGO    R115502   7.214   7.445   6.518 -0.0795  0.1675  0.0356
 1224ERGO    R215503   7.139   7.227   6.670 -0.1860  0.2224  0.0649
 1224ERGO    R315504   7.323   7.326   6.844 -0.0206  0.0684 -0.0203
 1224ERGO    R415505   7.185   7.114   6.993  0.0585  0.0039 -0.0427
 1224ERGO    R515506   7.213   7.321   7.056  0.1547 -0.0437  0.0696
 1224ERGO    C115507   7.385   7.141   7.344  0.3561 -0.2678 -0.1855
 1224ERGO    C215508   7.464   7.212   7.607 -0.0526 -0.2915 -0.2054
 1225ERGO   ROH15509   0.278  17.297   6.393 -0.3590 -0.3186 -0.0062
 1225ERGO    R115510   0.167  17.352   6.648 -0.2630 -0.2682  0.0252
 1225ERGO    R215511   0.212  17.190   6.868 -0.0359 -0.1294  0.0846
 1225ERGO    R315512   0.294  17.423   6.981 -0.1345 -0.0146 -0.0745
 1225ERGO    R415513   0.258  17.239   7.207  0.2028  0.0378  0.0305
 1225ERGO    R515514   0.170  17.437   7.185  0.0190 -0.0416  0.0236
 1225ERGO    C115515   0.362  17.486   7.511  0.2492  0.2428 -0.1504
 1225ERGO    C215516   0.658  17.360   7.600 -0.1313 -0.0844 -0.3462
 1226ERGO   ROH15517  14.005   5.743   6.255 -0.2839  0.2890 -0.0730
 1226ERGO    R115518  13.900   5.701   6.515 -0.1108  0.3177  0.0030
 1226ERGO    R215519  13.948   5.470   6.660 -0.2285  0.2207 -0.1114
 1226ERGO    R315520  14.035   5.645   6.848  0.1138  0.0732 -0.1246
 1226ERGO    R415521  14.042   5.383   6.981 -0.3684  0.0541 -0.1143
 1226ERGO    R515522  13.941   5.563   7.053 -0.0321  0.2530 -0.1153
 1226ERGO    C115523  14.177   5.497   7.345 -0.1284 -0.1815 -0.1282
 1226ERGO    C215524  14.258   5.340   7.564 -0.1158 -0.2427 -0.1459
 1227ERGO   ROH15525  10.075  16.211   5.829 -0.0148 -0.1370  0.1568
 1227ERGO    R115526  10.164  15.948   5.888 -0.1705 -0.1686  0.2508
 1227ERGO    R215527   9.991  15.733   5.907 -0.2430 -0.1500 -0.1903
 1227ERGO    R315528  10.159  15.624   5.723  0.1361 -0.1108  0.1175
 1227ERGO    R415529  10.019  15.395   5.841 -0.3882 -0.1164 -0.4415
 1227ERGO    R515530  10.234  15.421   5.825 -0.3017 -0.2837  0.1311
 1227ERGO    C115531  10.192  15.096   5.630 -0.1168 -0.0604 -0.2988
 1227ERGO    C215532   9.931  14.894   5.526  0.0443  0.0420 -0.1424
 1228ERGO   ROH15533  13.920   8.923   6.194  0.1607  0.2188 -0.0316
 1228ERGO    R115534  13.958   8.715   6.383 -0.0580  0.1624 -0.0471
 1228ERGO    R215535  14.167   8.715   6.565  0.0005 -0.1173 -0.1083
 1228ERGO    R315536  13.966   8.686   6.745  0.0115  0.1473 -0.0500
 1228ERGO    R415537  14.208   8.707   6.908  0.0881 -0.1645 -0.1202
 1228ERGO    R515538  14.059   8.549   6.917 -0.1168  0.0276 -0.0750
 1228ERGO    C115539  14.044   8.675   7.277  0.1495  0.0565 -0.0723
 1228ERGO    C215540  13.856   8.804   7.524  0.1873 -0.2370  0.1882
 1229ERGO   ROH15541   8.519   1.850   6.367 -0.1748 -0.0855  0.1782
 1229ERGO    R115542   8.673   1.705   6.555 -0.0742  0.0039  0.1663
 1229ERGO    R215543   8.654   1.749   6.828 -0.0329  0.0351  0.1673
 1229ERGO    R315544   8.608   1.481   6.834  0.0757  0.0173  0.2122
 1229ERGO    R415545   8.715   1.544   7.099 -0.1569  0.1397  0.2748
 1229ERGO    R515546   8.789   1.392   6.962  0.0130  0.1304  0.3791
 1229ERGO    C115547   8.707   1.173   7.264 -0.1271  0.1839  0.3795
 1229ERGO    C215548   8.890   1.069   7.485 -0.2135 -0.3067 -0.0551
 1230ERGO   ROH15549  15.995   6.718   6.322  0.1844  0.2597  0.1467
 1230ERGO    R115550  16.112   6.718   6.580  0.1066  0.0298  0.1832
 1230ERGO    R215551  15.998   6.849   6.795  0.2164  0.1224  0.1811
 1230ERGO    R315552  16.017   6.605   6.913 -0.1469  0.0604  0.1249
 1230ERGO    R415553  15.990   6.794   7.136  0.1949  0.0724  0.1729
 1230ERGO    R515554  16.147   6.645   7.111 -0.0391 -0.1791  0.1105
 1230ERGO    C115555  16.003   6.533   7.446 -0.1587 -0.0149  0.1153
 1230ERGO    C215556  15.858   6.372   7.751 -0.1652  0.0310  0.1718
 1231ERGO   ROH15557  12.473   0.024   5.891 -0.0030  0.0477  0.0539
 1231ERGO    R115558  12.251   0.037   6.066 -0.1646 -0.0986 -0.1324
 1231ERGO    R215559  12.100  -0.185   6.133  0.1580 -0.2826  0.0442
 1231ERGO    R315560  12.158  -0.107   6.387 -0.1505  0.1599 -0.0132
 1231ERGO    R415561  11.950  -0.311   6.418  0.3249 -0.3088  0.1192
 1231ERGO    R515562  11.947  -0.109   6.500 -0.2019 -0.2143 -0.1178
 1231ERGO    C115563  11.917  -0.311   6.822  0.1322  0.0913  0.1091
 1231ERGO    C215564  11.823  -0.279   7.154 -0.0181  0.0234 -0.2358
 1232ERGO   ROH15565   1.572  10.977   6.820  0.3368  0.1102 -0.2355
 1232ERGO    R115566   1.634  10.856   7.068  0.1615  0.1473 -0.1730
 1232ERGO    R215567   1.840  10.943   7.229  0.0749  0.1414 -0.0630
 1232ERGO    R315568   1.644  10.959   7.417 -0.0372  0.2109 -0.1836
 1232ERGO    R415569   1.893  10.981   7.569 -0.1109  0.0248 -0.0191
 1232ERGO    R515570   1.732  10.840   7.605 -0.2226  0.1085 -0.1557
 1232ERGO    C115571   1.740  11.018   7.942 -0.3245  0.0223 -0.1066
 1232ERGO    C215572   1.621  11.315   8.210  0.1175 -0.0438 -0.0097
 1233ERGO   ROH15573  13.546   5.761   6.165 -0.2299 -0.2579 -0.1061
 1233ERGO    R115574  13.420   5.748   6.418 -0.0809  0.0471 -0.0126
 1233ERGO    R215575  13.416   5.519   6.571 -0.2768  0.1362  0.1142
 1233ERGO    R315576  13.521   5.682   6.762  0.0608  0.1091 -0.0408
 1233ERGO    R415577  13.455   5.434   6.904 -0.2461  0.2892  0.1508
 1233ERGO    R515578  13.391   5.636   6.958  0.0782  0.4273  0.0540
 1233ERGO    C115579  13.576   5.539   7.277  0.0886  0.3529  0.0266
 1233ERGO    C215580  13.719   5.474   7.519  0.2083 -0.1055 -0.0797
 1234ERGO   ROH15581  12.874  16.800   6.003 -0.0405 -0.1397  0.1461
 1234ERGO    R115582  13.057  16.773   6.218 -0.0919 -0.1089  0.1937
 1234ERGO    R215583  12.978  16.697   6.472 -0.1297 -0.2353  0.1435
 1234ERGO    R315584  13.167  16.505   6.439 -0.0120 -0.1207  0.1409
 1234ERGO    R415585  13.185  16.579   6.722 -0.0471 -0.0995  0.1409
 1234ERGO    R515586  13.349  16.576   6.579 -0.0490 -0.0025  0.1328
 1234ERGO    C115587  13.483  16.329   6.837  0.1116  0.0873  0.1368
 1234ERGO    C215588  13.657  16.150   6.979 -0.1767  0.1463  0.0217
 1235ERGO   ROH15589   9.643  16.021   5.872 -0.0193  0.0141 -0.0478
 1235ERGO    R115590   9.767  16.066   6.123 -0.0627 -0.0139 -0.0208
 1235ERGO    R215591   9.736  15.895   6.337 -0.0840 -0.0491 -0.0504
 1235ERGO    R315592  10.008  15.894   6.333 -0.0835 -0.0275 -0.0089
 1235ERGO    R415593   9.937  15.795   6.600 -0.1138 -0.0268 -0.0192
 1235ERGO    R515594  10.071  15.961   6.555 -0.1212 -0.0182 -0.0021
 1235ERGO    C115595  10.308  15.735   6.750 -0.1308  0.0065  0.0380
 1235ERGO    C215596  10.460  15.758   7.067  0.2115  0.1094 -0.1652
 1236ERGO   ROH15597   5.134   7.743   6.302  0.0798 -0.0159  0.0316
 1236ERGO    R115598   5.309   7.742   6.524  0.0418  0.0746  0.0639
 1236ERGO    R215599   5.288   7.922   6.733 -0.1059  0.0485  0.0767
 1236ERGO    R315600   5.280   7.696   6.884  0.0016  0.0300  0.0541
 1236ERGO    R415601   5.368   7.906   7.068  0.0756  0.0122  0.0320
 1236ERGO    R515602   5.468   7.716   7.030  0.0760  0.0308 -0.0442
 1236ERGO    C115603   5.407   7.685   7.406  0.2822 -0.0263 -0.0153
 1236ERGO    C215604   5.267   7.762   7.665 -0.1279  0.0584  0.0737
 1237ERGO   ROH15605   0.501  14.049   6.649  0.1149 -0.0278  0.0097
 1237ERGO    R115606   0.439  14.121   6.915  0.0978 -0.1054  0.0266
 1237ERGO    R215607   0.619  14.093   7.123  0.1907  0.1125 -0.0248
 1237ERGO    R315608   0.567  14.357   7.161 -0.1226  0.0522 -0.0056
 1237ERGO    R415609   0.635  14.255   7.428  0.2834  0.1625 -0.0552
 1237ERGO    R515610   0.455  14.365   7.373  0.0747 -0.0789  0.1095
 1237ERGO    C115611   0.595  14.597   7.642  0.0433  0.1349 -0.0549
 1237ERGO    C215612   0.520  14.801   7.957  0.2008  0.1672  0.0888
 1238ERGO   ROH15613   7.850  12.033   6.255  0.2529 -0.3707 -0.0885
 1238ERGO    R115614   7.754  12.142   6.498 -0.0270 -0.3253 -0.2141
 1238ERGO    R215615   7.639  11.986   6.695  0.0996 -0.3527 -0.1509
 1238ERGO    R315616   7.827  12.103   6.852 -0.1376  0.0428 -0.1489
 1238ERGO    R415617   7.671  11.937   7.036  0.1944 -0.2577 -0.1466
 1238ERGO    R515618   7.714  12.149   7.058 -0.2354 -0.1689 -0.1596
 1238ERGO    C115619   7.867  12.018   7.381  0.0268  0.1690 -0.1422
 1238ERGO    C215620   7.885  11.896   7.581 -0.2666 -0.0356  0.0608
 1239ERGO   ROH15621   2.289   4.255   6.231 -0.0950  0.2590 -0.0208
 1239ERGO    R115622   2.137   4.100   6.413 -0.0351  0.1712 -0.0443
 1239ERGO    R215623   2.112   4.168   6.680  0.0463  0.0469 -0.0031
 1239ERGO    R315624   1.846   4.153   6.625  0.0301  0.0682  0.0712
 1239ERGO    R415625   1.860   4.183   6.916  0.1159  0.0185  0.0735
 1239ERGO    R515626   1.755   4.027   6.807  0.0775  0.0416  0.0771
 1239ERGO    C115627   1.464   4.179   7.002  0.1411  0.0220  0.1878
 1239ERGO    C215628   1.348   4.309   7.300  0.0172 -0.1691  0.2233
 1240ERGO   ROH15629   8.346  11.798   6.211 -0.1380  0.0974  0.0229
 1240ERGO    R115630   8.416  11.938   6.447 -0.1119  0.1443 -0.0123
 1240ERGO    R215631   8.252  12.127   6.562 -0.1661  0.0611  0.0501
 1240ERGO    R315632   8.282  11.972   6.783  0.0117  0.0841  0.0437
 1240ERGO    R415633   8.266  12.247   6.886 -0.3463  0.0589  0.0597
 1240ERGO    R515634   8.423  12.101   6.927 -0.1637  0.2553  0.0648
 1240ERGO    C115635   8.302  12.170   7.282 -0.2844  0.0791  0.0591
 1240ERGO    C215636   8.225  12.364   7.487  0.1010 -0.1182 -0.3375
 1241ERGO   ROH15637   7.572  17.581   5.565  0.0799  0.0362 -0.0270
 1241ERGO    R115638   7.455  17.544   5.820  0.0964 -0.0303 -0.0291
 1241ERGO    R215639   7.524  17.335   5.987  0.2041  0.0039 -0.0338
 1241ERGO    R315640   7.571  17.534   6.166  0.0966  0.0235 -0.0267
 1241ERGO    R415641   7.635  17.287   6.311  0.4059  0.0541 -0.0937
 1241ERGO    R515642   7.497  17.444   6.375  0.2810 -0.0850 -0.0043
 1241ERGO    C115643   7.743  17.446   6.667  0.4223  0.1016 -0.1220
 1241ERGO    C215644   7.850  17.420   7.013  0.0513 -0.0925 -0.0479
 1242ERGO   ROH15645   8.664  15.271   5.435  0.1145 -0.1773  0.0734
 1242ERGO    R115646   8.731  15.240   5.708  0.0569  0.0675  0.1194
 1242ERGO    R215647   8.980  15.149   5.791 -0.0586 -0.1669  0.2438
 1242ERGO    R315648   8.978  15.379   5.936  0.2326  0.0249 -0.0459
 1242ERGO    R415649   9.135  15.191   6.097  0.0790  0.0742  0.1421
 1242ERGO    R515650   8.963  15.306   6.164  0.2275  0.3409  0.0535
 1242ERGO    C115651   9.225  15.431   6.411  0.4324  0.3946 -0.1890
 1242ERGO    C215652   9.439  15.541   6.688  0.2402  0.1613  0.0904
 1243ERGO   ROH15653   4.594   1.954   6.353 -0.3352  0.1528  0.0167
 1243ERGO    R115654   4.463   1.849   6.581 -0.2495  0.1049  0.0447
 1243ERGO    R215655   4.599   1.719   6.784 -0.1933 -0.0817 -0.1071
 1243ERGO    R315656   4.476   1.904   6.941  0.0107 -0.0931  0.0667
 1243ERGO    R415657   4.562   1.694   7.127  0.0448 -0.2045 -0.0885
 1243ERGO    R515658   4.361   1.774   7.106  0.0724 -0.1019  0.0967
 1243ERGO    C115659   4.426   1.853   7.474  0.3750 -0.2868  0.0855
 1243ERGO    C215660   4.285   1.916   7.686 -0.0726  0.2137 -0.6258
 1244ERGO   ROH15661  16.155  10.049   6.439 -0.0680  0.0052 -0.0297
 1244ERGO    R115662  15.917  10.055   6.592 -0.0344 -0.3361  0.0440
 1244ERGO    R215663  15.890   9.916   6.830  0.3925 -0.0589  0.2692
 1244ERGO    R315664  15.822  10.160   6.927 -0.1561 -0.0572 -0.0753
 1244ERGO    R415665  15.757   9.973   7.144  0.5612  0.1065  0.3118
 1244ERGO    R515666  15.623  10.120   7.055  0.0681 -0.3842  0.1896
 1244ERGO    C115667  15.616  10.236   7.418  0.1444  0.2044  0.0132
 1244ERGO    C215668  15.537  10.321   7.780  0.0994 -0.0038  0.0881
 1245ERGO   ROH15669  17.487   3.362   6.411  0.1629  0.2053  0.1775
 1245ERGO    R115670  17.413   3.546   6.613 -0.0093  0.0758  0.2344
 1245ERGO    R215671  17.164   3.664   6.622 -0.0361  0.0293  0.1282
 1245ERGO    R315672  17.160   3.564   6.875 -0.1980 -0.1197  0.0692
 1245ERGO    R415673  17.028   3.826   6.896  0.2374  0.0935  0.2287
 1245ERGO    R515674  17.198   3.755   7.014  0.1255 -0.2622  0.1858
 1245ERGO    C115675  16.946   3.826   7.292  0.2445 -0.0089  0.2319
 1245ERGO    C215676  16.958   3.757   7.635 -0.1670 -0.5262  0.3460
 1246ERGO   ROH15677  10.726   6.342   6.174 -0.2720 -0.0749  0.0333
 1246ERGO    R115678  10.674   6.255   6.439 -0.2182  0.1092  0.1049
 1246ERGO    R215679  10.875   6.180   6.614 -0.1997  0.0199  0.0379
 1246ERGO    R315680  10.759   6.366   6.774  0.0492  0.2060  0.0097
 1246ERGO    R415681  10.943   6.221   6.950 -0.3403 -0.2246  0.0985
 1246ERGO    R515682  10.731   6.254   6.984 -0.3138  0.1840 -0.0400
 1246ERGO    C115683  10.873   6.419   7.297 -0.1884 -0.1922  0.1073
 1246ERGO    C215684  10.991   6.393   7.625 -0.3247 -0.1359  0.2824
 1247ERGO   ROH15685  12.181  12.781   6.090 -0.0743  0.1136  0.0546
 1247ERGO    R115686  12.122  12.857   6.356 -0.0302  0.0675  0.0782
 1247ERGO    R215687  12.084  12.672   6.559 -0.1332  0.0257  0.0262
 1247ERGO    R315688  12.278  12.817   6.683 -0.0487 -0.1193  0.0639
 1247ERGO    R415689  12.072  12.779   6.887 -0.2311  0.2602 -0.0522
 1247ERGO    R515690  12.158  12.969   6.824  0.0342  0.1160 -0.1184
 1247ERGO    C115691  12.246  12.977   7.195 -0.2087  0.2606 -0.0624
 1247ERGO    C215692  12.301  13.063   7.487 -0.2653 -0.2127 -0.1283
 1248ERGO   ROH15693  15.267   9.113   6.454 -0.1074  0.1299 -0.0052
 1248ERGO    R115694  15.250   9.185   6.727 -0.0973  0.0221  0.0243
 1248ERGO    R215695  15.009   9.210   6.860 -0.0949  0.0350  0.0262
 1248ERGO    R315696  15.122   9.034   7.033 -0.1509 -0.0680 -0.0419
 1248ERGO    R415697  14.915   9.170   7.190  0.1727  0.2470  0.1320
 1248ERGO    R515698  15.126   9.150   7.242  0.2056 -0.0125 -0.0716
 1248ERGO    C115699  14.967   8.980   7.545  0.2759  0.2736  0.1297
 1248ERGO    C215700  14.882   8.661   7.769  0.0433  0.2305 -0.0204
 1249ERGO   ROH15701  12.479   6.144   6.201 -0.2077  0.0093  0.0786
 1249ERGO    R115702  12.640   6.203   6.426 -0.1738 -0.0005  0.0563
 1249ERGO    R215703  12.560   6.379   6.624 -0.1839 -0.0806  0.1204
 1249ERGO    R315704  12.612   6.167   6.787 -0.0766 -0.1073  0.0546
 1249ERGO    R415705  12.687   6.403   6.945 -0.1335 -0.1184  0.1042
 1249ERGO    R515706  12.812   6.229   6.904 -0.0760 -0.0637  0.0339
 1249ERGO    C115707  12.809   6.219   7.285 -0.0034 -0.1654  0.0330
 1249ERGO    C215708  12.822   6.120   7.580 -0.1083  0.0938  0.1244
 1250ERGO   ROH15709   5.988   5.824   6.580  0.0731  0.0640 -0.1390
 1250ERGO    R115710   5.943   5.874   6.855  0.0061 -0.0129 -0.1356
 1250ERGO    R215711   5.981   6.122   6.971  0.0913 -0.0713 -0.0319
 1250ERGO    R315712   5.724   6.088   7.053  0.0461  0.0243 -0.1329
 1250ERGO    R415713   5.781   6.370   7.105  0.1187  0.0048 -0.1303
 1250ERGO    R515714   5.705   6.224   7.248  0.0114  0.0432 -0.1520
 1250ERGO    C115715   5.424   6.482   7.261  0.0923  0.1387 -0.2823
 1250ERGO    C215716   5.200   6.787   7.488 -0.0263 -0.2451 -0.2642
 1251ERGO   ROH15717  14.761  11.953   6.100 -0.2930  0.0816  0.1477
 1251ERGO    R115718  14.718  11.792   6.330 -0.1662  0.0323  0.1379
 1251ERGO    R215719  14.719  11.516   6.321 -0.1120  0.0327  0.0898
 1251ERGO    R315720  14.906  11.543   6.516 -0.0375  0.0387  0.0176
 1251ERGO    R415721  14.775  11.288   6.574 -0.1330  0.1246  0.1777
 1251ERGO    R515722  14.802  11.454   6.712 -0.0142  0.1762  0.0925
 1251ERGO    C115723  14.984  11.180   6.905 -0.0754  0.1838  0.1611
 1251ERGO    C215724  15.112  11.133   7.231 -0.4313  0.0323 -0.0782
 1252ERGO   ROH15725  17.660  12.870   6.756 -0.0308  0.0868 -0.0520
 1252ERGO    R115726  17.551  12.866   7.018 -0.0588 -0.0131 -0.0647
 1252ERGO    R215727  17.508  13.096   7.165  0.0415 -0.0760  0.0676
 1252ERGO    R315728  17.255  12.998   7.183 -0.0096  0.0382 -0.0177
 1252ERGO    R415729  17.298  13.141   7.436  0.0295 -0.1238  0.0661
 1252ERGO    R515730  17.233  12.934   7.413 -0.0700 -0.0784 -0.0564
 1252ERGO    C115731  16.939  13.076   7.611 -0.0254 -0.0443 -0.0148
 1252ERGO    C215732  16.896  13.376   7.816 -0.1792 -0.2502  0.1043
 1253ERGO   ROH15733  15.242   4.711   7.100  0.2008 -0.1284 -0.2128
 1253ERGO    R115734  15.242   4.624   7.370  0.0532 -0.1199 -0.2069
 1253ERGO    R215735  15.475   4.573   7.510 -0.0165 -0.1839 -0.0924
 1253ERGO    R315736  15.369   4.749   7.687 -0.0527 -0.1407 -0.1595
 1253ERGO    R415737  15.523   4.562   7.852 -0.0495 -0.0467 -0.0844
 1253ERGO    R515738  15.313   4.616   7.878 -0.0483 -0.0699 -0.1183
 1253ERGO    C115739  15.451   4.721   8.218 -0.1026  0.0737 -0.1428
 1253ERGO    C215740  15.557   4.743   8.480 -0.1193  0.0512 -0.1254
 1254ERGO   ROH15741  15.190   5.232   6.025  0.2187  0.1361  0.1313
 1254ERGO    R115742  15.085   5.281   6.283  0.0952  0.1281  0.0830
 1254ERGO    R215743  15.232   5.406   6.482  0.0097  0.0974  0.1640
 1254ERGO    R315744  15.017   5.572   6.490  0.0228  0.1202  0.0711
 1254ERGO    R415745  15.139   5.596   6.755 -0.0452  0.1664  0.0983
 1254ERGO    R515746  14.931   5.548   6.712 -0.0388  0.1767  0.0539
 1254ERGO    C115747  14.883   5.863   6.921 -0.0650  0.2279 -0.0271
 1254ERGO    C215748  14.859   5.974   7.159 -0.1584  0.4091 -0.2810
 1255ERGO   ROH15749   0.467  10.210   6.737  0.1371  0.2043 -0.0345
 1255ERGO    R115750   0.464  10.280   7.011 -0.1852  0.1106 -0.0088
 1255ERGO    R215751   0.298  10.156   7.194 -0.0612 -0.3015 -0.1523
 1255ERGO    R315752   0.531  10.112   7.327 -0.0420  0.1332 -0.0294
 1255ERGO    R415753   0.321  10.040   7.519  0.0021 -0.3000 -0.1570
 1255ERGO    R515754   0.484  10.180   7.552 -0.2893  0.0130 -0.0480
 1255ERGO    C115755   0.553   9.931   7.832  0.0571  0.1091 -0.0444
 1255ERGO    C215756   0.678   9.736   8.167 -0.0535  0.0976 -0.2114
 1256ERGO   ROH15757   7.140   2.780   6.276  0.1697 -0.0082 -0.0240
 1256ERGO    R115758   7.272   2.916   6.486  0.1880 -0.0300 -0.0221
 1256ERGO    R215759   7.140   3.002   6.713  0.2006 -0.0063 -0.0266
 1256ERGO    R315760   7.333   2.858   6.840  0.1717 -0.0355 -0.0202
 1256ERGO    R415761   7.221   3.031   7.048  0.2737  0.0703 -0.0500
 1256ERGO    R515762   7.431   3.013   6.994  0.2564 -0.0220 -0.0859
 1256ERGO    C115763   7.449   2.913   7.362  0.2890  0.0875 -0.0576
 1256ERGO    C215764   7.614   2.820   7.749  0.0714  0.0835  0.3123
 1257ERGO   ROH15765  10.120   0.409   6.290 -0.0523 -0.0192 -0.1098
 1257ERGO    R115766  10.046   0.387   6.562  0.2023 -0.0582 -0.0408
 1257ERGO    R215767   9.784   0.410   6.648  0.3096  0.2040  0.2406
 1257ERGO    R315768   9.834   0.168   6.761  0.1542  0.0913  0.0737
 1257ERGO    R415769   9.587   0.260   6.889  0.1945  0.1440  0.1105
 1257ERGO    R515770   9.768   0.195   6.990  0.1444 -0.0356  0.0855
 1257ERGO    C115771   9.519  -0.054   7.136 -0.0184  0.0033 -0.1221
 1257ERGO    C215772   9.297  -0.360   7.314  0.0132 -0.1618 -0.2086
 1258ERGO   ROH15773  10.242   8.487   8.129  0.1429 -0.0455  0.2799
 1258ERGO    R115774  10.250   8.740   8.003 -0.0098 -0.1308  0.0929
 1258ERGO    R215775  10.419   8.943   8.087 -0.2365  0.0849  0.0412
 1258ERGO    R315776  10.498   8.940   7.828 -0.0828 -0.0442  0.0883
 1258ERGO    R415777  10.601   9.193   7.934 -0.2591  0.0690 -0.0118
 1258ERGO    R515778  10.478   9.168   7.756 -0.1438 -0.0988 -0.0690
 1258ERGO    C115779  10.783   9.336   7.600 -0.1280 -0.0616  0.0015
 1258ERGO    C215780  10.971   9.706   7.518  0.1886  0.1325 -0.0993
 1259ERGO   ROH15781  15.464   1.762   6.299  0.2042 -0.0232  0.0411
 1259ERGO    R115782  15.420   1.806   6.575  0.1269 -0.0439  0.0320
 1259ERGO    R215783  15.215   1.684   6.714  0.1217 -0.0965 -0.0228
 1259ERGO    R315784  15.417   1.605   6.878  0.1002 -0.0557  0.0240
 1259ERGO    R415785  15.190   1.656   7.058  0.0423 -0.1190 -0.0299
 1259ERGO    R515786  15.391   1.741   7.074  0.0184 -0.0712  0.0245
 1259ERGO    C115787  15.366   1.566   7.412 -0.0241 -0.0939  0.0099
 1259ERGO    C215788  15.505   1.511   7.670  0.5249 -0.0158 -0.0180
 1260ERGO   ROH15789   6.060   8.639   5.700  0.0850 -0.0046  0.1590
 1260ERGO    R115790   6.244   8.527   5.884  0.1932  0.1009  0.1165
 1260ERGO    R215791   6.402   8.682   6.049  0.0092  0.1923  0.2083
 1260ERGO    R315792   6.291   8.530   6.245  0.1589 -0.0325  0.1235
 1260ERGO    R415793   6.556   8.603   6.348  0.0482  0.2834  0.2127
 1260ERGO    R515794   6.474   8.401   6.331  0.3153  0.1743  0.1149
 1260ERGO    C115795   6.541   8.414   6.707  0.2115  0.1254  0.1355
 1260ERGO    C215796   6.634   8.463   7.075 -0.0766 -0.2796  0.0441
 1261ERGO   ROH15797  12.551   7.199   6.239  0.2667 -0.0699  0.1760
 1261ERGO    R115798  12.540   7.377   6.459  0.1780 -0.0843  0.1819
 1261ERGO    R215799  12.306   7.499   6.540  0.1663 -0.0199  0.0351
 1261ERGO    R315800  12.369   7.389   6.780 -0.0281 -0.0535  0.0741
 1261ERGO    R415801  12.110   7.520   6.824 -0.1253 -0.1501 -0.1502
 1261ERGO    R515802  12.292   7.549   6.941 -0.2435 -0.1115  0.0371
 1261ERGO    C115803  12.055   7.429   7.215 -0.4776 -0.2575 -0.2216
 1261ERGO    C215804  11.999   7.258   7.594  0.3156 -0.3325  0.0636
 1262ERGO   ROH15805  16.477   5.614   6.351  0.1236 -0.1759 -0.0123
 1262ERGO    R115806  16.581   5.601   6.614 -0.1081 -0.1539  0.0854
 1262ERGO    R215807  16.679   5.822   6.746  0.1553 -0.2004  0.0071
 1262ERGO    R315808  16.501   5.748   6.937 -0.1410  0.2246 -0.0952
 1262ERGO    R415809  16.741   5.826   7.086  0.0783 -0.6801  0.0308
 1262ERGO    R515810  16.633   5.637   7.103 -0.5454 -0.3480 -0.1438
 1262ERGO    C115811  16.609   5.759   7.463 -0.2444 -0.5605 -0.0515
 1262ERGO    C215812  16.501   5.629   7.726 -0.0799 -0.0053  0.1645
 1263ERGO   ROH15813   5.953   5.117   7.095 -0.3238 -0.2454 -0.2008
 1263ERGO    R115814   5.954   5.123   7.379 -0.1466 -0.2430 -0.2002
 1263ERGO    R215815   5.739   5.218   7.526 -0.0089 -0.1355 -0.0693
 1263ERGO    R315816   5.757   4.975   7.646 -0.0566 -0.1429 -0.0761
 1263ERGO    R415817   5.677   5.157   7.860 -0.2449 -0.1667 -0.1171
 1263ERGO    R515818   5.847   5.021   7.863 -0.2207 -0.1410 -0.0043
 1263ERGO    C115819   5.657   4.893   8.168 -0.4270 -0.1919 -0.1514
 1263ERGO    C215820   5.458   4.922   8.449 -0.1949  0.1946  0.1798
 1264ERGO   ROH15821   8.249   9.070   6.308 -0.3459 -0.0490 -0.1034
 1264ERGO    R115822   8.285   8.916   6.542  0.0757  0.0032 -0.1247
 1264ERGO    R215823   8.495   8.957   6.716  0.0833  0.4237 -0.2152
 1264ERGO    R315824   8.297   8.979   6.901  0.1109  0.0125 -0.1283
 1264ERGO    R415825   8.543   8.945   7.058  0.2583  0.5054 -0.2368
 1264ERGO    R515826   8.360   8.826   7.074  0.5011  0.1292 -0.1600
 1264ERGO    C115827   8.385   8.959   7.431  0.3860  0.1670 -0.1678
 1264ERGO    C215828   8.353   8.884   7.838 -0.2391  0.2077 -0.0708
 1265ERGO   ROH15829  18.373   1.652   6.473 -0.1535 -0.0344  0.0511
 1265ERGO    R115830  18.539   1.644   6.702 -0.1217  0.0378  0.0309
 1265ERGO    R215831  18.470   1.764   6.940 -0.1838 -0.0644  0.0651
 1265ERGO    R315832  18.516   1.516   7.042  0.0092 -0.0539  0.0063
 1265ERGO    R415833  18.572   1.699   7.264 -0.2706 -0.0658  0.0921
 1265ERGO    R515834  18.705   1.545   7.186 -0.0834  0.0858  0.1033
 1265ERGO    C115835  18.675   1.428   7.548 -0.1398 -0.0567  0.0528
 1265ERGO    C215836  18.844   1.391   7.912  0.0326  0.0373 -0.1745
 1266ERGO   ROH15837   2.094  11.849   6.536  0.2101 -0.0589  0.0187
 1266ERGO    R115838   2.172  11.891   6.805  0.1446 -0.0593  0.0375
 1266ERGO    R215839   2.212  11.682   6.983  0.0570 -0.0562  0.0584
 1266ERGO    R315840   2.455  11.800   7.016  0.0707 -0.1006  0.1211
 1266ERGO    R415841   2.399  11.673   7.273 -0.0101 -0.1188  0.1000
 1266ERGO    R515842   2.452  11.881   7.241  0.0334 -0.1219  0.1306
 1266ERGO    C115843   2.736  11.778   7.473 -0.0362 -0.1970  0.1832
 1266ERGO    C215844   3.180  11.822   7.487 -0.2492 -0.0980  0.1516
 1267ERGO   ROH15845   6.279  11.986   6.554  0.0724  0.0833 -0.0273
 1267ERGO    R115846   6.479  12.017   6.752 -0.0493  0.1330  0.0900
 1267ERGO    R215847   6.430  12.140   6.995 -0.2211  0.1235  0.0643
 1267ERGO    R315848   6.530  11.908   7.096 -0.2245  0.1466  0.1206
 1267ERGO    R415849   6.631  12.117   7.276 -0.0009  0.2107 -0.0825
 1267ERGO    R515850   6.750  11.966   7.172 -0.1409  0.1082 -0.0901
 1267ERGO    C115851   6.841  11.886   7.534  0.1242  0.2831 -0.1152
 1267ERGO    C215852   7.048  11.734   7.801  0.0786  0.1532  0.0208
 1268ERGO   ROH15853   3.574   7.326   6.514  0.1744 -0.0216 -0.0255
 1268ERGO    R115854   3.699   7.254   6.758  0.0576  0.0917  0.0686
 1268ERGO    R215855   3.902   7.068   6.771 -0.0826 -0.0466  0.2786
 1268ERGO    R315856   4.035   7.269   6.896  0.0329 -0.0374  0.1447
 1268ERGO    R415857   4.170   7.024   6.985  0.0810 -0.0374  0.0788
 1268ERGO    R515858   4.088   7.180   7.113  0.1926 -0.0091  0.1203
 1268ERGO    C115859   4.452   7.187   7.227  0.2847 -0.0234 -0.1633
 1268ERGO    C215860   4.713   6.994   7.327  0.3739  0.1079  0.0758
 1269ERGO   ROH15861  16.204  18.338   6.842 -0.3462 -0.1776 -0.0196
 1269ERGO    R115862  16.219  18.438   7.106 -0.2052 -0.1101 -0.0512
 1269ERGO    R215863  16.015  18.403   7.290 -0.1660  0.0517  0.0288
 1269ERGO    R315864  16.214  18.298   7.442 -0.1709 -0.0140 -0.0112
 1269ERGO    R415865  15.987  18.328   7.626 -0.1985 -0.1707 -0.0227
 1269ERGO    R515866  16.189  18.406   7.655 -0.2172 -0.1567  0.0551
 1269ERGO    C115867  16.157  18.186   7.965 -0.2220 -0.3617 -0.0902
 1269ERGO    C215868  16.002  18.303   8.301 -0.3744  0.1131 -0.0805
 1270ERGO   ROH15869   9.460   7.751   6.196  0.0444 -0.2915  0.1696
 1270ERGO    R115870   9.535   7.647   6.448  0.0225 -0.1667  0.2287
 1270ERGO    R215871   9.799   7.616   6.522  0.0141 -0.1795  0.2472
 1270ERGO    R315872   9.723   7.765   6.737  0.0464 -0.0455  0.1658
 1270ERGO    R415873   9.972   7.632   6.821  0.0487 -0.0305  0.2185
 1270ERGO    R515874   9.781   7.629   6.926  0.0516  0.0512  0.2393
 1270ERGO    C115875  10.002   7.782   7.196  0.0992  0.1821  0.1254
 1270ERGO    C215876  10.245   7.904   7.538  0.1655 -0.0379  0.0787
 1271ERGO   ROH15877  16.290   2.091   6.367 -0.0028  0.0290 -0.1041
 1271ERGO    R115878  16.286   2.118   6.649 -0.1051  0.1497 -0.1157
 1271ERGO    R215879  16.515   2.109   6.803 -0.1950 -0.2390  0.0139
 1271ERGO    R315880  16.424   2.348   6.895  0.2160 -0.0148 -0.1393
 1271ERGO    R415881  16.501   2.201   7.136 -0.2903 -0.1000 -0.0283
 1271ERGO    R515882  16.308   2.294   7.097 -0.0700  0.2885 -0.2181
 1271ERGO    C115883  16.408   2.479   7.415  0.0403  0.1914 -0.1966
 1271ERGO    C215884  16.470   2.664   7.765  0.2907  0.1323  0.3879
 1272ERGO   ROH15885   0.449   4.072   6.011 -0.1592 -0.2756 -0.0591
 1272ERGO    R115886   0.352   4.119   6.273 -0.0452 -0.1120 -0.0442
 1272ERGO    R215887   0.083   4.126   6.333 -0.0229  0.0280  0.0521
 1272ERGO    R315888   0.152   3.938   6.517 -0.0330  0.0847  0.1137
 1272ERGO    R415889  -0.135   3.983   6.560 -0.0479  0.0430  0.0374
 1272ERGO    R515890   0.022   3.994   6.711 -0.0863  0.1069  0.0701
 1272ERGO    C115891  -0.197   3.722   6.864 -0.0718  0.1050  0.0868
 1272ERGO    C215892  -0.346   3.542   7.157 -0.1793 -0.2768  0.0147
 1273ERGO   ROH15893  13.090   8.247   6.317 -0.0547 -0.0220  0.1509
 1273ERGO    R115894  13.172   8.200   6.583 -0.0109  0.0862  0.1567
 1273ERGO    R215895  13.165   8.396   6.778 -0.1174  0.1247  0.1132
 1273ERGO    R315896  13.019   8.210   6.913  0.0019  0.0664  0.1636
 1273ERGO    R415897  13.036   8.439   7.096 -0.1690  0.1427  0.0901
 1273ERGO    R515898  13.091   8.232   7.141 -0.0276  0.1928  0.1623
 1273ERGO    C115899  12.825   8.290   7.408 -0.0871  0.0986  0.1241
 1273ERGO    C215900  12.781   8.406   7.601 -0.2407  0.1171 -0.2818
 1274ERGO   ROH15901   9.258  11.259   6.038 -0.1540  0.2532  0.0684
 1274ERGO    R115902   9.259  11.460   6.237 -0.0398  0.1818  0.1409
 1274ERGO    R215903   9.113  11.439   6.470  0.0471  0.1266  0.1843
 1274ERGO    R315904   9.354  11.487   6.587  0.0981  0.0418  0.1169
 1274ERGO    R415905   9.169  11.444   6.811  0.1164  0.1704  0.1728
 1274ERGO    R515906   9.301  11.616   6.782  0.1928  0.1106  0.1043
 1274ERGO    C115907   9.429  11.492   7.119  0.2047  0.1164  0.1028
 1274ERGO    C215908   9.450  11.366   7.483 -0.0828 -0.1051 -0.3535
 1275ERGO   ROH15909  11.274   4.362   6.297 -0.1063 -0.0965  0.0075
 1275ERGO    R115910  11.135   4.413   6.538 -0.0955  0.1237 -0.0331
 1275ERGO    R215911  11.217   4.311   6.781 -0.2417  0.1214  0.0059
 1275ERGO    R315912  11.210   4.571   6.857  0.0068  0.1547 -0.0690
 1275ERGO    R415913  11.259   4.424   7.105 -0.3716  0.1375  0.0196
 1275ERGO    R515914  11.101   4.569   7.070 -0.1801  0.3275 -0.1510
 1275ERGO    C115915  11.278   4.734   7.365 -0.2138  0.1783 -0.0428
 1275ERGO    C215916  11.518   4.762   7.689  0.1133  0.0245 -0.2248
 1276ERGO   ROH15917  12.692   1.922   6.486 -0.0631 -0.1357 -0.1087
 1276ERGO    R115918  12.718   1.721   6.683 -0.0430 -0.0041  0.0224
 1276ERGO    R215919  12.766   1.779   6.949 -0.2887  0.1856  0.0230
 1276ERGO    R315920  12.544   1.627   6.989 -0.1928  0.0209 -0.0525
 1276ERGO    R415921  12.711   1.579   7.226 -0.3220  0.3204  0.1161
 1276ERGO    R515922  12.626   1.428   7.093 -0.0927  0.1557  0.1429
 1276ERGO    C115923  12.470   1.320   7.424 -0.2513  0.2443  0.0994
 1276ERGO    C215924  12.293   1.175   7.728 -0.2262  0.1695  0.1872
 1277ERGO   ROH15925   3.490   3.762   6.137  0.1691 -0.2256  0.0283
 1277ERGO    R115926   3.527   3.598   6.364  0.2107 -0.1735  0.0607
 1277ERGO    R215927   3.666   3.682   6.588  0.1270 -0.0686  0.0784
 1277ERGO    R315928   3.438   3.609   6.716  0.1375 -0.1644  0.0412
 1277ERGO    R415929   3.639   3.629   6.928  0.1216 -0.2023  0.0565
 1277ERGO    R515930   3.511   3.458   6.886  0.1600 -0.2118 -0.0130
 1277ERGO    C115931   3.410   3.529   7.247  0.1283 -0.3701  0.0088
 1277ERGO    C215932   3.333   3.502   7.646  0.2648  0.0849 -0.0510
 1278ERGO   ROH15933   5.659  14.788   6.299 -0.3488 -0.2732  0.0752
 1278ERGO    R115934   5.777  14.866   6.544 -0.1843 -0.1840 -0.0313
 1278ERGO    R215935   5.712  15.101   6.673 -0.1230 -0.1548 -0.0567
 1278ERGO    R315936   5.663  14.936   6.883  0.0474 -0.0966  0.0313
 1278ERGO    R415937   5.694  15.201   7.003 -0.2291  0.0050 -0.1094
 1278ERGO    R515938   5.802  15.020   7.058 -0.0392  0.1433 -0.0109
 1278ERGO    C115939   5.637  15.104   7.392 -0.1310  0.1525 -0.0575
 1278ERGO    C215940   5.713  15.345   7.585 -0.0863  0.0870 -0.1403
 1279ERGO   ROH15941  13.278  18.203   6.368  0.0905  0.1680  0.0617
 1279ERGO    R115942  13.354  18.090   6.616 -0.0196  0.0237  0.0314
 1279ERGO    R215943  13.549  18.202   6.777  0.1515 -0.2560  0.0258
 1279ERGO    R315944  13.353  18.195   6.965  0.1639 -0.0349  0.0498
 1279ERGO    R415945  13.603  18.182   7.117  0.1662 -0.1454  0.0304
 1279ERGO    R515946  13.436  18.044   7.131  0.0700 -0.0204  0.1085
 1279ERGO    C115947  13.451  18.164   7.492  0.1864  0.1266  0.0557
 1279ERGO    C215948  13.269  18.147   7.789 -0.0166  0.1096  0.0017
 1280ERGO   ROH15949   3.074   8.406   6.479  0.1846 -0.3735 -0.1075
 1280ERGO    R115950   3.144   8.424   6.753  0.1760 -0.1461 -0.1178
 1280ERGO    R215951   3.051   8.626   6.917 -0.0325 -0.1463 -0.2268
 1280ERGO    R315952   2.967   8.419   7.071  0.1895 -0.1518 -0.1115
 1280ERGO    R415953   3.106   8.598   7.257 -0.0369  0.1169 -0.2023
 1280ERGO    R515954   3.145   8.385   7.227  0.2098  0.1440 -0.0699
 1280ERGO    C115955   3.061   8.386   7.599  0.1690  0.2650 -0.0798
 1280ERGO    C215956   3.076   8.385   7.947  0.1591 -0.1178  0.1590
 1281ERGO   ROH15957  13.868  10.951   6.319  0.1207  0.0532  0.1196
 1281ERGO    R115958  13.890  11.104   6.556  0.1781  0.0872  0.0932
 1281ERGO    R215959  13.789  11.018   6.799  0.1194  0.1792  0.1071
 1281ERGO    R315960  14.043  11.063   6.883  0.1374  0.0712  0.1082
 1281ERGO    R415961  13.902  10.971   7.122  0.2196 -0.2796  0.0117
 1281ERGO    R515962  14.018  11.153   7.103  0.1992 -0.2491  0.2463
 1281ERGO    C115963  14.207  10.985   7.389  0.2948 -0.6482 -0.0428
 1281ERGO    C215964  14.435  10.760   7.490  0.0790 -0.0271 -0.0066
 1282ERGO   ROH15965   8.284   2.217   6.347 -0.0852  0.2271  0.2100
 1282ERGO    R115966   8.355   2.216   6.620 -0.0906  0.3883  0.2109
 1282ERGO    R215967   8.617   2.183   6.707 -0.1249  0.2608  0.2463
 1282ERGO    R315968   8.568   2.415   6.838  0.0533  0.3924  0.0655
 1282ERGO    R415969   8.816   2.318   6.955 -0.0741  0.2489  0.2139
 1282ERGO    R515970   8.637   2.374   7.062 -0.0522  0.4883  0.1146
 1282ERGO    C115971   8.887   2.614   7.222  0.1228  0.3656  0.0253
 1282ERGO    C215972   9.014   2.900   7.514 -0.0169 -0.1186  0.1250
 1283ERGO   ROH15973   7.493  15.514   5.725 -0.0693  0.1031 -0.0062
 1283ERGO    R115974   7.613  15.571   5.975 -0.0295  0.1237 -0.0297
 1283ERGO    R215975   7.468  15.660   6.193 -0.0145  0.0259  0.0215
 1283ERGO    R315976   7.584  15.448   6.316  0.1175  0.0616 -0.0388
 1283ERGO    R415977   7.528  15.638   6.532 -0.1560 -0.1018  0.0395
 1283ERGO    R515978   7.720  15.545   6.487 -0.0499  0.0938  0.0789
 1283ERGO    C115979   7.672  15.426   6.846 -0.1146 -0.1426 -0.0067
 1283ERGO    C215980   7.538  15.466   7.090 -0.0304 -0.1756  0.2491
 1284ERGO   ROH15981   0.446   7.782   6.488 -0.2128  0.0824 -0.0027
 1284ERGO    R115982   0.378   7.702   6.751 -0.1494 -0.0577 -0.0285
 1284ERGO    R215983   0.488   7.479   6.871  0.0342 -0.0057 -0.0993
 1284ERGO    R315984   0.553   7.657   7.067 -0.1145 -0.0138 -0.0411
 1284ERGO    R415985   0.573   7.394   7.195  0.1462 -0.0463 -0.1384
 1284ERGO    R515986   0.456   7.565   7.265 -0.0099 -0.1796 -0.0644
 1284ERGO    C115987   0.682   7.511   7.568  0.0717 -0.0775 -0.1066
 1284ERGO    C215988   0.904   7.664   7.886  0.1528  0.0346 -0.1871
 1285ERGO   ROH15989  12.586  11.908   6.209 -0.1389 -0.0391  0.0074
 1285ERGO    R115990  12.567  11.855   6.486 -0.0919 -0.0329  0.0119
 1285ERGO    R215991  12.769  11.729   6.627 -0.1592 -0.2322 -0.0644
 1285ERGO    R315992  12.751  11.948   6.786  0.1063 -0.2182 -0.0495
 1285ERGO    R415993  12.785  11.724   6.972 -0.2728 -0.2864 -0.0593
 1285ERGO    R515994  12.626  11.873   6.977 -0.0616 -0.0574 -0.0950
 1285ERGO    C115995  12.778  11.927   7.323 -0.0895 -0.3048 -0.0423
 1285ERGO    C215996  12.776  12.246   7.635  0.0469  0.0395 -0.1311
 1286ERGO   ROH15997   3.284  15.492   6.106  0.0707  0.1156  0.1236
 1286ERGO    R115998   3.089  15.642   6.248  0.0868  0.1122  0.1498
 1286ERGO    R215999   2.858  15.528   6.346  0.0613  0.1251  0.1075
 1286ERGO    R316000   2.943  15.636   6.581  0.0663  0.0514  0.1397
 1286ERGO    R416001   2.667  15.550   6.634  0.0560  0.0697  0.1081
 1286ERGO    R516002   2.750  15.749   6.667  0.0778  0.0502  0.1649
 1286ERGO    C116003   2.636  15.665   7.022  0.0576 -0.0317  0.1388
 1286ERGO    C216004   2.687  15.734   7.328 -0.1964  0.1470  0.1248
 1287ERGO   ROH16005   6.081   1.938   6.208 -0.1803  0.0189 -0.0193
 1287ERGO    R116006   6.106   2.084   6.449  0.0721 -0.0170 -0.0210
 1287ERGO    R216007   5.896   2.117   6.626  0.0946  0.4236 -0.0637
 1287ERGO    R316008   6.073   2.014   6.805 -0.1444  0.0616 -0.0248
 1287ERGO    R416009   5.916   2.207   6.959  0.0414  0.1869  0.0052
 1287ERGO    R516010   6.133   2.199   6.943  0.0432 -0.1070  0.1239
 1287ERGO    C116011   6.094   2.162   7.321 -0.2141 -0.2907  0.0819
 1287ERGO    C216012   6.148   2.193   7.729 -0.1003  0.2878  0.1654
 1288ERGO   ROH16013  16.908   7.880   6.550 -0.2667 -0.0072  0.0783
 1288ERGO    R116014  16.857   7.903   6.827 -0.0989 -0.0159  0.1108
 1288ERGO    R216015  16.977   7.739   7.015 -0.0646 -0.0916  0.0240
 1288ERGO    R316016  17.051   7.976   7.126  0.1049 -0.1365  0.0099
 1288ERGO    R416017  17.033   7.789   7.352 -0.2497 -0.0560  0.0507
 1288ERGO    R516018  16.933   7.982   7.335 -0.0364  0.0451 -0.0741
 1288ERGO    C116019  17.135   8.041   7.653 -0.1984 -0.0775  0.0531
 1288ERGO    C216020  17.290   8.048   8.011  0.0155 -0.1705 -0.1581
 1289ERGO   ROH16021  10.773  12.046   5.938  0.0010 -0.1227 -0.0683
 1289ERGO    R116022  10.754  12.222   6.159 -0.1087 -0.1460 -0.0596
 1289ERGO    R216023  10.558  12.197   6.353 -0.0518 -0.3212 -0.0257
 1289ERGO    R316024  10.771  12.193   6.521 -0.0167 -0.1432 -0.0632
 1289ERGO    R416025  10.542  12.244   6.695 -0.0561 -0.5184  0.0034
 1289ERGO    R516026  10.723  12.363   6.682 -0.2031 -0.2832  0.0337
 1289ERGO    C116027  10.733  12.269   7.052 -0.0257 -0.4660 -0.0148
 1289ERGO    C216028  10.815  12.091   7.312 -0.1658  0.0096 -0.0048
 1290ERGO   ROH16029  15.362   7.973   6.452  0.1388 -0.2673  0.1547
 1290ERGO    R116030  15.140   7.985   6.627  0.0843 -0.0611  0.0774
 1290ERGO    R216031  15.148   7.883   6.883 -0.1417 -0.1905  0.0442
 1290ERGO    R316032  15.066   8.134   6.951  0.1613 -0.1090  0.1146
 1290ERGO    R416033  14.945   7.958   7.153 -0.2240 -0.0340 -0.0616
 1290ERGO    R516034  14.841   8.104   7.028  0.0674  0.1740 -0.0564
 1290ERGO    C116035  14.751   8.238   7.374  0.0125  0.1335 -0.0571
 1290ERGO    C216036  14.616   8.138   7.771  0.1884  0.0649 -0.4540
 1291ERGO   ROH16037  10.295   1.467   6.055 -0.1318  0.2535 -0.0372
 1291ERGO    R116038  10.290   1.495   6.336 -0.1664  0.1519 -0.0286
 1291ERGO    R216039  10.074   1.418   6.491 -0.1294 -0.0209 -0.0749
 1291ERGO    R316040  10.262   1.274   6.623 -0.0620  0.0368 -0.1029
 1291ERGO    R416041  10.079   1.366   6.832 -0.1421 -0.1086 -0.0868
 1291ERGO    R516042  10.295   1.392   6.828 -0.1451  0.0064 -0.0633
 1291ERGO    C116043  10.258   1.200   7.156 -0.0863 -0.1056 -0.1200
 1291ERGO    C216044  10.229   0.930   7.355 -0.1009  0.2246 -0.0847
 1292ERGO   ROH16045   0.211  15.057   6.647  0.0976  0.1014 -0.1010
 1292ERGO    R116046   0.210  15.254   6.850 -0.0932  0.0432 -0.0436
 1292ERGO    R216047   0.055  15.234   7.077  0.0775 -0.2731  0.0492
 1292ERGO    R316048   0.292  15.269   7.204  0.1022  0.0690 -0.0895
 1292ERGO    R416049   0.089  15.329   7.408  0.1260 -0.3622  0.0703
 1292ERGO    R516050   0.255  15.458   7.348 -0.1251 -0.0546  0.0177
 1292ERGO    C116051   0.332  15.418   7.720  0.1775 -0.0930 -0.0477
 1292ERGO    C216052   0.384  15.293   7.997  0.0407 -0.1711 -0.0199
 1293ERGO   ROH16053  11.063  15.510   5.762  0.0737  0.0117 -0.0330
 1293ERGO    R116054  11.110  15.453   6.036  0.0754 -0.0184 -0.0386
 1293ERGO    R216055  11.152  15.650   6.224  0.1526 -0.0392 -0.0273
 1293ERGO    R316056  10.947  15.527   6.353  0.1204  0.0179 -0.0255
 1293ERGO    R416057  11.106  15.651   6.566  0.0143  0.1731 -0.0454
 1293ERGO    R516058  11.046  15.442   6.554  0.0487  0.1608  0.0681
 1293ERGO    C116059  10.886  15.536   6.887 -0.0964  0.3503 -0.0543
 1293ERGO    C216060  10.878  15.565   7.146  0.0646 -0.0015 -0.0718
 1294ERGO   ROH16061   2.956  18.197   6.409 -0.0739  0.1848  0.0799
 1294ERGO    R116062   2.753  18.089   6.573 -0.1048  0.1440  0.0158
 1294ERGO    R216063   2.756  18.114   6.849 -0.1230  0.0214  0.0287
 1294ERGO    R316064   2.508  18.218   6.809 -0.1023  0.0796  0.0532
 1294ERGO    R416065   2.530  18.186   7.100 -0.1721 -0.1461  0.0339
 1294ERGO    R516066   2.371  18.109   6.973 -0.1518 -0.0305 -0.0616
 1294ERGO    C116067   2.165  18.326   7.209 -0.1812 -0.1888  0.0598
 1294ERGO    C216068   2.043  18.581   7.367 -0.0177  0.2587 -0.1458
 1295ERGO   ROH16069  10.094  12.916   5.842 -0.0124 -0.0360 -0.0352
 1295ERGO    R116070   9.922  12.971   6.061  0.0156 -0.1638  0.0196
 1295ERGO    R216071  10.004  12.949   6.324  0.1209 -0.0904 -0.0060
 1295ERGO    R316072   9.915  13.205   6.339 -0.0766 -0.1586  0.0129
 1295ERGO    R416073   9.785  13.068   6.563  0.0756 -0.2590  0.0382
 1295ERGO    R516074   9.687  13.184   6.408 -0.0474 -0.3353  0.0595
 1295ERGO    C116075   9.574  13.378   6.717 -0.1361 -0.4212  0.0815
 1295ERGO    C216076   9.565  13.361   7.028  0.0501  0.0739 -0.1323
 1296ERGO   ROH16077  17.398   6.445   6.477  0.0974  0.0293  0.1044
 1296ERGO    R116078  17.589   6.394   6.679  0.0810 -0.0859  0.0919
 1296ERGO    R216079  17.556   6.480   6.940  0.1681 -0.0315  0.0863
 1296ERGO    R316080  17.596   6.217   6.998 -0.0170 -0.0552  0.1113
 1296ERGO    R416081  17.536   6.341   7.256  0.0536  0.0083  0.0968
 1296ERGO    R516082  17.710   6.219   7.208 -0.0280 -0.1164  0.1174
 1296ERGO    C116083  17.562   6.014   7.494 -0.1868  0.0092  0.1262
 1296ERGO    C216084  17.461   6.082   7.813 -0.1726  0.2127 -0.2855
 1297ERGO   ROH16085   6.242  13.383   6.210 -0.0756 -0.2625  0.1648
 1297ERGO    R116086   6.083  13.483   6.421 -0.0601 -0.1718  0.1363
 1297ERGO    R216087   5.931  13.319   6.585  0.0400 -0.1236  0.2891
 1297ERGO    R316088   6.069  13.444   6.783  0.0534  0.0699  0.1709
 1297ERGO    R416089   5.897  13.253   6.922  0.1859  0.0659  0.3405
 1297ERGO    R516090   5.911  13.466   6.961  0.0978  0.1046  0.2088
 1297ERGO    C116091   6.007  13.332   7.304  0.2834  0.3581  0.2596
 1297ERGO    C216092   6.198  13.466   7.620  0.0255 -0.1806  0.0786
 1298ERGO   ROH16093  17.117  14.041   6.875  0.1171 -0.1109  0.1016
 1298ERGO    R116094  17.185  14.110   7.141 -0.0327  0.0531  0.1003
 1298ERGO    R216095  17.072  14.326   7.272 -0.3101 -0.0176  0.0011
 1298ERGO    R316096  17.011  14.139   7.459 -0.1606 -0.0315  0.0359
 1298ERGO    R416097  16.978  14.395   7.597  0.1875 -0.0690  0.1636
 1298ERGO    R516098  17.100  14.227   7.663  0.1756 -0.1552 -0.0593
 1298ERGO    C116099  16.866  14.259   7.962  0.6173 -0.1118  0.2910
 1298ERGO    C216100  16.740  14.425   8.091 -0.2079 -0.3900  0.0466
 1299ERGO   ROH16101  16.825   0.545   6.611 -0.0924  0.1034 -0.0472
 1299ERGO    R116102  16.952   0.556   6.864  0.1429 -0.0531 -0.1543
 1299ERGO    R216103  16.847   0.698   7.076  0.4299 -0.0362 -0.0189
 1299ERGO    R316104  16.871   0.459   7.205  0.3793 -0.0883 -0.1062
 1299ERGO    R416105  16.907   0.661   7.415  0.2129 -0.1710  0.0065
 1299ERGO    R516106  17.042   0.496   7.368  0.2679 -0.1318  0.0233
 1299ERGO    C116107  16.964   0.416   7.733  0.0389 -0.2985 -0.0607
 1299ERGO    C216108  16.885   0.445   7.994  0.1189  0.1687 -0.0063
 1300ERGO   ROH16109  14.372  16.871   6.389  0.0041  0.1695 -0.0113
 1300ERGO    R116110  14.263  16.827   6.647  0.0507  0.0896 -0.0054
 1300ERGO    R216111  14.416  16.741   6.860  0.0823 -0.0107 -0.0695
 1300ERGO    R316112  14.313  16.962   6.981  0.1373 -0.0408  0.0349
 1300ERGO    R416113  14.415  16.797   7.201  0.1080 -0.1637 -0.0431
 1300ERGO    R516114  14.214  16.878   7.182  0.1255 -0.1089  0.0014
 1300ERGO    C116115  14.318  17.036   7.513  0.1746 -0.2811  0.0702
 1300ERGO    C216116  14.540  17.215   7.791  0.2199  0.0765  0.3096
 1301ERGO   ROH16117   8.727   0.734   5.951  0.1505 -0.1202 -0.0600
 1301ERGO    R116118   8.664   0.637   6.209  0.0906 -0.0228 -0.0369
 1301ERGO    R216119   8.857   0.554   6.388  0.0432 -0.0909 -0.0109
 1301ERGO    R316120   8.736   0.734   6.553  0.1412  0.0208 -0.0607
 1301ERGO    R416121   8.861   0.540   6.734 -0.1678 -0.1299 -0.0090
 1301ERGO    R516122   8.652   0.601   6.734 -0.1024  0.0925 -0.1204
 1301ERGO    C116123   8.751   0.700   7.089 -0.1986 -0.0477 -0.0547
 1301ERGO    C216124   8.868   0.496   7.457  0.0043  0.0800  0.1958
 1302ERGO   ROH16125  17.430  18.116   6.499  0.2145 -0.0492  0.2119
 1302ERGO    R116126  17.236  18.165   6.699  0.1674 -0.0296  0.1621
 1302ERGO    R216127  17.135  17.965   6.861  0.0792 -0.0260  0.1131
 1302ERGO    R316128  17.215  18.131   7.061  0.0577 -0.0636  0.1527
 1302ERGO    R416129  17.052  17.927   7.194 -0.0738 -0.0075  0.0776
 1302ERGO    R516130  17.026  18.143   7.207  0.0011  0.0014  0.0746
 1302ERGO    C116131  17.078  18.060   7.576 -0.1830 -0.0321  0.0942
 1302ERGO    C216132  16.982  17.817   7.906 -0.1382  0.1697  0.0463
 1303ERGO   ROH16133  11.404   8.037   6.160  0.1289 -0.2857 -0.0142
 1303ERGO    R116134  11.366   8.222   6.371  0.0878 -0.2414 -0.0617
 1303ERGO    R216135  11.135   8.228   6.524  0.0604 -0.2038 -0.1173
 1303ERGO    R316136  11.311   8.206   6.730  0.0090 -0.1594 -0.0672
 1303ERGO    R416137  11.071   8.325   6.849  0.1055  0.2625 -0.2384
 1303ERGO    R516138  11.274   8.403   6.862  0.2035  0.0522 -0.3067
 1303ERGO    C116139  11.197   8.359   7.233  0.0836  0.5756 -0.2619
 1303ERGO    C216140  11.212   8.507   7.538 -0.1568 -0.1918  0.0275
 1304ERGO   ROH16141  11.169   1.998   6.248 -0.1804 -0.1644  0.0199
 1304ERGO    R116142  11.270   2.023   6.511 -0.0775 -0.0619 -0.0285
 1304ERGO    R216143  11.253   2.257   6.656 -0.1959 -0.0621 -0.0426
 1304ERGO    R316144  11.134   2.097   6.840  0.0152 -0.1404  0.0281
 1304ERGO    R416145  11.238   2.324   6.995 -0.3499  0.1112 -0.0810
 1304ERGO    R516146  11.277   2.112   7.032 -0.0347  0.1847  0.0450
 1304ERGO    C116147  11.119   2.212   7.365 -0.2413  0.1385 -0.0370
 1304ERGO    C216148  11.150   2.251   7.689  0.1023 -0.1079 -0.2091
 1305ERGO   ROH16149   4.616  10.348   6.322  0.1542 -0.0920 -0.0073
 1305ERGO    R116150   4.703  10.199   6.547  0.0644  0.0729  0.1382
 1305ERGO    R216151   4.657  10.281   6.807 -0.2905  0.1239  0.0611
 1305ERGO    R316152   4.546  10.034   6.831 -0.0759  0.0219  0.0336
 1305ERGO    R416153   4.605  10.116   7.106 -0.3952  0.1666  0.0676
 1305ERGO    R516154   4.668   9.931   7.009 -0.1297  0.1935  0.1748
 1305ERGO    C116155   4.471   9.788   7.303 -0.2547  0.0958  0.0456
 1305ERGO    C216156   4.264   9.726   7.733 -0.2994  0.3765  0.1161
 1306ERGO   ROH16157   8.365   3.645   6.295  0.0414 -0.1614  0.1770
 1306ERGO    R116158   8.383   3.829   6.509 -0.0559 -0.1944  0.2126
 1306ERGO    R216159   8.362   3.751   6.774  0.1322 -0.2798  0.1997
 1306ERGO    R316160   8.600   3.880   6.797  0.0132 -0.0405  0.1354
 1306ERGO    R416161   8.531   3.800   7.071  0.3678 -0.5046  0.1071
 1306ERGO    R516162   8.582   4.001   7.003  0.0719 -0.3435  0.3280
 1306ERGO    C116163   8.853   3.949   7.266  0.3933 -0.4109 -0.0072
 1306ERGO    C216164   9.025   3.859   7.569 -0.0632 -0.2245 -0.2704
 1307ERGO   ROH16165   6.100  14.506   6.329 -0.0385 -0.2176 -0.0463
 1307ERGO    R116166   5.957  14.469   6.570  0.0264 -0.1942 -0.0039
 1307ERGO    R216167   6.077  14.383   6.803  0.0977 -0.1320 -0.0161
 1307ERGO    R316168   5.966  14.608   6.906  0.0888 -0.1289 -0.0327
 1307ERGO    R416169   5.999  14.429   7.136  0.0989 -0.1045 -0.0195
 1307ERGO    R516170   5.815  14.527   7.074  0.0952 -0.1191 -0.0243
 1307ERGO    C116171   5.848  14.667   7.428  0.0914 -0.0854 -0.0372
 1307ERGO    C216172   5.851  14.677   7.733 -0.1416 -0.0559 -0.0166
 1308ERGO   ROH16173  14.565   9.802   6.099 -0.2081  0.1073 -0.0114
 1308ERGO    R116174  14.670   9.979   6.293 -0.0995  0.0288  0.0025
 1308ERGO    R216175  14.510  10.142   6.449 -0.0019  0.1124  0.0181
 1308ERGO    R316176  14.645  10.023   6.653 -0.0701  0.0135  0.0061
 1308ERGO    R416177  14.518  10.257   6.775  0.1710  0.1463  0.0028
 1308ERGO    R516178  14.729  10.205   6.783  0.1254 -0.0480 -0.0332
 1308ERGO    C116179  14.649  10.213   7.156  0.2078  0.0732 -0.0173
 1308ERGO    C216180  14.487  10.072   7.501 -0.0090  0.1034  0.1866
 1309ERGO   ROH16181   7.587   0.228   5.960  0.0133 -0.1293 -0.2034
 1309ERGO    R116182   7.439   0.179   6.196  0.0813  0.1064 -0.1086
 1309ERGO    R216183   7.336  -0.070   6.259 -0.2606  0.2579 -0.0341
 1309ERGO    R316184   7.473  -0.032   6.491 -0.0546  0.0657 -0.1221
 1309ERGO    R416185   7.282  -0.246   6.552 -0.3220  0.3335 -0.0005
 1309ERGO    R516186   7.309  -0.060   6.663  0.0135  0.2993 -0.0162
 1309ERGO    C116187   7.380  -0.312   6.940 -0.1645  0.1972 -0.0636
 1309ERGO    C216188   7.612  -0.626   7.074  0.1179  0.0290  0.0553
 1310ERGO   ROH16189   7.510  13.651   8.095 -0.0131 -0.0578  0.1130
 1310ERGO    R116190   7.561  13.373   8.099  0.0687 -0.0446  0.0623
 1310ERGO    R216191   7.534  13.213   7.876 -0.1677 -0.0616  0.0991
 1310ERGO    R316192   7.790  13.143   7.935 -0.0716  0.0110 -0.2163
 1310ERGO    R416193   7.665  12.895   7.839 -0.3294 -0.1893  0.5603
 1310ERGO    R516194   7.772  12.923   8.027  0.0312  0.2120  0.3170
 1310ERGO    C116195   7.983  12.645   7.873 -0.3334 -0.1954  0.5326
 1310ERGO    C216196   8.018  12.268   7.913  0.2494  0.1033  0.1234
 1311ERGO   ROH16197   4.656   9.227   6.154  0.0621 -0.1078 -0.2358
 1311ERGO    R116198   4.584   9.042   6.356  0.1804 -0.1265 -0.2098
 1311ERGO    R216199   4.770   8.903   6.505  0.2716  0.0627 -0.1457
 1311ERGO    R316200   4.635   9.009   6.715  0.1427 -0.0062 -0.1925
 1311ERGO    R416201   4.757   8.764   6.821  0.1020 -0.0286 -0.1911
 1311ERGO    R516202   4.546   8.819   6.831  0.0904 -0.0472 -0.2965
 1311ERGO    C116203   4.623   8.784   7.203 -0.1179 -0.1463 -0.2615
 1311ERGO    C216204   4.780   8.734   7.548 -0.0005 -0.0656 -0.1696
 1312ERGO   ROH16205   6.419   4.226   6.259 -0.1039  0.1548 -0.0567
 1312ERGO    R116206   6.313   4.296   6.513  0.0699  0.0681  0.0421
 1312ERGO    R216207   6.054   4.237   6.586  0.0202  0.3194  0.0817
 1312ERGO    R316208   6.174   4.119   6.799 -0.0429 -0.0133 -0.0624
 1312ERGO    R416209   5.903   4.182   6.892  0.0348  0.1405  0.0571
 1312ERGO    R516210   6.091   4.239   6.989  0.1077 -0.1312  0.0799
 1312ERGO    C116211   5.929   4.038   7.270 -0.0160 -0.2760 -0.0925
 1312ERGO    C216212   5.602   3.759   7.575 -0.2152  0.1863  0.0558
 1313ERGO   ROH16213  10.932  11.107   6.300  0.1112 -0.2231  0.0744
 1313ERGO    R116214  10.730  11.246   6.441  0.1458 -0.1290  0.0309
 1313ERGO    R216215  10.473  11.149   6.467  0.1022 -0.0194 -0.0054
 1313ERGO    R316216  10.520  11.185   6.732  0.0706 -0.0203  0.0009
 1313ERGO    R416217  10.240  11.261   6.697  0.0403 -0.1294 -0.0136
 1313ERGO    R516218  10.396  11.381   6.790 -0.0125 -0.0730  0.0065
 1313ERGO    C116219  10.149  11.358   7.080 -0.0252 -0.1942 -0.0125
 1313ERGO    C216220   9.931  11.387   7.309  0.0483  0.2932 -0.0469
 1314ERGO   ROH16221   0.711   5.768   6.017 -0.0720 -0.0356 -0.1329
 1314ERGO    R116222   0.759   5.823   6.290 -0.0090 -0.0131 -0.1480
 1314ERGO    R216223   0.662   6.049   6.416  0.0518  0.0172 -0.1527
 1314ERGO    R316224   0.558   5.867   6.590  0.0570  0.0521 -0.1135
 1314ERGO    R416225   0.638   6.094   6.758  0.1156  0.0602 -0.1539
 1314ERGO    R516226   0.696   5.886   6.785  0.0918  0.0562 -0.1392
 1314ERGO    C116227   0.526   5.950   7.120  0.1577  0.1179 -0.1178
 1314ERGO    C216228   0.312   6.050   7.497 -0.1961  0.0031  0.0125
 1315ERGO   ROH16229   9.741   2.877   6.285 -0.0268  0.0165 -0.1385
 1315ERGO    R116230   9.756   2.605   6.362 -0.1748 -0.0053 -0.1841
 1315ERGO    R216231   9.887   2.522   6.590 -0.0082 -0.1369 -0.3255
 1315ERGO    R316232   9.648   2.403   6.645 -0.0544  0.0555 -0.0942
 1315ERGO    R416233   9.837   2.283   6.835  0.0457 -0.1269 -0.3043
 1315ERGO    R516234   9.705   2.177   6.698 -0.1886 -0.0005 -0.1845
 1315ERGO    C116235   9.584   2.033   7.029  0.0337  0.0595 -0.0747
 1315ERGO    C216236   9.550   1.946   7.300 -0.4747 -0.0869 -0.0996
 1316ERGO   ROH16237  13.131  10.508   6.223  0.1537  0.1223  0.1208
 1316ERGO    R116238  13.099  10.356   6.461  0.0815  0.0553  0.0694
 1316ERGO    R216239  13.302  10.327   6.647 -0.0051  0.0842  0.1716
 1316ERGO    R316240  13.113  10.420   6.819 -0.1306 -0.0223  0.0926
 1316ERGO    R416241  13.311  10.288   6.990 -0.2152 -0.0582  0.1629
 1316ERGO    R516242  13.097  10.250   6.987 -0.2068 -0.0955  0.0115
 1316ERGO    C116243  13.140  10.353   7.351 -0.4555 -0.2408  0.0838
 1316ERGO    C216244  13.299  10.471   7.543 -0.1030 -0.3693 -0.2283
 1317ERGO   ROH16245   2.900  13.586   6.670 -0.0541 -0.0619  0.0341
 1317ERGO    R116246   2.809  13.653   6.929 -0.0312 -0.0637  0.0427
 1317ERGO    R216247   2.956  13.598   7.157  0.0298  0.0152  0.0228
 1317ERGO    R316248   2.924  13.864   7.203 -0.0567  0.0094 -0.0026
 1317ERGO    R416249   2.995  13.751   7.464  0.3156  0.1050 -0.0550
 1317ERGO    R516250   2.821  13.875   7.419  0.1928  0.0026  0.1207
 1317ERGO    C116251   2.987  14.090   7.686  0.4009  0.1519 -0.1241
 1317ERGO    C216252   3.212  14.212   8.012  0.1281  0.0442 -0.3774
 1318ERGO   ROH16253   7.450   1.686   6.148 -0.3562 -0.2028  0.0402
 1318ERGO    R116254   7.577   1.649   6.398 -0.2731  0.0659  0.0408
 1318ERGO    R216255   7.458   1.721   6.637 -0.3761 -0.0676  0.0311
 1318ERGO    R316256   7.510   1.462   6.704  0.0544  0.0267  0.0918
 1318ERGO    R416257   7.497   1.605   6.960 -0.5085  0.0191  0.0795
 1318ERGO    R516258   7.661   1.478   6.889 -0.1762  0.3283  0.2618
 1318ERGO    C116259   7.569   1.294   7.211 -0.1815  0.1580  0.1646
 1318ERGO    C216260   7.479   1.288   7.461  0.1225  0.1954  0.0152
 1319ERGO   ROH16261  17.844  15.942   6.629 -0.2481  0.1805  0.0502
 1319ERGO    R116262  17.900  16.200   6.731  0.0740  0.1388 -0.0099
 1319ERGO    R216263  17.785  16.296   6.963  0.0419  0.4050 -0.1369
 1319ERGO    R316264  18.044  16.340   7.036  0.0591  0.0369  0.0461
 1319ERGO    R416265  17.889  16.544   7.180  0.2516  0.4439 -0.2792
 1319ERGO    R516266  18.061  16.578   7.050  0.4377  0.0344 -0.1697
 1319ERGO    C116267  18.193  16.729   7.374  0.3897  0.1213 -0.1904
 1319ERGO    C216268  18.198  16.805   7.723 -0.0451  0.0133  0.2489
 1320ERGO   ROH16269   6.684   8.420   7.512 -0.2566 -0.0445  0.1680
 1320ERGO    R116270   6.597   8.689   7.509 -0.0397  0.0269 -0.0932
 1320ERGO    R216271   6.582   8.843   7.739 -0.2566  0.1443 -0.1897
 1320ERGO    R316272   6.738   9.014   7.596  0.0933 -0.0413 -0.0442
 1320ERGO    R416273   6.658   9.167   7.832 -0.2451  0.1668 -0.2726
 1320ERGO    R516274   6.634   9.227   7.624  0.1500  0.0404 -0.3700
 1320ERGO    C116275   6.849   9.516   7.753  0.0901  0.0055 -0.1842
 1320ERGO    C216276   7.025   9.742   7.951  0.1236 -0.0426  0.4087
 1321ERGO   ROH16277  11.515  10.423   5.926  0.1553  0.0211 -0.0751
 1321ERGO    R116278  11.384  10.340   6.163  0.2328  0.0121 -0.0377
 1321ERGO    R216279  11.497  10.161   6.341  0.3398  0.1043 -0.0271
 1321ERGO    R316280  11.448  10.358   6.521  0.2793  0.1124 -0.0484
 1321ERGO    R416281  11.407  10.111   6.671  0.3386  0.1017 -0.0255
 1321ERGO    R516282  11.267  10.276   6.653  0.2896  0.0690 -0.0494
 1321ERGO    C116283  11.309  10.267   7.032  0.2812  0.1079 -0.0446
 1321ERGO    C216284  11.176  10.324   7.442  0.3414  0.3644 -0.1080
 1322ERGO   ROH16285   6.580  17.822   5.906  0.0290  0.2265  0.1007
 1322ERGO    R116286   6.507  17.757   6.171  0.0334 -0.1021  0.0256
 1322ERGO    R216287   6.585  17.522   6.293  0.4064 -0.0643 -0.1188
 1322ERGO    R316288   6.681  17.689   6.484  0.0318 -0.0246  0.0422
 1322ERGO    R416289   6.705  17.421   6.601  0.2931 -0.0456 -0.0685
 1322ERGO    R516290   6.605  17.593   6.690 -0.0075 -0.2200 -0.0641
 1322ERGO    C116291   6.865  17.520   6.960 -0.1245  0.0027  0.1120
 1322ERGO    C216292   6.900  17.267   7.185 -0.0310  0.2790  0.1652
 1323ERGO   ROH16293   1.415   7.394   6.462 -0.1448 -0.0132  0.1208
 1323ERGO    R116294   1.561   7.316   6.691 -0.1195 -0.1202  0.0691
 1323ERGO    R216295   1.495   7.401   6.946  0.0503 -0.0464  0.0912
 1323ERGO    R316296   1.493   7.134   6.999 -0.1528 -0.0424  0.1075
 1323ERGO    R416297   1.530   7.262   7.260  0.2033 -0.0606  0.0682
 1323ERGO    R516298   1.656   7.107   7.172 -0.0207 -0.1851 -0.0372
 1323ERGO    C116299   1.549   6.931   7.494  0.1017 -0.0651  0.0701
 1323ERGO    C216300   1.529   6.532   7.694 -0.1653 -0.1085 -0.0007
 1324ERGO   ROH16301   9.156  16.969   5.626  0.0614 -0.2026 -0.0151
 1324ERGO    R116302   9.156  16.801   5.854  0.1216 -0.0299  0.1148
 1324ERGO    R216303   9.235  16.890   6.104  0.0580  0.2000  0.0588
 1324ERGO    R316304   8.991  16.796   6.178  0.0949  0.1412  0.1042
 1324ERGO    R416305   9.144  16.811   6.428  0.1713  0.0626  0.0574
 1324ERGO    R516306   9.039  16.636   6.350  0.1687  0.0814  0.0262
 1324ERGO    C116307   8.863  16.676   6.686  0.2719 -0.0727  0.0993
 1324ERGO    C216308   8.909  16.608   7.000 -0.0056 -0.0846  0.3008
 1325ERGO   ROH16309  11.092  10.836   5.922 -0.0805 -0.1657 -0.0875
 1325ERGO    R116310  11.197  10.741   6.167 -0.0465 -0.0340 -0.0505
 1325ERGO    R216311  11.338  10.902   6.341 -0.1405  0.0947 -0.0928
 1325ERGO    R316312  11.153  10.817   6.520 -0.1079  0.0557 -0.0770
 1325ERGO    R416313  11.373  10.921   6.684 -0.1658  0.2095 -0.0957
 1325ERGO    R516314  11.282  10.723   6.699 -0.0705  0.1689 -0.0436
 1325ERGO    C116315  11.218  10.851   7.053 -0.1498  0.2395 -0.0826
 1325ERGO    C216316  11.107  10.905   7.525 -0.1274 -0.1204  0.2836
 1326ERGO   ROH16317  10.610   8.482   5.848 -0.0859 -0.5102 -0.0644
 1326ERGO    R116318  10.431   8.649   5.990  0.2108 -0.1447 -0.1024
 1326ERGO    R216319  10.171   8.574   6.047 -0.0296  0.4408 -0.3145
 1326ERGO    R316320  10.244   8.632   6.302 -0.0421  0.1304 -0.2368
 1326ERGO    R416321   9.952   8.623   6.309 -0.0334  0.3695 -0.3042
 1326ERGO    R516322  10.078   8.787   6.378  0.0802  0.1912 -0.1155
 1326ERGO    C116323   9.893   8.707   6.702 -0.0473  0.0366 -0.2251
 1326ERGO    C216324   9.727   8.758   7.089  0.0232  0.0657  0.0487
 1327ERGO   ROH16325  14.730   0.137   6.865  0.0285 -0.2933  0.0392
 1327ERGO    R116326  14.895   0.269   7.053 -0.0853 -0.1371  0.0306
 1327ERGO    R216327  14.839   0.272   7.324 -0.0782 -0.1836  0.0324
 1327ERGO    R316328  15.093   0.175   7.344  0.0141  0.0493  0.0249
 1327ERGO    R416329  15.032   0.277   7.611 -0.1701 -0.2324  0.0956
 1327ERGO    R516330  15.205   0.329   7.489 -0.1812  0.0416  0.1884
 1327ERGO    C116331  15.382   0.189   7.796 -0.1371 -0.0422  0.1254
 1327ERGO    C216332  15.718   0.086   7.903 -0.2450 -0.0403  0.2819
 1328ERGO   ROH16333   3.756   9.722   6.286  0.1943 -0.1167 -0.0461
 1328ERGO    R116334   3.609   9.861   6.484  0.1319 -0.2195 -0.0182
 1328ERGO    R216335   3.631   9.802   6.754  0.2979 -0.1403 -0.0078
 1328ERGO    R316336   3.686  10.067   6.774  0.0431 -0.0793 -0.0953
 1328ERGO    R416337   3.547  10.001   7.023  0.1782 -0.1426 -0.0442
 1328ERGO    R516338   3.495  10.160   6.883 -0.0143 -0.2342 -0.0709
 1328ERGO    C116339   3.550  10.366   7.199 -0.1306 -0.0867 -0.1475
 1328ERGO    C216340   3.810  10.573   7.424 -0.2322 -0.1707  0.0158
 1329ERGO   ROH16341  13.721  11.386   6.201  0.0255  0.1195 -0.0734
 1329ERGO    R116342  13.685  11.549   6.430 -0.1756 -0.0079 -0.0118
 1329ERGO    R216343  13.599  11.449   6.672 -0.0043 -0.2161 -0.0380
 1329ERGO    R316344  13.825  11.568   6.765 -0.1573  0.0730 -0.0225
 1329ERGO    R416345  13.697  11.458   7.004  0.0583 -0.2781 -0.0540
 1329ERGO    R516346  13.761  11.663   6.975 -0.2594 -0.1532  0.0561
 1329ERGO    C116347  13.966  11.575   7.284 -0.0490 -0.0428 -0.0488
 1329ERGO    C216348  13.979  11.647   7.667  0.0688  0.2104  0.0498
 1330ERGO   ROH16349  16.656   1.649   6.193  0.2293 -0.0058 -0.0000
 1330ERGO    R116350  16.663   1.746   6.458  0.1113  0.0743 -0.0257
 1330ERGO    R216351  16.450   1.721   6.632  0.0577  0.0671 -0.0918
 1330ERGO    R316352  16.637   1.605   6.793  0.0353  0.1645  0.0064
 1330ERGO    R416353  16.436   1.713   6.977 -0.0659  0.1400 -0.0941
 1330ERGO    R516354  16.651   1.751   6.982 -0.0818  0.2106 -0.0213
 1330ERGO    C116355  16.603   1.600   7.329 -0.1592  0.2740 -0.0033
 1330ERGO    C216356  16.553   1.500   7.648  0.0118 -0.1306  0.0846
 1331ERGO   ROH16357   3.211  11.193   6.591  0.0821  0.1767  0.0373
 1331ERGO    R116358   3.159  11.066   6.839  0.0727  0.1057  0.0006
 1331ERGO    R216359   3.304  10.849   6.928 -0.0007  0.0085 -0.1027
 1331ERGO    R316360   3.341  11.005   7.147  0.1031 -0.0851 -0.0545
 1331ERGO    R416361   3.342  10.730   7.250 -0.1602 -0.1159 -0.1294
 1331ERGO    R516362   3.218  10.895   7.320 -0.0242 -0.0229 -0.1062
 1331ERGO    C116363   3.400  10.808   7.644 -0.1556 -0.2762 -0.0997
 1331ERGO    C216364   3.629  10.743   7.887  0.4037  0.1086  0.0834
 1332ERGO   ROH16365   4.663  17.194   5.950 -0.2264  0.0663  0.0017
 1332ERGO    R116366   4.740  17.289   6.205 -0.1076  0.0532 -0.0290
 1332ERGO    R216367   4.618  17.506   6.326 -0.0261  0.0700  0.0228
 1332ERGO    R316368   4.584  17.330   6.531  0.0321  0.0740  0.0364
 1332ERGO    R416369   4.618  17.590   6.661  0.0618  0.0793  0.0207
 1332ERGO    R516370   4.731  17.408   6.702  0.0769  0.0819 -0.0049
 1332ERGO    C116371   4.586  17.474   7.048  0.1676  0.0885  0.0322
 1332ERGO    C216372   4.706  17.288   7.414  0.1419  0.1155 -0.3054
 1333ERGO   ROH16373   4.408   4.172   6.402 -0.3710  0.2091 -0.0645
 1333ERGO    R116374   4.566   4.289   6.606 -0.2216  0.1295 -0.1333
 1333ERGO    R216375   4.472   4.492   6.768 -0.0810  0.1079 -0.0289
 1333ERGO    R316376   4.546   4.323   6.968  0.0108  0.0495 -0.1104
 1333ERGO    R416377   4.623   4.589   7.064 -0.1697  0.0584  0.0335
 1333ERGO    R516378   4.752   4.415   7.050 -0.0523  0.1448 -0.0478
 1333ERGO    C116379   4.780   4.488   7.423 -0.1351 -0.0252 -0.0067
 1333ERGO    C216380   4.799   4.641   7.762 -0.4404 -0.1518  0.2302
 1334ERGO   ROH16381  16.112   3.069   6.308 -0.1192  0.1034 -0.1641
 1334ERGO    R116382  16.018   3.213   6.533 -0.0777  0.0444 -0.1087
 1334ERGO    R216383  15.893   3.090   6.747 -0.0102 -0.0158 -0.1032
 1334ERGO    R316384  16.084   3.218   6.891  0.0132 -0.0263 -0.1244
 1334ERGO    R416385  15.861   3.183   7.078 -0.0301  0.1358 -0.1468
 1334ERGO    R516386  15.962   3.370   7.030  0.0472  0.0779 -0.2082
 1334ERGO    C116387  16.022   3.357   7.406 -0.0199  0.2142 -0.1921
 1334ERGO    C216388  15.962   3.528   7.702  0.0772 -0.1315 -0.1635
 1335ERGO   ROH16389   2.374  10.305   6.646 -0.1089  0.0863  0.0307
 1335ERGO    R116390   2.499  10.166   6.859  0.0206  0.0936 -0.0427
 1335ERGO    R216391   2.588  10.292   7.088 -0.1242  0.0531  0.0208
 1335ERGO    R316392   2.432  10.107   7.212  0.0660 -0.1793 -0.0730
 1335ERGO    R416393   2.578  10.238   7.429 -0.5302  0.3586  0.0674
 1335ERGO    R516394   2.568  10.024   7.390 -0.0070  0.2746  0.2268
 1335ERGO    C116395   2.426  10.033   7.744 -0.5879  0.3183  0.0064
 1335ERGO    C216396   2.268   9.954   8.065  0.0257 -0.1197 -0.2612
 1336ERGO   ROH16397   5.608  17.233   6.043 -0.0569 -0.0445 -0.0829
 1336ERGO    R116398   5.600  17.316   6.313  0.1274  0.0454 -0.1035
 1336ERGO    R216399   5.558  17.140   6.522 -0.0863  0.1633 -0.0442
 1336ERGO    R316400   5.789  17.247   6.617  0.0985 -0.1490 -0.1286
 1336ERGO    R416401   5.636  17.178   6.857  0.0997  0.0375 -0.0722
 1336ERGO    R516402   5.722  17.372   6.810  0.3412 -0.0713 -0.0917
 1336ERGO    C116403   5.898  17.300   7.140  0.3815 -0.3291 -0.1677
 1336ERGO    C216404   6.016  17.065   7.489 -0.2097 -0.2044  0.0111
 1337ERGO   ROH16405  15.760  11.712   6.275  0.0606  0.0811  0.0397
 1337ERGO    R116406  15.789  11.618   6.540 -0.0227 -0.0741 -0.0042
 1337ERGO    R216407  16.019  11.660   6.688 -0.0208 -0.2643  0.0533
 1337ERGO    R316408  15.845  11.766   6.868  0.0041 -0.2730  0.0814
 1337ERGO    R416409  16.024  11.597   7.028  0.1377 -0.1342  0.0754
 1337ERGO    R516410  15.806  11.588   7.024  0.1414 -0.2298  0.1635
 1337ERGO    C116411  15.864  11.660   7.395  0.2535 -0.0665  0.1147
 1337ERGO    C216412  16.109  11.554   7.642 -0.1066  0.1969  0.1280
 1338ERGO   ROH16413  10.403   5.416   6.435  0.0625  0.0958 -0.0461
 1338ERGO    R116414  10.483   5.269   6.664 -0.0587  0.1420  0.0271
 1338ERGO    R216415  10.729   5.144   6.682 -0.1910 -0.1250  0.0531
 1338ERGO    R316416  10.749   5.289   6.911  0.0138 -0.0056 -0.0379
 1338ERGO    R416417  10.940   5.069   6.945 -0.2164 -0.1936  0.0537
 1338ERGO    R516418  10.780   5.125   7.083 -0.1285  0.0635  0.0553
 1338ERGO    C116419  11.082   5.161   7.313 -0.0388 -0.1214 -0.0313
 1338ERGO    C216420  11.194   5.195   7.625  0.2747 -0.2061  0.1418
 1339ERGO   ROH16421   1.243   9.804   6.576 -0.0905  0.3162 -0.2219
 1339ERGO    R116422   1.351   9.783   6.837 -0.0886  0.0632 -0.2409
 1339ERGO    R216423   1.567   9.932   6.921 -0.1449  0.0471 -0.0708
 1339ERGO    R316424   1.398  10.004   7.122 -0.1728 -0.2356  0.0114
 1339ERGO    R416425   1.661   9.976   7.251 -0.0545  0.1836 -0.1134
 1339ERGO    R516426   1.475   9.878   7.311  0.1254 -0.1256 -0.0286
 1339ERGO    C116427   1.557  10.069   7.632 -0.0281 -0.0025 -0.0612
 1339ERGO    C216428   1.521  10.076   7.936 -0.1071  0.0920 -0.2444
 1340ERGO   ROH16429  14.681   2.953   6.253 -0.1609  0.0209  0.0581
 1340ERGO    R116430  14.487   2.959   6.459 -0.1685 -0.1424  0.0575
 1340ERGO    R216431  14.546   2.891   6.720 -0.1159 -0.1120  0.0546
 1340ERGO    R316432  14.442   3.136   6.774 -0.3088 -0.1944  0.0668
 1340ERGO    R416433  14.533   3.035   7.034  0.2648  0.0821 -0.0127
 1340ERGO    R516434  14.333   3.109   6.986  0.0875 -0.1824  0.2796
 1340ERGO    C116435  14.428   3.349   7.267  0.3052  0.1177 -0.0403
 1340ERGO    C216436  14.562   3.491   7.572 -0.1264  0.1729  0.0117
 1341ERGO   ROH16437   0.989   9.418   6.671 -0.1096  0.0248  0.1007
 1341ERGO    R116438   0.990   9.477   6.948 -0.0850 -0.0162  0.1103
 1341ERGO    R216439   1.075   9.296   7.139  0.0351 -0.0093  0.0712
 1341ERGO    R316440   1.239   9.500   7.213 -0.0438  0.0561  0.0637
 1341ERGO    R416441   1.202   9.342   7.457  0.0544  0.0380  0.0561
 1341ERGO    R516442   1.168   9.556   7.434 -0.0379  0.0191  0.0705
 1341ERGO    C116443   1.430   9.560   7.711 -0.0085  0.1270  0.0403
 1341ERGO    C216444   1.580   9.469   8.092  0.1616  0.2831  0.0999
 1342ERGO   ROH16445   7.103   0.271   5.709 -0.0708  0.0008 -0.0028
 1342ERGO    R116446   6.961   0.324   5.948  0.0030  0.1479  0.0103
 1342ERGO    R216447   6.878   0.123   6.119 -0.3468  0.2126 -0.0705
 1342ERGO    R316448   7.013   0.269   6.304 -0.1018 -0.0834 -0.0096
 1342ERGO    R416449   6.850   0.082   6.461 -0.5388  0.2357 -0.0825
 1342ERGO    R516450   6.856   0.299   6.482 -0.0976  0.2245 -0.0579
 1342ERGO    C116451   6.961   0.195   6.834 -0.4205 -0.0288 -0.0322
 1342ERGO    C216452   7.079  -0.018   7.096  0.0630  0.1132 -0.0618
 1343ERGO   ROH16453  17.836   7.281   6.453  0.0325 -0.1331  0.0213
 1343ERGO    R116454  18.110   7.220   6.422  0.0611 -0.0819  0.1526
 1343ERGO    R216455  18.239   7.032   6.578 -0.0114 -0.1735  0.1161
 1343ERGO    R316456  18.307   6.926   6.337  0.1415 -0.0070  0.0862
 1343ERGO    R416457  18.501   6.813   6.526 -0.0034 -0.1644  0.1273
 1343ERGO    R516458  18.547   6.919   6.341  0.1339 -0.0388  0.2391
 1343ERGO    C116459  18.718   6.586   6.269  0.1447 -0.0027  0.1057
 1343ERGO    C216460  18.966   6.351   6.175 -0.0107 -0.0481  0.1100
 1344ERGO   ROH16461   7.276  10.165   6.396  0.2762  0.3829 -0.2429
 1344ERGO    R116462   7.346  10.264   6.652  0.1001  0.3094 -0.1634
 1344ERGO    R216463   7.186  10.441   6.792 -0.0191  0.2438 -0.2000
 1344ERGO    R316464   7.204  10.253   6.987 -0.1149  0.1746 -0.2591
 1344ERGO    R416465   7.186  10.508   7.131  0.1145  0.1318 -0.1782
 1344ERGO    R516466   7.340  10.355   7.156 -0.0008  0.0128 -0.2598
 1344ERGO    C116467   7.203  10.369   7.512  0.1022  0.0015 -0.2210
 1344ERGO    C216468   7.089  10.290   7.872 -0.3229  0.1448  0.1676
 1345ERGO   ROH16469   5.667  11.317   6.431 -0.0097  0.0147 -0.1528
 1345ERGO    R116470   5.657  11.333   6.713 -0.1046  0.0470 -0.1575
 1345ERGO    R216471   5.594  11.116   6.872 -0.0139  0.0271 -0.1482
 1345ERGO    R316472   5.831  11.177   6.992 -0.0872  0.1947 -0.0850
 1345ERGO    R416473   5.693  11.004   7.184  0.1455 -0.2237 -0.2855
 1345ERGO    R516474   5.775  11.201   7.224 -0.1131 -0.1580 -0.0498
 1345ERGO    C116475   5.972  10.995   7.478  0.1695 -0.2123 -0.3060
 1345ERGO    C216476   6.305  10.824   7.644 -0.0227 -0.1910 -0.3069
 1346W        W16477   3.740   2.189  11.750  0.4855  0.1272 -0.1889
 1347W        W16478   0.173   4.726  12.639  0.0337  0.1965  0.0677
 1348W        W16479  16.577   6.857  15.431  0.0392 -0.7202  0.0640
 1349W        W16480  13.860  14.515   1.110 -0.0818  0.3612 -0.1559
 1350W        W16481  13.067  13.111   5.230  0.1487 -0.2124  0.1680
 1351W        W16482  13.401  14.529   3.735  0.2381  0.0694  0.1037
 1352W        W16483   8.369  10.236   5.384 -0.3466  0.0208 -0.1241
 1353W        W16484  16.730   6.252  11.475  0.1176  0.1708 -0.1003
 1354W        W16485  13.641   4.893  10.969 -0.0467 -0.2125 -0.1551
 1355W        W16486   3.136  15.616  14.597 -0.1025 -0.1295 -0.0826
 1356W        W16487   5.482  14.695  14.729 -0.2336 -0.0336 -0.3887
 1357W        W16488   2.961   6.931   0.436 -0.2502  0.1647  0.1585
 1358W        W16489  12.968  17.351   0.201  0.0514  0.0963 -0.0385
 1359W        W16490   8.145  15.160  10.696 -0.1210 -0.0630  0.2019
 1360W        W16491   6.320   2.183  11.349  0.0343 -0.2319 -0.2272
 1361W        W16492  10.219   5.686   5.010  0.0682 -0.0018 -0.1694
 1362W        W16493  12.546  14.670  14.296  0.0949  0.1695  0.1777
 1363W        W16494  12.047   5.541  11.582  0.0752  0.3255 -0.2688
 1364W        W16495  18.030  11.801  11.699  0.2251 -0.0815  0.0635
 1365W        W16496   4.875   0.415   4.074 -0.0122 -0.0509 -0.0576
 1366W        W16497   7.292  10.144  12.048  0.2400  0.2200  0.0253
 1367W        W16498   0.440   2.766   0.121  0.0911  0.2284 -0.0224
 1368W        W16499  18.379  12.597   0.728  0.1036 -0.0449  0.2603
 1369W        W16500   3.028   5.994  14.519 -0.0005 -0.2978  0.0291
 1370W        W16501  15.534  12.506  12.019  0.1486 -0.2331  0.1950
 1371W        W16502   0.185   8.766   1.005 -0.0910 -0.0638  0.3263
 1372W        W16503  14.902  13.493  10.638  0.2574 -0.1968  0.0904
 1373W        W16504   2.858   1.143  11.940  0.2003  0.0649  0.0538
 1374W        W16505  13.625   8.527  10.873  0.3135  0.1866 -0.3258
 1375W        W16506  13.766   3.927   3.999  0.1713 -0.1520 -0.2851
 1376W        W16507  10.207  14.090   1.970 -0.1194 -0.1670  0.0177
 1377W        W16508   0.261   3.863  10.838 -0.4822 -0.0946 -0.1075
 1378W        W16509   3.833   5.606   2.819 -0.1894 -0.0108  0.0826
 1379W        W16510   3.114  16.235   3.776 -0.2124  0.3248  0.0048
 1380W        W16511  13.238   5.007   5.192  0.0013 -0.1209 -0.0075
 1381W        W16512  11.068  17.113   0.337 -0.0269  0.2242  0.3715
 1382W        W16513   1.895   3.577  14.135  0.0060 -0.3608  0.1725
 1383W        W16514   2.501  10.389   4.353 -0.1509 -0.1530  0.2539
 1384W        W16515  13.097  13.979  14.675  0.1884 -0.1504  0.1323
 1385W        W16516   2.643   8.297   4.304 -0.1771  0.1444 -0.1380
 1386W        W16517   4.596   5.641  12.352 -0.1832  0.2156  0.3212
 1387W        W16518   4.510   2.188  13.891 -0.0527 -0.0779 -0.0662
 1388W        W16519   5.182   5.058   4.793 -0.0818 -0.0281 -0.0025
 1389W        W16520   8.811  10.972   2.315  0.0853 -0.0521 -0.0229
 1390W        W16521   5.690  10.643   0.500  0.1641 -0.0992 -0.4736
 1391W        W16522   9.198  16.022   3.264  0.0067  0.0101  0.0471
 1392W        W16523  10.110  15.580   1.439  0.0094 -0.0810 -0.1254
 1393W        W16524   9.648  14.648  11.133  0.0198 -0.0454  0.3521
 1394W        W16525   8.242   7.177   3.470 -0.0403  0.0848  0.2293
 1395W        W16526   8.069   7.519  15.288 -0.0769  0.0349 -0.0599
 1396W        W16527   0.672  13.334   3.503  0.1892  0.1966 -0.1638
 1397W        W16528  17.663  14.354  13.484  0.1751  0.5728 -0.0929
 1398W        W16529  17.370  18.242  15.121  0.3421 -0.2351 -0.0993
 1399W        W16530  13.069   1.035   4.912  0.0468 -0.1501 -0.2873
 1400W        W16531   4.982  13.297   1.963  0.0542  0.1348  0.1537
 1401W        W16532  17.926   8.836   4.638 -0.0030  0.2110 -0.0390
 1402W        W16533   4.710   4.430  10.191  0.0259  0.2794 -0.0851
 1403W        W16534  14.475  14.826  12.616 -0.0609  0.0379 -0.1839
 1404W        W16535   8.662  17.343   5.470 -0.1742 -0.0798 -0.0411
 1405W        W16536  12.248  17.357   4.343 -0.0185  0.2926 -0.0748
 1406W        W16537   4.792   8.191  13.406 -0.3581  0.1466 -0.0777
 1407W        W16538   1.633   5.104  14.793  0.0855 -0.2074  0.1190
 1408W        W16539  14.695   3.770  14.586 -0.1282 -0.2028  0.1341
 1409W        W16540   4.518   3.597   0.219  0.1936  0.0200  0.0954
 1410W        W16541   5.398  10.415   0.914 -0.0420  0.0606 -0.3310
 1411W        W16542   7.421  15.886   4.067 -0.2199  0.0923  0.0459
 1412W        W16543   6.902  16.109  12.770 -0.4240 -0.0208 -0.1333
 1413W        W16544  10.446   4.663  11.260 -0.0803 -0.1823  0.0203
 1414W        W16545   6.428   9.555   0.272 -0.0310 -0.0962  0.2329
 1415W        W16546   0.065   0.812  14.181  0.0897 -0.0731 -0.1223
 1416W        W16547  17.618   6.781  12.572 -0.0031 -0.1826 -0.1299
 1417W        W16548  11.638   9.601   4.306 -0.0349  0.1230  0.1140
 1418W        W16549   8.182  18.506   5.437 -0.4535 -0.3312  0.0720
 1419W        W16550   0.361   3.240  12.172  0.1275  0.1044  0.0923
 1420W        W16551  13.577  11.058  12.819 -0.2221 -0.2557  0.1727
 1421W        W16552  16.830   6.291  15.759  0.1939  0.1387  0.2152
 1422W        W16553   6.236   5.604  11.422 -0.1404 -0.3867 -0.1366
 1423W        W16554  16.445   3.626  11.143 -0.1494  0.2169  0.0582
 1424W        W16555   1.869  15.001   0.144 -0.0214 -0.1500  0.2997
 1425W        W16556   6.208  17.667   0.562 -0.1794  0.1963  0.2854
 1426W        W16557   2.179   4.785  12.292 -0.0299 -0.0414 -0.1841
 1427W        W16558  12.995   2.904   4.667 -0.0277 -0.2010  0.0062
 1428W        W16559   6.769  16.034  10.951  0.4819 -0.1338 -0.2845
 1429W        W16560  15.833   6.174   3.463  0.0197  0.0810 -0.1515
 1430W        W16561  13.190   6.270  11.480  0.0257  0.0003 -0.1771
 1431W        W16562   9.803   3.379  15.107 -0.2478  0.0162  0.0188
 1432W        W16563  17.291  10.028  12.337 -0.2750  0.1618 -0.0152
 1433W        W16564   2.911   8.442   5.641 -0.0850 -0.0732 -0.2389
 1434W        W16565   7.428  11.072   0.374 -0.0577 -0.2264 -0.1704
 1435W        W16566  10.811  12.951  15.601 -0.2913  0.1274  0.0025
 1436W        W16567   2.257   6.826  10.479 -0.2421 -0.0213  0.0416
 1437W        W16568   5.623  10.844   2.931  0.0719  0.0878 -0.3061
 1438W        W16569   4.737   1.956  13.537 -0.0090  0.0251 -0.2778
 1439W        W16570  16.879   1.205   0.848 -0.3267  0.2086 -0.2135
 1440W        W16571  12.978  17.894  13.466  0.3334 -0.2767 -0.0491
 1441W        W16572  13.658  14.511  14.319 -0.1377  0.1025 -0.0453
 1442W        W16573  10.620   0.764   9.823 -0.1507  0.2635  0.1141
 1443W        W16574   0.134   7.229  14.337  0.0628 -0.0348 -0.2605
 1444W        W16575  12.874   6.595   0.746 -0.1321 -0.0709  0.0465
 1445W        W16576   1.046  13.362  11.052  0.0071  0.0529 -0.2467
 1446W        W16577  17.855   0.445   0.037 -0.2075 -0.2026 -0.1278
 1447W        W16578   5.907   9.233   0.017 -0.0390 -0.2055  0.1419
 1448W        W16579   6.257   2.665   5.255 -0.3303 -0.1869 -0.0096
 1449W        W16580  16.084   0.543  13.131  0.0853 -0.3447  0.1304
 1450W        W16581  12.671   4.005  13.183 -0.2175  0.0898  0.0453
 1451W        W16582   6.577  16.755   5.483 -0.0035 -0.2776  0.1287
 1452W        W16583  17.724  18.211   2.256  0.1390  0.0725 -0.2018
 1453W        W16584   6.238   1.080   2.034 -0.2313  0.1667 -0.0033
 1454W        W16585  12.266   8.189  14.883  0.2652  0.1599 -0.1241
 1455W        W16586   7.322  17.182  13.610  0.0900  0.0593 -0.2157
 1456W        W16587   8.996   2.932   1.853 -0.0185  0.0631  0.1032
 1457W        W16588  14.624  17.664   4.473 -0.0507 -0.0676  0.0810
 1458W        W16589   4.255   9.980  11.085 -0.1597 -0.3851  0.0157
 1459W        W16590  11.690   9.687   2.710  0.1327  0.1486 -0.0183
 1460W        W16591  16.118  13.825   5.598  0.0268  0.2413  0.2276
 1461W        W16592   3.175   0.313  10.913  0.0010  0.1367 -0.0935
 1462W        W16593   4.550   2.330   0.836  0.0340 -0.1144  0.1176
 1463W        W16594   3.658   9.755  12.761  0.0132 -0.1928 -0.0593
 1464W        W16595  12.564  13.181   6.162  0.0853 -0.0743 -0.0568
 1465W        W16596  17.852   3.108  14.168 -0.0136 -0.1231 -0.0847
 1466W        W16597   3.698   1.423  13.016 -0.0096  0.1835 -0.1318
 1467W        W16598   2.694   7.450  15.559  0.0994 -0.1044 -0.5563
 1468W        W16599   7.399  17.920   5.200 -0.3439  0.1420  0.1808
 1469W        W16600  12.727   1.721  15.804  0.1426 -0.0423  0.1514
 1470W        W16601   5.420   8.384  13.648  0.1719 -0.3897  0.0031
 1471W        W16602   0.751  13.986   0.403 -0.0599  0.0396  0.0599
 1472W        W16603  17.226  12.667  10.222 -0.0968 -0.1795  0.1922
 1473W        W16604   0.655  12.565   1.063 -0.1842 -0.0043  0.1616
 1474W        W16605   5.040   8.675  11.442 -0.2589  0.1379  0.4461
 1475W        W16606   1.090  13.816   0.843  0.4172  0.2934 -0.0631
 1476W        W16607  11.099   9.135   0.043  0.2390  0.0377  0.0832
 1477W        W16608  16.837   2.331   4.103 -0.1571 -0.1487 -0.1553
 1478W        W16609  14.434   6.301   4.711  0.1907 -0.3989  0.0639
 1479W        W16610  16.594   4.208   0.937 -0.1750  0.1116  0.1388
 1480W        W16611  17.705   4.193  13.043 -0.0039  0.0818  0.0673
 1481W        W16612   9.056   3.968  15.333  0.0390  0.0054  0.0726
 1482W        W16613  16.275   6.408   3.056 -0.1792  0.0750  0.1663
 1483W        W16614   0.430  18.203  14.273  0.0760  0.2105 -0.2273
 1484W        W16615  15.524  11.838  12.805  0.1812  0.0215 -0.4218
 1485W        W16616  13.981  11.032   0.710 -0.0092  0.2425  0.2531
 1486W        W16617  14.496   6.777  15.139  0.0534  0.1302  0.0333
 1487W        W16618  12.102  11.949   1.098 -0.1403  0.1114  0.0407
 1488W        W16619   5.080   0.631   1.145 -0.1961 -0.0948  0.0725
 1489W        W16620  16.481   7.330  15.117 -0.0023 -0.0295 -0.5547
 1490W        W16621   7.519   8.162  10.495 -0.1540  0.1203 -0.2992
 1491W        W16622   6.408   3.773   3.205  0.2824  0.0593  0.0604
 1492W        W16623  16.409  17.588   5.684 -0.1669  0.0341 -0.0457
 1493W        W16624   2.254  10.775   4.846 -0.2073  0.0650 -0.4816
 1494W        W16625  11.206  11.990  15.835 -0.0444 -0.1327  0.1973
 1495W        W16626  17.200  16.640  15.610  0.0566  0.0321 -0.0613
 1496W        W16627  12.851   7.206  13.348  0.2534 -0.5223 -0.2205
 1497W        W16628   0.095  18.522   0.337 -0.1236 -0.0247  0.4760
 1498W        W16629  15.070  14.156   3.944  0.2055 -0.1260 -0.3734
 1499W        W16630   4.833   8.903  14.288  0.1242  0.0554  0.0191
 1500W        W16631  14.386  10.733  13.031  0.1362 -0.0959  0.2437
 1501W        W16632  13.406  13.767   6.202  0.2582 -0.1967 -0.0058
 1502W        W16633  13.745   5.367  14.077 -0.4115 -0.2633 -0.4629
 1503W        W16634   6.591  10.410  15.130  0.1806  0.0942  0.1715
 1504W        W16635  11.039  13.817   2.546 -0.0024 -0.0015 -0.0312
 1505W        W16636   3.007  14.408   6.306 -0.0126 -0.4086  0.3581
 1506W        W16637   6.625  11.797  11.435  0.2672  0.1724  0.2501
 1507W        W16638  16.189   0.661   0.163 -0.2067  0.1472 -0.3314
 1508W        W16639   9.054   6.542   3.919  0.0304  0.2852 -0.0038
 1509W        W16640   2.552  10.175   3.927  0.0030 -0.0649 -0.2373
 1510W        W16641  15.279   6.886  12.547  0.0134  0.0108 -0.2614
 1511W        W16642  15.976  12.375   2.840  0.1201  0.0587  0.0385
 1512W        W16643   2.682   6.525   4.074 -0.1694  0.2983 -0.2024
 1513W        W16644  13.973  17.926  13.365 -0.2814 -0.0865 -0.1931
 1514W        W16645   3.504  13.381  13.273  0.3778 -0.0925 -0.1162
 1515W        W16646   2.750  14.136   2.822 -0.1118 -0.1085 -0.0302
 1516W        W16647  13.320   7.180  11.911 -0.2014 -0.2738  0.0403
 1517W        W16648  18.085  17.388  15.177  0.0445  0.2901  0.1226
 1518W        W16649   9.542  10.928   3.766  0.3323 -0.0081 -0.3410
 1519W        W16650  13.531   9.866   1.501 -0.1071 -0.3176  0.1561
 1520W        W16651  10.111   5.621  14.611  0.4414  0.1772  0.2736
 1521W        W16652   6.702   7.089   6.096 -0.1500  0.3212 -0.0224
 1522W        W16653   8.510   8.774   1.314  0.0366  0.2948 -0.1379
 1523W        W16654   0.095   0.782  15.292  0.1652 -0.0424  0.2201
 1524W        W16655   9.062  14.698  13.077 -0.2141  0.1971  0.2200
 1525W        W16656  17.961   0.380   1.598 -0.1493 -0.1612 -0.0282
 1526W        W16657  11.379   8.394   0.849 -0.0433  0.1346  0.1381
 1527W        W16658   5.404   1.440  12.171  0.3765 -0.2567 -0.0692
 1528W        W16659  15.335  13.765  14.819  0.0177  0.0396  0.1511
 1529W        W16660   6.751   1.267  15.452 -0.0854  0.1918  0.3584
 1530W        W16661   7.074   3.995   3.315 -0.1268  0.1150 -0.0124
 1531W        W16662   9.871   2.703   0.045  0.2913 -0.4022  0.0471
 1532W        W16663  14.315   3.146   0.367  0.0050 -0.0059  0.1280
 1533W        W16664  15.309   3.884  12.985  0.1789 -0.3541 -0.0039
 1534W        W16665   9.453  13.035   3.776 -0.1755 -0.1790 -0.0560
 1535W        W16666   0.247   5.382  13.491 -0.1519  0.0105  0.2259
 1536W        W16667   2.322  14.196  12.976 -0.1693 -0.0787  0.3980
 1537W        W16668  13.527   1.750  12.102 -0.3262 -0.3501 -0.2218
 1538W        W16669  18.036   5.862  12.688 -0.1569  0.2030 -0.1375
 1539W        W16670  12.189  10.483  14.527  0.1602  0.1485  0.2489
 1540W        W16671   7.723   5.991   3.951 -0.1979 -0.0935  0.0093
 1541W        W16672   6.758   5.518  13.130  0.1239 -0.0792  0.4947
 1542W        W16673  13.265  17.904  14.349 -0.1413 -0.1934  0.1704
 1543W        W16674  12.025   1.967  15.875 -0.0067  0.0972 -0.2156
 1544W        W16675   4.089   0.433  12.061 -0.3457 -0.0525  0.0722
 1545W        W16676  11.414  13.973   3.025  0.0748 -0.0520 -0.1628
 1546W        W16677  15.833  15.562   2.815 -0.1621  0.3621 -0.1201
 1547W        W16678  10.126   3.119   1.009 -0.0549 -0.2192 -0.3787
 1548W        W16679  12.848   1.808   0.456 -0.1771 -0.3208  0.1022
 1549W        W16680  18.199  13.408  12.684 -0.1449  0.0463  0.0249
 1550W        W16681   3.359   8.801   3.167  0.0561  0.0797  0.0894
 1551W        W16682  11.777  14.508   1.078  0.3100  0.1189 -0.0589
 1552W        W16683  13.040   0.781   2.669 -0.4079 -0.0181  0.1827
 1553W        W16684  10.284  11.219   2.008 -0.0768  0.2686 -0.2456
 1554W        W16685   0.843  10.798   0.786  0.2289  0.1883 -0.0049
 1555W        W16686   1.335  15.664   0.688 -0.0743  0.3209  0.1736
 1556W        W16687   2.787  15.642   5.253  0.0517  0.0829 -0.1420
 1557W        W16688  17.753   4.287  10.967  0.2191 -0.1339 -0.0181
 1558W        W16689   1.033   2.801  13.542  0.4562 -0.1920  0.3487
 1559W        W16690  17.416   9.056   4.644 -0.0348 -0.1671  0.4072
 1560W        W16691  13.612  17.466  12.302 -0.0733 -0.2081 -0.1688
 1561W        W16692  17.262   4.828   1.034 -0.0615  0.4174 -0.0595
 1562W        W16693   4.133  10.656  12.891  0.0673  0.2747  0.0954
 1563W        W16694   3.767   6.619   1.408 -0.1050 -0.2276  0.2381
 1564W        W16695   4.357   1.532   1.409 -0.1731  0.2060 -0.1475
 1565W        W16696   2.962   9.869   0.334 -0.0440 -0.1009 -0.4256
 1566W        W16697   3.941  14.316   5.463  0.0879 -0.1935 -0.2135
 1567W        W16698   0.652   9.370   0.583 -0.0233  0.1809  0.3678
 1568W        W16699  13.044   0.727   1.867 -0.2544  0.2822 -0.5029
 1569W        W16700   0.736   7.193   5.346  0.2392  0.1386  0.1611
 1570W        W16701   0.800   1.788   1.605  0.0165 -0.6478  0.0219
 1571W        W16702  15.906   1.383   0.579  0.3825 -0.0092 -0.0033
 1572W        W16703   0.626  11.556   0.608 -0.0328 -0.2528  0.1258
 1573W        W16704   2.335   2.724   0.101 -0.1525  0.0702 -0.0923
 1574W        W16705   1.396   4.137   0.165  0.1375 -0.1204 -0.1907
 1575W        W16706  18.035  13.717   5.225  0.2723 -0.0517 -0.1773
 1576W        W16707   9.045  16.929   2.885 -0.2241  0.1956  0.0319
 1577W        W16708  17.143  12.333  12.696  0.1274 -0.2476 -0.1482
 1578W        W16709   2.792  11.237  10.560  0.1709 -0.2910 -0.0476
 1579W        W16710   8.432  14.026  13.858  0.4267  0.0426 -0.5152
 1580W        W16711   4.208   1.713  11.687 -0.3712 -0.1427  0.1002
 1581W        W16712   8.845  16.664   4.501 -0.0770  0.3238  0.0662
 1582W        W16713   6.184   9.815   3.277 -0.3856 -0.1413  0.2112
 1583W        W16714  15.728  12.760   2.399 -0.1311 -0.1116  0.1473
 1584W        W16715   7.773   1.981  10.841  0.0671  0.0402 -0.2141
 1585W        W16716  16.566  14.908  12.423  0.0323  0.3761  0.2522
 1586W        W16717  10.222  10.590   4.897  0.0473  0.1087 -0.0165
 1587W        W16718   3.610   4.962   2.291 -0.0612 -0.1473 -0.1505
 1588W        W16719   7.582   1.773  12.157  0.1359  0.0558 -0.0704
 1589W        W16720  17.737  12.405  13.315 -0.0889  0.1243 -0.1874
 1590W        W16721  11.744  17.965   3.899 -0.3046  0.1020  0.0981
 1591W        W16722  12.957  12.197  15.703  0.3850 -0.0064  0.1734
 1592W        W16723   2.004  15.931  12.575 -0.1348  0.2316 -0.0411
 1593W        W16724   4.367  12.220   5.614 -0.1108  0.0489  0.0328
 1594W        W16725  15.519  14.391  12.850 -0.0053 -0.2068  0.0049
 1595W        W16726   0.850   3.236  12.250 -0.0732 -0.2320 -0.5761
 1596W        W16727  17.024   4.724  14.087 -0.0832  0.0561 -0.0472
 1597W        W16728  16.264  10.334   2.254 -0.0501  0.0873 -0.0739
 1598W        W16729   3.639  12.298   5.292 -0.1318 -0.1987 -0.3440
 1599W        W16730  11.859   2.499  15.240 -0.0266 -0.2154  0.0475
 1600W        W16731   2.382  15.432  11.629  0.0814  0.1821 -0.1788
 1601W        W16732  11.341   6.911   4.666  0.2658 -0.1332  0.0433
 1602W        W16733  17.925  14.579   1.275 -0.1472 -0.0185  0.0849
 1603W        W16734   2.224   5.598  14.343  0.1549 -0.1591 -0.3735
 1604W        W16735  11.496   3.941  13.934  0.1469  0.0636  0.0734
 1605W        W16736   6.900  10.079  15.237  0.0387 -0.1048  0.3822
 1606W        W16737   1.669  12.439  15.021  0.5565  0.1547 -0.1028
 1607W        W16738  11.671  18.050  15.187  0.1770 -0.0603  0.0230
 1608W        W16739  16.109   1.587   1.425 -0.0305 -0.0545  0.3636
 1609W        W16740   9.578   4.829   2.849  0.2550  0.1458 -0.1837
 1610W        W16741  14.891   9.708   3.675 -0.2190  0.1175 -0.2714
 1611W        W16742  11.994   7.945   4.749 -0.1392 -0.1680  0.2030
 1612W        W16743   9.552  11.658  14.366 -0.1019 -0.1260 -0.2310
 1613W        W16744   1.903   4.825   3.724 -0.0702 -0.2864 -0.0445
 1614W        W16745  16.946  17.992  13.010  0.2370 -0.2577 -0.0694
 1615W        W16746   9.234   6.349  15.314  0.0880  0.0142  0.0961
 1616W        W16747   3.336   1.074   0.686 -0.0951 -0.2666 -0.0438
 1617W        W16748  17.567  11.658  15.270  0.2042 -0.3293  0.2621
 1618W        W16749   7.020   0.516   0.169 -0.1187  0.4583  0.3729
 1619W        W16750  11.725   7.890   2.289 -0.0687  0.1879 -0.2226
 1620W        W16751   2.896  14.436   0.782  0.3408  0.2492  0.0178
 1621W        W16752   8.171  14.500   4.284  0.0524 -0.0677 -0.3931
 1622W        W16753   1.548  17.601   1.874  0.1531 -0.2092  0.0078
 1623W        W16754   8.714   5.356   1.283  0.2666 -0.1938 -0.1507
 1624W        W16755   4.276   7.965   0.806 -0.3929 -0.0430  0.0862
 1625W        W16756  17.335   2.935  11.331 -0.1979 -0.2008  0.1454
 1626W        W16757  13.653   6.564   4.817 -0.1357  0.0090 -0.0012
 1627W        W16758  13.840   4.849  11.806 -0.0970  0.1822 -0.0047
 1628W        W16759   7.331   9.138   2.913  0.2147 -0.2257 -0.2027
 1629W        W16760  17.626   7.737   2.789  0.2501  0.3081 -0.0285
 1630W        W16761   4.409   1.545  13.703  0.0977 -0.0947  0.0543
 1631W        W16762  17.380   5.579   1.819  0.3445  0.4739  0.2641
 1632W        W16763   3.978   7.504  14.752  0.1045 -0.3995  0.0426
 1633W        W16764   2.548   1.605   0.860  0.0879 -0.2661 -0.1059
 1634W        W16765   1.842  15.575   5.337  0.2186  0.0466  0.0460
 1635W        W16766   4.697   9.744   0.521 -0.0495  0.0820 -0.0146
 1636W        W16767   9.259  15.708   0.332 -0.2358  0.1411  0.3580
 1637W        W16768   7.566   9.317  12.029 -0.5346 -0.0952  0.1653
 1638W        W16769   0.677  12.864  13.187 -0.0949  0.0726  0.2031
 1639W        W16770   7.098  12.025  11.445 -0.0067  0.0246  0.3137
 1640W        W16771   0.617   3.045  14.597  0.0111  0.0286 -0.0448
 1641W        W16772   0.310   2.462  13.521 -0.2021  0.0173  0.1480
 1642W        W16773   2.944  15.442   4.768 -0.1362 -0.3061 -0.0711
 1643W        W16774   1.318  15.302   5.312 -0.2394  0.1546 -0.2874
 1644W        W16775  14.076  15.902  12.636 -0.2802  0.0166 -0.1701
 1645W        W16776   9.865  14.749  12.058 -0.3134 -0.1979 -0.0449
 1646W        W16777  12.897  15.318  15.503  0.1637  0.1464 -0.0037
 1647W        W16778  17.800   9.838  10.470  0.0942  0.3065  0.2280
 1648W        W16779   9.909  13.928   3.119 -0.0515 -0.2888 -0.0244
 1649W        W16780  15.173   9.428   2.276  0.0739  0.1010 -0.1763
 1650W        W16781  11.688  10.511  13.892  0.0569 -0.0018 -0.0974
 1651W        W16782  12.862   2.365   2.900  0.1615  0.0285  0.0617
 1652W        W16783   1.534  12.751   0.213 -0.0561  0.1378 -0.0581
 1653W        W16784   9.026  17.719  13.814 -0.1040 -0.1908  0.2289
 1654W        W16785  18.530   1.498  12.072  0.0032  0.2116  0.1703
 1655W        W16786  11.942  10.544   4.770 -0.0640  0.0279  0.1615
 1656W        W16787   7.216   9.836  11.542  0.1026 -0.3485  0.2493
 1657W        W16788  10.672   8.741   0.678  0.2781  0.1298  0.0352
 1658W        W16789  14.160  11.629   9.928 -0.1143  0.0382 -0.0167
 1659W        W16790  11.625   4.862  10.938  0.1116  0.1462 -0.0636
 1660W        W16791   4.695  14.612  11.153 -0.0783  0.0164  0.4116
 1661W        W16792   3.485  10.505  13.917  0.1740 -0.0033  0.1049
 1662W        W16793  17.692   3.601  15.605  0.0930  0.0460 -0.0073
 1663W        W16794   8.594   2.608  10.206  0.0227  0.0094 -0.2255
 1664W        W16795   0.319   2.929   1.192 -0.2009  0.2775 -0.2180
 1665W        W16796   1.590   5.233   5.713  0.0034  0.2016  0.0982
 1666W        W16797   3.236  11.545   1.644 -0.0427 -0.3456  0.0302
 1667W        W16798  11.033  10.225   2.094 -0.0003  0.0047  0.2184
 1668W        W16799   5.056   2.281   3.881  0.0201 -0.0848 -0.0703
 1669W        W16800   2.323  16.931   2.978 -0.0256 -0.1312  0.3708
 1670W        W16801  17.232  17.965  12.581  0.1128 -0.2896 -0.1786
 1671W        W16802  17.997   1.230   0.524  0.0553 -0.0864  0.2749
 1672W        W16803   9.068   6.191   2.153 -0.2241 -0.0349 -0.2882
 1673W        W16804  17.668  18.397   4.634 -0.0727  0.5600  0.0516
 1674W        W16805  16.993  12.868   0.316  0.0991 -0.2801  0.1614
 1675W        W16806  14.148   2.983   4.152  0.2690  0.2411 -0.1530
 1676W        W16807  13.121   0.935  15.314 -0.1626 -0.3433 -0.0486
 1677W        W16808  10.362   8.547  14.975  0.0080 -0.2028 -0.0143
 1678W        W16809  12.495   6.363   2.031  0.1899 -0.0900 -0.0314
 1679W        W16810  12.164  14.929  15.059 -0.1865 -0.1022  0.2414
 1680W        W16811   4.916  16.748  14.088 -0.2266  0.1041 -0.0632
 1681W        W16812   2.020  17.705   1.847  0.1218  0.0956 -0.1651
 1682W        W16813   1.536  18.379  10.832  0.1311 -0.0055  0.0366
 1683W        W16814  15.887   6.828  14.962  0.2052 -0.4597 -0.2743
 1684W        W16815  12.524   1.356   4.371  0.0453  0.0760  0.2105
 1685W        W16816   2.064  11.366  15.641  0.2126  0.2173  0.2591
 1686W        W16817   5.465   4.640  14.587 -0.2430  0.2764 -0.4705
 1687W        W16818  15.614  17.184  11.811 -0.1708 -0.0449 -0.2770
 1688W        W16819  12.587  11.594  14.124 -0.3211 -0.2029  0.3316
 1689W        W16820   5.826   8.161  15.835 -0.2017  0.0041 -0.1602
 1690W        W16821   2.509   5.480   1.591 -0.2462  0.0563  0.2010
 1691W        W16822  16.352   2.981   5.874 -0.2233  0.0854 -0.1537
 1692W        W16823   9.771  14.151  13.082  0.0595 -0.0128 -0.1015
 1693W        W16824  11.836  17.174  13.626  0.0385 -0.0948 -0.2306
 1694W        W16825  15.031  12.671   0.740  0.4035  0.1997 -0.0775
 1695W        W16826   5.735   8.862  12.743 -0.0813 -0.3025  0.3168
 1696W        W16827   3.598   0.301  15.507 -0.0371 -0.1473 -0.0631
 1697W        W16828  11.212   4.953   3.521 -0.5459 -0.3035  0.1009
 1698W        W16829   7.236   4.781   0.692 -0.1689 -0.2082 -0.0263
 1699W        W16830  18.472  14.814  13.691 -0.1795  0.1856 -0.1844
 1700W        W16831   7.143  14.242  12.319 -0.0380 -0.0109  0.3518
 1701W        W16832  11.835  17.711   5.133  0.2964  0.0674  0.1982
 1702W        W16833   1.118  16.651   4.912 -0.1351  0.1923  0.3376
 1703W        W16834  16.483  14.399  12.468 -0.4165 -0.0309  0.1883
 1704W        W16835   2.462  11.031  10.884 -0.3079 -0.3670 -0.0266
 1705W        W16836   1.230   9.551   2.134  0.5737 -0.0345 -0.5699
 1706W        W16837   4.022  13.099   2.103 -0.1500  0.0981 -0.1217
 1707W        W16838   5.910   5.727   0.342  0.2111  0.1532 -0.1050
 1708W        W16839   5.735  11.663  11.488 -0.0784 -0.0741 -0.0257
 1709W        W16840   9.090   6.613  13.727  0.1266  0.3895 -0.2604
 1710W        W16841  15.273  16.750   2.208 -0.0909  0.4665  0.1542
 1711W        W16842  10.713  13.540  10.127  0.0369  0.0335 -0.2010
 1712W        W16843   8.384  16.164  12.152 -0.0463  0.2230  0.1034
 1713W        W16844   7.850  11.129   3.949  0.0378  0.0156  0.0872
 1714W        W16845  16.162   6.450   0.497  0.0487  0.0851  0.0556
 1715W        W16846  13.424  16.491  12.516 -0.0407  0.0535  0.2644
 1716W        W16847   0.665   1.538  11.357  0.1349 -0.4324  0.3459
 1717W        W16848  14.037  13.383   4.674 -0.2080  0.1484 -0.2344
 1718W        W16849  17.684   1.798   2.476  0.0644  0.1985  0.4839
 1719W        W16850   5.126   9.535  12.549  0.1131  0.1876 -0.0709
 1720W        W16851  18.173   0.996  12.946  0.1167 -0.1423 -0.0944
 1721W        W16852   3.052  17.600  14.024 -0.1494  0.1909 -0.0564
 1722W        W16853  10.876   3.942   1.613 -0.0661  0.2767  0.3006
 1723W        W16854  14.240   2.214   2.127  0.1442  0.1524 -0.1420
 1724W        W16855   1.395  18.024  12.470  0.0005  0.1407 -0.2994
 1725W        W16856  18.010   1.107   4.596  0.1202 -0.0798 -0.1677
 1726W        W16857  13.950   1.822  15.816  0.0502  0.0745 -0.0547
 1727W        W16858  13.281  15.058   0.383  0.2885 -0.1119  0.1767
 1728W        W16859   5.795  15.706   2.038  0.0273  0.4247 -0.1494
 1729W        W16860   3.454  13.345   3.449  0.1363  0.0907  0.0492
 1730W        W16861  18.357   8.090   2.243 -0.3074 -0.4301 -0.1297
 1731W        W16862   1.098  18.034  10.779  0.3363 -0.1716  0.5529
 1732W        W16863   7.362  13.542   3.697  0.1635 -0.1655 -0.3607
 1733W        W16864   4.882  16.114  14.664 -0.0566 -0.0127 -0.2250
 1734W        W16865   9.912  14.506  14.167 -0.0435 -0.1780  0.2990
 1735W        W16866  13.547   6.092  12.990  0.0993  0.0201 -0.3724
 1736W        W16867  16.763  13.211   6.128 -0.1556 -0.1196 -0.3537
 1737W        W16868  14.071   2.611  15.394 -0.0208 -0.0469 -0.3390
 1738W        W16869   0.220   8.125   6.287  0.1612  0.1998 -0.0941
 1739W        W16870   7.266   5.798   5.406 -0.2059  0.1856 -0.0128
 1740W        W16871   2.014  13.829   3.175 -0.0669 -0.2818  0.0063
 1741W        W16872  13.194  12.045   1.403 -0.1387 -0.0468  0.1373
 1742W        W16873   0.076   1.968  14.850 -0.1993  0.1729  0.0156
 1743W        W16874  14.849  16.159   0.988 -0.0264  0.0021  0.1737
 1744W        W16875   5.194   0.792  12.174 -0.2342 -0.3417 -0.2261
 1745W        W16876   4.413   0.241   3.692  0.0153 -0.1710 -0.1239
 1746W        W16877   3.023   5.748  13.002 -0.0043 -0.2470 -0.0195
 1747W        W16878   9.074   9.914   2.657  0.1141  0.1702 -0.1263
 1748W        W16879   7.268  15.925   0.361 -0.1577 -0.1056  0.1366
 1749W        W16880  14.686   9.493   2.038  0.3184  0.3057  0.0635
 1750W        W16881  16.418  11.690   0.813  0.1782 -0.0364 -0.2351
 1751W        W16882  17.674  10.717  10.849  0.0767  0.3146  0.0883
 1752W        W16883   0.818   2.002  12.194  0.1480  0.1387  0.2611
 1753W        W16884   7.359   7.501   3.319  0.2223 -0.0250  0.0350
 1754W        W16885  14.209  15.076   5.144  0.0440 -0.5878  0.0458
 1755W        W16886  18.294  14.790  11.251 -0.0975 -0.1535 -0.1855
 1756W        W16887   6.792  14.196   3.299 -0.1861 -0.4018  0.1132
 1757W        W16888   6.201   6.683   0.315  0.0474  0.1902 -0.3981
 1758W        W16889  15.994   6.909   2.902  0.2833  0.1888 -0.0931
 1759W        W16890   7.608  12.121   3.440 -0.0196  0.0929 -0.1670
 1760W        W16891  12.728   2.641  11.151 -0.0730  0.3215  0.3956
 1761W        W16892  11.466   8.305   4.019  0.1686 -0.0108 -0.1514
 1762W        W16893   9.988  12.801  12.014 -0.1023 -0.5488 -0.2442
 1763W        W16894   5.535   7.121   1.007  0.0846  0.1957 -0.1349
 1764W        W16895   9.694  12.467   3.191 -0.1836 -0.0331  0.0048
 1765W        W16896   5.484   0.997   2.781 -0.1821  0.0257 -0.1716
 1766W        W16897   6.228  10.848   2.185 -0.2285  0.1502  0.3960
 1767W        W16898   7.677   8.353  10.047  0.1536  0.0994 -0.2104
 1768W        W16899   4.226   4.586   4.951  0.0488 -0.0036  0.0493
 1769W        W16900  14.859   1.466   1.599 -0.1009  0.1647 -0.3067
 1770W        W16901   9.007   8.715  15.458 -0.3438  0.0507 -0.0765
 1771W        W16902  18.026   0.455  11.127 -0.0474  0.0339 -0.0656
 1772W        W16903   3.943   4.848   4.589 -0.1574  0.2630  0.1030
 1773W        W16904   0.848  16.402  14.967 -0.0263 -0.2274 -0.1593
 1774W        W16905  16.712   3.608  13.992 -0.1991  0.0406 -0.0201
 1775W        W16906   3.950  11.638  11.938  0.3734  0.0472 -0.0565
 1776W        W16907   4.612  15.132   0.471  0.0120 -0.2817  0.0179
 1777W        W16908   5.992  10.532  14.361 -0.0547  0.1328 -0.3006
 1778W        W16909  12.597  13.245  13.745 -0.2592  0.1115  0.2019
 1779W        W16910   9.938  18.346  14.991 -0.0636  0.4299 -0.0006
 1780W        W16911  13.464   3.405  13.090  0.0367 -0.0841  0.1761
 1781W        W16912   3.310  17.641   0.982 -0.3038 -0.0075 -0.1466
 1782W        W16913   2.243   2.631   1.158  0.3148  0.1418 -0.1797
 1783W        W16914  17.917  12.096  12.042  0.2493 -0.2162 -0.1131
 1784W        W16915   7.094  15.528  15.479 -0.3820  0.2211  0.0450
 1785W        W16916   3.108   7.301  12.174 -0.1317  0.0867  0.1169
 1786W        W16917   3.778   9.335   0.828  0.1341 -0.0625  0.1718
 1787W        W16918  14.539   7.285   1.334 -0.0892 -0.2478  0.2221
 1788W        W16919  17.617  15.959  12.459  0.0512 -0.0541  0.1245
 1789W        W16920   8.800   5.145   0.136 -0.0575  0.0263  0.3827
 1790W        W16921   1.793  10.617   2.873 -0.0775  0.0191 -0.4040
 1791W        W16922   4.619  18.117  12.826 -0.1966 -0.1409 -0.2146
 1792W        W16923   1.042  12.370  12.535  0.3896 -0.1781  0.1331
 1793W        W16924  14.392  12.519   1.375 -0.0599 -0.2106  0.0963
 1794W        W16925   0.596   3.825  13.450 -0.0379 -0.0622  0.2145
 1795W        W16926  10.133  15.756   2.208 -0.0226  0.0709 -0.0134
 1796W        W16927  12.046  10.743  13.591 -0.0465 -0.0852  0.2940
 1797W        W16928  17.954   0.344   0.982  0.1261  0.1245  0.0285
 1798W        W16929  16.133  16.510   0.639  0.0405  0.1926 -0.1844
 1799W        W16930   5.497  14.681  13.504  0.0320 -0.2172 -0.1102
 1800W        W16931   1.484  16.653  12.702  0.1479  0.2653 -0.0149
 1801W        W16932  14.617   1.008   2.615 -0.2187 -0.1310  0.1044
 1802W        W16933  11.094  15.941  10.512  0.1459  0.1601  0.2153
 1803W        W16934  18.460   1.406   4.709  0.0835  0.1005  0.0813
 1804W        W16935  14.822   1.464  13.712  0.1743 -0.0153  0.0573
 1805W        W16936  17.925   6.775   0.324 -0.3083  0.0591 -0.0455
 1806W        W16937  13.561  13.417   2.969  0.1582 -0.3461 -0.0549
 1807W        W16938  15.508   3.575  12.564  0.0723 -0.1515  0.0204
 1808W        W16939  10.134   8.847  15.334  0.0436  0.0934  0.1127
 1809W        W16940   3.226  13.096   2.988 -0.0905  0.2302 -0.1272
 1810W        W16941   9.639   2.975  12.503 -0.0085 -0.1209 -0.1689
 1811W        W16942  15.976  14.508  13.229 -0.4089 -0.0947  0.0160
 1812W        W16943  15.002   5.561   0.028  0.0025 -0.0130  0.2620
 1813W        W16944   0.420   4.981   5.076 -0.1659  0.3622  0.0683
 1814W        W16945   9.342   2.819   3.012 -0.0098  0.0426 -0.0343
 1815W        W16946   4.194   3.078  15.540 -0.1504 -0.1452 -0.1968
 1816W        W16947   9.526  17.712   2.618 -0.1737 -0.2166  0.0089
 1817W        W16948   9.904   0.105  14.412 -0.2971  0.0778  0.1338
 1818W        W16949   8.130   4.220  15.240 -0.0046  0.2602  0.3169
 1819W        W16950  12.220   5.410   1.294  0.2132  0.0942 -0.0885
 1820W        W16951   8.006  16.398   2.538 -0.0094  0.1438 -0.0502
 1821W        W16952  12.770   8.249   4.067 -0.0280  0.0017  0.0950
 1822W        W16953  14.707   9.871  13.533  0.2940 -0.1213  0.1583
 1823W        W16954  15.970   3.280   4.510 -0.2167 -0.0286 -0.2351
 1824W        W16955   7.817  16.204   1.463 -0.0089 -0.1263  0.1860
 1825W        W16956  10.062  12.156  14.896  0.1110 -0.1336 -0.2106
 1826W        W16957  16.132  15.455   3.893  0.1738  0.0461  0.1763
 1827W        W16958  11.615  15.022   2.850 -0.1763  0.5334  0.1781
 1828W        W16959  15.573  15.417  11.361 -0.0727 -0.1074  0.0340
 1829W        W16960  12.328   3.819   4.388  0.0371  0.2388  0.0870
 1830W        W16961   3.406  14.232  12.221  0.2121 -0.0481 -0.0085
 1831W        W16962  12.838  11.281   0.891  0.0056 -0.0763 -0.1266
 1832W        W16963  13.788   1.940  13.049 -0.1253  0.2038  0.0300
 1833W        W16964   5.031   1.158  13.866 -0.0971  0.2370  0.0828
 1834W        W16965  15.671   0.145  10.452  0.2385 -0.2773  0.0272
 1835W        W16966  11.522   6.224  14.274 -0.2688  0.0126 -0.0754
 1836W        W16967   1.948  13.860  12.885  0.0903 -0.1078  0.0123
 1837W        W16968  11.695   0.475  14.298  0.1364 -0.1703 -0.2507
 1838W        W16969  12.708   9.857  10.247 -0.0854  0.1115 -0.0858
 1839W        W16970   9.511   6.441  11.459 -0.0967  0.1353 -0.1595
 1840W        W16971  16.812   5.164  12.543  0.2520 -0.0902 -0.0723
 1841W        W16972  15.865  12.871  11.487  0.2005  0.2448 -0.4004
 1842W        W16973  15.318  15.536   2.967  0.0678  0.0507 -0.2764
 1843W        W16974  17.994  16.337  11.626 -0.3559 -0.0738 -0.4639
 1844W        W16975   9.334   3.251  11.749 -0.1194  0.3401  0.0365
 1845W        W16976  16.924   1.394   2.363 -0.3892  0.0278 -0.2004
 1846W        W16977   8.990   2.948  10.269  0.0903 -0.0434  0.0490
 1847W        W16978   0.517  12.431   2.005 -0.1199 -0.2544  0.1829
 1848W        W16979  18.201   3.588   0.785 -0.0527  0.0703 -0.2192
 1849W        W16980   2.758   0.507   2.264  0.1345  0.1696 -0.3395
 1850W        W16981   1.891   6.711   1.706 -0.2083  0.0639  0.1378
 1851W        W16982  18.265  11.591  12.728 -0.0240 -0.1103  0.0778
 1852W        W16983   1.886  13.616   1.853 -0.3586 -0.2162 -0.0345
 1853W        W16984  10.156  15.984  11.921 -0.0567 -0.3475  0.2994
 1854W        W16985   8.832  12.337  12.311  0.0954 -0.3614 -0.2012
 1855W        W16986  14.799  11.278  15.278  0.0766  0.2155  0.2121
 1856W        W16987  18.114  17.161   1.490 -0.1309  0.0035 -0.0610
 1857W        W16988  13.213  13.484   0.401  0.1574  0.1917 -0.0314
 1858W        W16989  12.470  11.888   2.626  0.0885  0.0768 -0.2472
 1859W        W16990   0.124   4.303   4.549 -0.0163  0.2144  0.1061
 1860W        W16991  17.338  13.196  13.001  0.1221 -0.2269 -0.1399
 1861W        W16992   6.777   3.465   1.738 -0.2535  0.2223  0.1212
 1862W        W16993  11.145  10.428  10.696  0.4296 -0.1080 -0.0162
 1863W        W16994   1.436   3.877  12.930  0.1220 -0.1539  0.0137
 1864W        W16995   4.013  10.838   4.718 -0.3139 -0.4263 -0.3396
 1865W        W16996   9.475  10.780  14.489  0.1555 -0.1894  0.1144
 1866W        W16997  11.499   8.814  11.149 -0.2120 -0.0858 -0.0125
 1867W        W16998  13.835   0.843   5.386 -0.0591 -0.0561  0.1827
 1868W        W16999  10.626  11.902  12.820 -0.0411  0.0612 -0.3282
 1869W        W17000   9.117   8.918  13.360  0.0092 -0.0953  0.3878
 1870W        W17001   5.818   8.623  14.543  0.2667 -0.1022  0.1070
 1871W        W17002   8.788   7.296  11.913 -0.2388 -0.1665  0.0325
 1872W        W17003   3.629   6.282   1.052 -0.0387 -0.0704  0.2297
 1873W        W17004  11.577   7.542   0.346  0.1977 -0.1812  0.0534
 1874W        W17005  12.451   0.845   3.458  0.1606  0.0691 -0.2370
 1875W        W17006   0.610  15.040  14.988 -0.0856 -0.0874 -0.3200
 1876W        W17007  11.984  14.273  14.040  0.0039 -0.0302 -0.1032
 1877W        W17008   5.263   5.578   1.080  0.0527 -0.5027  0.2783
 1878W        W17009   9.572  13.423  10.654 -0.2687  0.1603  0.1355
 1879W        W17010   7.526   2.732  12.061  0.0889  0.4604  0.0159
 1880W        W17011   4.926  15.159  14.308 -0.0726  0.0255  0.0698
 1881W        W17012  10.077   6.597  13.798  0.0657 -0.2967 -0.0966
 1882W        W17013   3.541  17.313  13.917 -0.0224  0.4690 -0.0459
 1883W        W17014  12.292  10.632  14.021 -0.0283  0.2605 -0.0546
 1884W        W17015  11.346  11.605  12.824  0.2312 -0.3655  0.0619
 1885W        W17016  11.848  18.238   3.062 -0.2431 -0.0472 -0.0024
 1886W        W17017   4.221   1.966  12.705 -0.0672  0.2194 -0.1224
 1887W        W17018   7.192  16.690  14.179 -0.0557 -0.1688  0.2244
 1888W        W17019  13.159  15.930   0.793 -0.0409 -0.1625  0.0954
 1889W        W17020   4.045   8.860  13.422 -0.0250 -0.0398 -0.2829
 1890W        W17021  10.831   7.151  10.835 -0.0710 -0.1068 -0.0416
 1891W        W17022   0.359   3.192  10.702  0.4157  0.2494  0.2327
 1892W        W17023   8.568  10.092  10.989 -0.1511  0.1793  0.0047
 1893W        W17024   2.861   6.587   3.545  0.2781 -0.0163 -0.0617
 1894W        W17025  10.150  12.477  12.583 -0.3578  0.1563  0.0590
 1895W        W17026  14.415   9.638  10.701 -0.4643  0.0207 -0.0457
 1896W        W17027   0.078  17.842   0.392 -0.0042  0.1397 -0.1011
 1897W        W17028  11.746   8.060   1.826  0.0826 -0.3022  0.1108
 1898W        W17029   8.776  10.103  14.485 -0.1132 -0.0621  0.0178
 1899W        W17030   1.212  10.871  12.986 -0.0278  0.2570  0.0379
 1900W        W17031  15.054   6.127  13.018 -0.0538 -0.1217  0.2185
 1901W        W17032   7.874  11.501  15.385 -0.1803  0.2493  0.2264
 1902W        W17033  13.087   3.412   4.654  0.0680  0.2789  0.2738
 1903W        W17034  14.686  16.279   5.662 -0.3231 -0.1009  0.0015
 1904W        W17035   5.781   5.136   3.742  0.0943 -0.0408 -0.1521
 1905W        W17036  18.316   0.518  10.729  0.1477 -0.0768  0.0445
 1906W        W17037   7.581   3.939   1.433 -0.2442  0.2850 -0.1510
 1907W        W17038  14.116  10.342  13.007  0.1236 -0.0897 -0.1502
 1908W        W17039   7.128   5.979  14.063  0.0530  0.0833  0.3168
 1909W        W17040  16.684   2.623   3.050  0.0206  0.1165  0.2663
 1910W        W17041   5.346   2.417  14.957 -0.1835  0.0633  0.0595
 1911W        W17042   2.098   3.138   5.449 -0.1089 -0.4294  0.2730
 1912W        W17043   7.765   6.401   2.382 -0.0361 -0.1682  0.4214
 1913W        W17044  11.055   7.238  12.796 -0.1849  0.3860 -0.0344
 1914W        W17045   8.086   2.182   5.382 -0.1348 -0.1353 -0.0018
 1915W        W17046   4.587   0.563   1.225 -0.1464  0.0628 -0.1044
 1916W        W17047   7.459   1.070  13.852  0.0664 -0.0516 -0.0741
 1917W        W17048   6.273   9.456  12.829  0.0215  0.0401  0.0260
 1918W        W17049  12.136   2.672  12.061 -0.0365  0.3079 -0.1028
 1919W        W17050  13.433   7.790   0.255  0.2917 -0.1667  0.1817
 1920W        W17051   3.764  16.707   0.783 -0.1861  0.1990 -0.1494
 1921W        W17052  16.257  14.331   1.930  0.0762  0.1195  0.0659
 1922W        W17053   4.191   2.451  15.511  0.1810 -0.0643  0.2250
 1923W        W17054  13.848  11.168  12.027 -0.0668 -0.2627 -0.0487
 1924W        W17055   8.477   2.827  11.952 -0.3934 -0.4702 -0.2750
 1925W        W17056   8.080   6.078  15.421  0.0310 -0.0042  0.2229
 1926W        W17057  12.049  12.342   3.778 -0.1520  0.2855 -0.0722
 1927W        W17058   5.386  11.793  15.384  0.1432 -0.1498 -0.0040
 1928W        W17059  14.487  15.170   1.857 -0.0743 -0.1082  0.0308
 1929W        W17060  12.839   1.300  11.355 -0.0559  0.0136  0.2219
 1930W        W17061   7.243  13.988  13.555 -0.3277  0.5415 -0.3328
 1931W        W17062   1.827  10.743  12.070  0.3448 -0.2918 -0.0369
 1932W        W17063   1.950   5.275   2.415  0.1018 -0.0290  0.1815
 1933W        W17064  15.017  13.320  12.277 -0.0405  0.3455  0.0041
 1934W        W17065  16.133  12.091   1.907  0.1380  0.2026  0.2298
 1935W        W17066  12.465  15.200  15.895 -0.1674  0.3159 -0.2832
 1936W        W17067  14.550  15.611  14.884  0.0642 -0.0561 -0.1476
 1937W        W17068   8.331   0.416  12.532  0.3545 -0.1218 -0.0615
 1938W        W17069   0.094   9.500   3.630 -0.1771 -0.0909 -0.2130
 1939W        W17070   0.064   3.793   0.453 -0.1834 -0.0209 -0.0985
 1940W        W17071  12.761   7.708  10.732  0.3964  0.0249  0.3555
 1941W        W17072  18.027  11.303  15.326 -0.0858  0.3649  0.2518
 1942W        W17073   6.121  13.075  14.644 -0.0276  0.0732 -0.1563
 1943W        W17074  10.084  15.188  11.845 -0.0034  0.3545  0.2409
 1944W        W17075  10.194   3.479   3.739 -0.3181 -0.0712 -0.0740
 1945W        W17076   4.795   7.219  11.531  0.1006  0.1364  0.0079
 1946W        W17077   0.877  10.735  11.159 -0.2370  0.0850  0.0517
 1947W        W17078   5.111  14.248  15.435 -0.0106  0.3313 -0.0668
 1948W        W17079   5.383  14.739   0.523  0.1933  0.0233 -0.2331
 1949W        W17080   8.759   5.670   3.481  0.0544  0.2574 -0.0386
 1950W        W17081  14.059  13.793  11.175 -0.1425  0.1265 -0.1056
 1951W        W17082   7.737  11.463   2.964  0.1681 -0.2381  0.4083
 1952W        W17083   4.440  11.657   3.727 -0.2794  0.2550 -0.0599
 1953W        W17084  18.496   2.957  15.853  0.0642  0.1408  0.2569
 1954W        W17085   3.497   4.726  12.122 -0.2097 -0.1870 -0.0117
 1955W        W17086  17.856  16.428  13.151 -0.2138  0.0903  0.1278
 1956W        W17087   9.785   1.630   6.103 -0.0264  0.1686  0.1483
 1957W        W17088   5.832  14.111  15.671 -0.0980  0.0356 -0.0113
 1958W        W17089   0.888  10.325   3.915  0.3854  0.4044 -0.3400
 1959W        W17090  16.598  10.691  12.645  0.0799 -0.0273  0.1003
 1960W        W17091  12.976  12.668   0.892 -0.0156  0.0091 -0.1301
 1961W        W17092  18.460   0.023   3.040 -0.1656 -0.1414  0.0431
 1962W        W17093   8.297  16.698  11.747  0.0195 -0.0517 -0.0563
 1963W        W17094  16.558  10.788  11.907 -0.1123  0.2644  0.2398
 1964W        W17095  10.576  13.171   0.303  0.1470 -0.2676 -0.2943
 1965W        W17096  14.280   4.449   0.511  0.0805 -0.2140 -0.1031
 1966W        W17097   2.399  13.405   2.574  0.0084 -0.0157  0.0520
 1967W        W17098  15.643   4.543   0.886  0.3266  0.2694 -0.0434
 1968W        W17099   6.364   6.395   2.815 -0.2063  0.0883  0.1386
 1969W        W17100   9.553   6.587   1.080  0.2726 -0.3363  0.0131
 1970W        W17101  18.084  12.140  10.366 -0.1375 -0.0875  0.0038
 1971W        W17102  11.332   5.404  13.735 -0.2311  0.1628  0.0555
 1972W        W17103  15.026  12.472   3.551 -0.0571  0.0001  0.0447
 1973W        W17104   9.791  17.414  14.969  0.0549 -0.1637  0.0380
 1974W        W17105   2.723  16.559   1.956  0.0188  0.0982 -0.0590
 1975W        W17106  11.390   0.117  11.816 -0.0139 -0.0753 -0.0940
 1976W        W17107  16.330   4.274   0.124 -0.1741  0.0912  0.0301
 1977W        W17108  17.581  17.032   2.150 -0.4395 -0.3648  0.2863
 1978W        W17109  16.448  13.594   0.379 -0.0529  0.2113 -0.1300
 1979W        W17110   7.932   9.040  12.690 -0.0747 -0.2825  0.1387
 1980W        W17111  10.066   9.623  13.606 -0.0351  0.1369  0.0714
 1981W        W17112   9.189   1.139   5.307  0.0580 -0.1064 -0.1170
 1982W        W17113   5.714  12.018  11.916  0.2286  0.1852  0.0486
 1983W        W17114   0.287   2.030   1.367  0.1989  0.1636 -0.0136
 1984W        W17115  14.661   1.995   2.276 -0.0036 -0.0995  0.2306
 1985W        W17116  10.935  14.817  13.415  0.0361 -0.1520 -0.1017
 1986W        W17117   0.359   6.568  11.499  0.4227  0.0271 -0.0989
 1987W        W17118   9.031   3.472  14.100  0.0435  0.1006  0.0286
 1988W        W17119   0.583   2.807  13.795 -0.0141  0.3542 -0.3656
 1989W        W17120   6.543  14.815   2.179 -0.2531 -0.0038  0.3615
 1990W        W17121  16.989   4.105  13.928 -0.0329 -0.0975 -0.1172
 1991W        W17122   9.514  12.210  10.063 -0.2533  0.1250  0.0394
 1992W        W17123   0.013   3.583   5.241 -0.0690 -0.0195  0.0657
 1993W        W17124   4.291   0.740  13.383 -0.0469 -0.4234 -0.0407
 1994W        W17125  15.255   1.841  12.834 -0.0300 -0.0760 -0.1732
 1995W        W17126  14.344   1.151  10.017  0.1953  0.0649  0.3805
 1996W        W17127   4.538  17.080  10.474 -0.0681  0.3095  0.0405
 1997W        W17128  13.253  17.491  14.641  0.0485 -0.3353  0.3390
 1998W        W17129   6.879   0.235   0.562  0.0237  0.1529  0.0179
 1999W        W17130   7.898  15.358  14.229 -0.0253 -0.1075 -0.1010
 2000W        W17131  14.408  15.207   0.859  0.0940  0.0107  0.0324
 2001W        W17132   2.856  16.185  13.104 -0.1029  0.2235 -0.0122
 2002W        W17133  11.241  15.198   3.260 -0.4593 -0.0184  0.1228
 2003W        W17134   7.849  11.105   1.729 -0.1919 -0.2281 -0.0782
 2004W        W17135   5.751  18.283   1.063 -0.3546  0.2075 -0.1605
 2005W        W17136   3.242   2.376   2.676  0.0087  0.0661  0.0166
 2006W        W17137  13.692   2.989  12.892 -0.0000  0.1177 -0.4242
 2007W        W17138  14.796   9.536  13.957 -0.1240  0.3918  0.0603
 2008W        W17139   9.897   2.406  13.532 -0.2207  0.0956 -0.0082
 2009W        W17140  10.314   5.967   1.161 -0.1325 -0.0176  0.2274
 2010W        W17141  11.373   9.608  11.967 -0.0557 -0.0092 -0.1241
 2011W        W17142   9.196  12.663   4.895  0.1348 -0.1347 -0.1859
 2012W        W17143   0.940   4.202  15.150  0.2808  0.0818 -0.0309
 2013W        W17144   7.258   1.508   4.080 -0.1419 -0.0510 -0.0669
 2014W        W17145   5.993  16.024   4.070 -0.0142  0.1409 -0.0798
 2015W        W17146   4.468  15.950   3.820 -0.4072  0.0749 -0.0934
 2016W        W17147   1.417   2.506   3.498 -0.1130 -0.2462  0.0091
 2017W        W17148  10.829   7.770   9.849  0.0040 -0.1154 -0.0544
 2018W        W17149  16.808   4.586   0.734 -0.1823 -0.2604 -0.2590
 2019W        W17150   5.885  13.733  10.739 -0.0736  0.2447  0.2984
 2020W        W17151  10.336  13.686   3.037  0.3300 -0.3795  0.0790
 2021W        W17152   0.066  18.352  12.640 -0.0602  0.1605 -0.2766
 2022W        W17153  10.616  16.577   3.638 -0.1631  0.0024 -0.3103
 2023W        W17154   8.672   7.359   1.404  0.1778  0.2278  0.0069
 2024W        W17155   4.606   1.595  12.489  0.2170  0.1456  0.2838
 2025W        W17156   2.154  12.499   2.470 -0.0814  0.2307  0.1019
 2026W        W17157   9.065   7.096   4.039 -0.0312  0.2310  0.1938
 2027W        W17158  13.525  15.773  11.972  0.0264  0.1257  0.1489
 2028W        W17159  17.204   0.130  13.666  0.2713 -0.1357  0.2349
 2029W        W17160   5.859   4.701   3.478  0.2787  0.0477  0.0453
 2030W        W17161  12.265  13.835  10.591  0.2571  0.0534 -0.5198
 2031W        W17162   8.667   8.140  12.126 -0.1000 -0.0410  0.2880
 2032W        W17163   7.844  11.122  14.024  0.3395 -0.0671 -0.2821
 2033W        W17164  18.468  11.420   1.216  0.4076  0.0498  0.1790
 2034W        W17165   4.750   3.819   1.694 -0.0451 -0.1807 -0.1597
 2035W        W17166   6.004   0.003   0.072 -0.0952 -0.0707  0.0082
 2036W        W17167   4.059   4.329   4.498  0.0456  0.2582 -0.1673
 2037W        W17168   3.794   6.242  12.671  0.0358  0.0251  0.0619
 2038W        W17169  13.897  10.942  11.181  0.3624  0.0288 -0.2930
 2039W        W17170  10.113  16.689   1.249 -0.4045 -0.0324  0.0236
 2040W        W17171   9.195   2.007  13.055 -0.0048  0.2216 -0.1663
 2041W        W17172  10.207  14.079  14.960 -0.2207 -0.0057 -0.1222
 2042W        W17173   0.240   3.085   4.664 -0.2635 -0.0867 -0.1590
 2043W        W17174   0.906  14.031  14.768 -0.2410 -0.0541 -0.3095
 2044W        W17175  15.407  16.984   0.691 -0.1631  0.1410 -0.0357
 2045W        W17176   9.679  18.001  11.461  0.0810 -0.0391  0.2571
 2046W        W17177  17.304   4.317  14.259  0.3046 -0.3067 -0.1860
 2047W        W17178  12.941   8.122   2.528  0.0673 -0.0863  0.0698
 2048W        W17179   4.802  14.695   5.126  0.0964  0.0828 -0.0455
 2049W        W17180   1.100  10.841   3.426  0.2558  0.1335  0.0046
 2050W        W17181   5.217   5.544   4.938 -0.0472 -0.0060 -0.2139
 2051W        W17182  11.942  11.733   2.561  0.1044 -0.0718  0.0624
 2052W        W17183   2.956  13.901   4.560  0.1062  0.1223 -0.0200
 2053W        W17184   1.727   4.264  11.779  0.2115  0.3604 -0.0521
 2054W        W17185   2.631   5.161   2.520  0.1237 -0.0164 -0.0730
 2055W        W17186   8.003  17.632  15.010 -0.2042  0.1083  0.0655
 2056W        W17187  10.724   2.412  14.112 -0.1042 -0.0170 -0.3412
 2057W        W17188  17.955   1.765   0.353  0.1915  0.1236  0.0684
 2058W        W17189  18.496   3.056  15.346  0.0678  0.0384 -0.0895
 2059W        W17190   5.325   6.472  12.188  0.0840  0.0700 -0.1417
 2060W        W17191  15.848   4.216  15.188  0.0329 -0.0270  0.1819
 2061W        W17192  14.738   9.087   3.234  0.2271  0.0099 -0.0671
 2062W        W17193  13.618  12.427  10.731 -0.1671 -0.1551  0.0626
 2063W        W17194   1.112  16.407   1.365 -0.0820  0.2193 -0.0533
 2064W        W17195   5.830  11.366  12.461 -0.0443  0.3086 -0.1943
 2065W        W17196  12.923  16.749   0.630 -0.0005  0.1048  0.4177
 2066W        W17197  10.039  11.687  10.484  0.1993  0.2682  0.0404
 2067W        W17198   6.501  15.281   5.305  0.1723  0.2022  0.0662
 2068W        W17199   3.218   2.961   5.022  0.0159 -0.1285 -0.1098
 2069W        W17200  18.286   1.216   0.954 -0.4702  0.0654  0.1005
 2070W        W17201   1.515  12.274   3.071  0.0247 -0.1656 -0.0294
 2071W        W17202   9.238  11.525  14.748 -0.0291 -0.0976  0.0332
 2072W        W17203  16.005  16.010   0.463 -0.1580  0.2396  0.4473
 2073W        W17204  16.110   0.073   0.921 -0.1825  0.1604  0.0371
 2074W        W17205  11.930  11.840  14.937 -0.3469 -0.2476 -0.1341
 2075W        W17206  10.320   5.085   0.866  0.0350 -0.1180 -0.0399
 2076W        W17207   5.146   9.113   4.712  0.1454  0.1190 -0.2309
 2077W        W17208   7.392  15.834  14.771 -0.1514 -0.0305  0.3048
 2078W        W17209  15.446  10.216   1.895  0.2781  0.1547  0.1224
 2079W        W17210   0.037  17.371   1.685 -0.2027  0.0907 -0.3294
 2080W        W17211  12.159   2.927  10.402  0.0840 -0.0141  0.0657
 2081W        W17212   6.154   4.089  15.466 -0.2013 -0.0252 -0.3617
 2082W        W17213  12.494   3.265   0.087  0.0850  0.1765  0.2114
 2083W        W17214   2.308   1.236   3.214 -0.2642  0.6085  0.1518
 2084W        W17215   3.248  13.034   0.272  0.0844  0.2883  0.1088
 2085W        W17216   0.454   1.722  15.276 -0.0988  0.0348 -0.1496
 2086W        W17217  17.743  11.718   4.112 -0.0388 -0.1299  0.1048
 2087W        W17218   9.965   6.128  14.654  0.0715  0.3196  0.1043
 2088W        W17219   6.553   7.389   0.975 -0.1284  0.1400 -0.1399
 2089W        W17220   1.986   1.422  11.572  0.2817 -0.6022  0.1567
 2090W        W17221  10.178  16.368   1.737  0.0585 -0.0734 -0.1301
 2091W        W17222  18.421  11.751  11.297 -0.0000  0.1194 -0.2325
 2092W        W17223   5.526  13.663  11.582  0.3213  0.0619 -0.3267
 2093W        W17224  11.727  13.361   4.852  0.0765 -0.1134 -0.3579
 2094W        W17225  14.648  16.097   1.962  0.1605 -0.0455 -0.1175
 2095W        W17226   8.621   5.115  15.549 -0.1829  0.0223 -0.2685
 2096W        W17227  14.184   9.096  11.537 -0.1250 -0.3028  0.1019
 2097W        W17228   2.273   7.503  14.029  0.0377 -0.0556  0.1893
 2098W        W17229   2.614   2.639   5.999 -0.0214 -0.3891  0.2316
 2099W        W17230  18.040   3.545  12.279 -0.0198  0.1199 -0.1127
 2100W        W17231   6.172  15.359  12.689  0.2926 -0.1168  0.1942
 2101W        W17232   6.427  13.382   0.024 -0.1673  0.1685  0.1744
 2102W        W17233  10.290  17.087  11.528 -0.3065 -0.1278  0.2575
 2103W        W17234  18.380   3.011  11.457  0.2437 -0.1126 -0.1248
 2104W        W17235  11.274  11.546  14.413  0.0467 -0.1338  0.1139
 2105W        W17236  16.619  13.144   2.352 -0.4359  0.1746  0.0418
 2106W        W17237   3.065   9.549   3.502 -0.4835 -0.0968  0.0477
 2107W        W17238   3.944   2.323  11.250 -0.1368  0.0841 -0.3385
 2108W        W17239  12.309   5.719  12.017  0.1726 -0.0040  0.0427
 2109W        W17240   9.422   0.676   1.510 -0.0369  0.0634 -0.2686
 2110W        W17241   1.003  17.322   0.296  0.0888  0.4101  0.2574
 2111W        W17242   9.419   7.233   4.897 -0.1226  0.3256 -0.0216
 2112W        W17243   6.152   4.391   5.484 -0.0134  0.1947 -0.0479
 2113W        W17244  11.226   0.609   4.116  0.2334  0.1752  0.2263
 2114W        W17245   8.001  11.101   2.661 -0.0929 -0.1768  0.0300
 2115W        W17246   5.885   9.080   3.894  0.3154 -0.1460  0.4433
 2116W        W17247  10.696   8.506  13.843  0.0010  0.1813 -0.2466
 2117W        W17248   5.197   6.897   5.788  0.4712 -0.2105 -0.0196
 2118W        W17249  15.731   8.469   1.200 -0.0799 -0.1808  0.2627
 2119W        W17250  15.231   9.694  10.920  0.1886 -0.0416 -0.0940
 2120W        W17251   5.858  11.519   3.098 -0.2432  0.1178 -0.1430
 2121W        W17252  16.767   9.312  12.919  0.4194  0.0446  0.0712
 2122W        W17253  15.300  15.767   4.705  0.0394 -0.1937  0.2076
 2123W        W17254  13.953  13.585   4.199 -0.0115  0.1209  0.3645
 2124W        W17255  16.416  11.291  15.104 -0.1560  0.1823  0.1894
 2125W        W17256  18.379  13.096   4.529 -0.1707 -0.0272  0.0961
 2126W        W17257   6.884   5.887  14.499  0.0257 -0.1371 -0.0806
 2127W        W17258   9.343  11.547  15.658 -0.5863 -0.0350  0.1715
 2128W        W17259  13.938  11.396  14.719  0.2227 -0.1269  0.3845
 2129W        W17260  18.032   9.490  10.833 -0.0746 -0.2990 -0.3165
 2130W        W17261  13.764  14.471   2.938 -0.3699 -0.1749 -0.0280
 2131W        W17262   6.565   6.972   3.213  0.2319  0.0159 -0.2296
 2132W        W17263  14.502  14.897  12.005 -0.0126 -0.2141 -0.1924
 2133W        W17264   0.099   0.552   1.080  0.1549 -0.2540  0.0376
 2134W        W17265  12.133  14.161  13.012 -0.1487  0.3209  0.0925
 2135W        W17266  12.792  16.214   2.163  0.0623 -0.1709  0.0517
 2136W        W17267   1.399   9.610   2.784 -0.2400 -0.1432  0.1144
 2137W        W17268   2.518   2.266   1.648 -0.1462  0.0060  0.2472
 2138W        W17269   4.146  13.754  10.844  0.1192 -0.1024 -0.0842
 2139W        W17270  16.368  14.419  11.722 -0.3182 -0.1002  0.0195
 2140W        W17271  15.955  13.596   1.672 -0.0587 -0.0086 -0.1130
 2141W        W17272   8.743   3.222  11.043 -0.1068 -0.0888  0.0115
 2142W        W17273  10.329   9.685   3.759 -0.2044  0.3095  0.3250
 2143W        W17274   8.236  13.644  11.294  0.0487  0.2738 -0.3975
 2144W        W17275   7.722  15.244   3.670  0.1163 -0.1187 -0.1121
 2145W        W17276   0.652   3.190  14.064  0.0992 -0.2993 -0.2059
 2146W        W17277  15.057  15.002  15.550 -0.1026 -0.2330  0.3536
 2147W        W17278   2.144   3.459   5.034 -0.1718  0.0293  0.1935
 2148W        W17279   2.851  18.512   2.491 -0.2507 -0.3474  0.1772
 2149W        W17280  13.775   8.924   5.326  0.2598  0.0042 -0.1896
 2150W        W17281  12.873   9.116  13.748 -0.1107  0.2391  0.3788
 2151W        W17282   0.854  14.216  15.376 -0.1476  0.1503 -0.0779
 2152W        W17283   3.605  11.864  15.660  0.0731 -0.0217  0.1499
 2153W        W17284   7.634  16.039  13.018 -0.0986  0.1060 -0.1047
 2154W        W17285  11.008  18.274  11.847  0.1097  0.1551  0.3686
 2155W        W17286   9.181   0.463   2.315  0.0165 -0.0279 -0.1083
 2156W        W17287  15.833  12.163  15.209 -0.1168 -0.1633 -0.2146
 2157W        W17288   8.958  11.841   3.191  0.0604  0.1041  0.1579
 2158W        W17289   1.996  10.964  15.269 -0.1911  0.0573  0.0082
 2159W        W17290  17.763   9.628  13.362  0.0698  0.1719  0.0527
 2160W        W17291   5.158   5.874   2.350 -0.3474  0.0355  0.0450
 2161W        W17292   9.379   1.724  12.057 -0.2426  0.0582  0.0263
 2162W        W17293  12.271   8.132   3.838  0.1594  0.0234 -0.3440
 2163W        W17294   4.732   7.416   1.799 -0.0911 -0.2604 -0.0521
 2164W        W17295   5.697   0.437  12.468  0.2570  0.2046 -0.1973
 2165W        W17296  17.173   4.027  14.689  0.0295  0.0253 -0.0792
 2166W        W17297   4.062  12.999   2.598 -0.0963 -0.1423 -0.0408
 2167W        W17298   5.035   2.366   0.011  0.0846  0.1246  0.1881
 2168W        W17299   3.711   2.764   4.329  0.0691 -0.0668 -0.3075
 2169W        W17300   6.445  17.017  15.526 -0.0210 -0.0933  0.0380
 2170W        W17301  17.531   7.709  14.262 -0.1728  0.0173 -0.0659
 2171W        W17302   0.397   5.782   0.632 -0.0632  0.2696  0.2247
 2172W        W17303   4.227   8.109   2.967 -0.0791  0.1614 -0.3018
 2173W        W17304   2.059   4.201  15.638 -0.2112  0.1807  0.0191
 2174W        W17305   5.862  10.932  14.625 -0.4165  0.0541 -0.1184
 2175W        W17306  16.278   7.444   0.541 -0.1690  0.1936 -0.1461
 2176W        W17307  14.793   0.513  13.562 -0.3995 -0.3456  0.3948
 2177W        W17308  11.337   9.659   2.115  0.0565  0.3745 -0.0068
 2178W        W17309   6.947  15.079  14.836 -0.0778  0.0267  0.0678
 2179W        W17310   2.827  12.135   4.870 -0.2186 -0.1095 -0.0131
 2180W        W17311   5.922   4.182   6.019 -0.3709 -0.2780  0.2189
 2181W        W17312   7.367  15.929  15.313  0.2358 -0.1623  0.0968
 2182W        W17313   0.532   3.795  11.675  0.3005 -0.2761 -0.2617
 2183W        W17314  14.037  10.967  10.664 -0.1419  0.1671  0.0412
 2184W        W17315  11.710   7.093   2.205 -0.0489 -0.1400  0.0882
 2185W        W17316  15.046  16.400  12.814  0.0057 -0.1832 -0.1193
 2186W        W17317  16.324  15.540   2.531 -0.3794  0.1632  0.4780
 2187W        W17318   6.116   9.095  14.922  0.1196  0.0967 -0.0665
 2188W        W17319  16.176   6.956   3.841 -0.1097  0.3116  0.2319
 2189W        W17320  16.093  16.164   3.182  0.3011  0.2643  0.2444
 2190W        W17321  12.208   3.128  12.298  0.1887 -0.0366  0.0748
 2191W        W17322   8.734   4.364   4.805 -0.0428 -0.2383  0.1098
 2192W        W17323   4.708   3.771   0.687  0.1169 -0.0923 -0.1755
 2193W        W17324   6.147   7.413  15.434 -0.1467  0.1219 -0.1625
 2194W        W17325  15.432   6.269   4.855  0.2653 -0.1522 -0.0516
 2195W        W17326   9.216   3.615   2.413 -0.0613  0.0330  0.1781
 2196W        W17327  10.419   1.776  13.835  0.0871 -0.2906 -0.1131
 2197W        W17328   4.895   0.380  11.314  0.1521  0.1308 -0.3220
 2198W        W17329   5.296  13.502  14.224 -0.1357  0.0460 -0.0431
 2199W        W17330  15.941  10.250  13.182 -0.0408  0.3476 -0.2231
 2200W        W17331   8.933   9.026  12.612 -0.2629  0.0314  0.3303
 2201W        W17332   4.793  17.629   0.012 -0.3963 -0.3029  0.1494
 2202W        W17333   2.154  11.606   0.561  0.1637 -0.2201  0.3434
 2203W        W17334   3.028  16.063   4.923 -0.3139  0.1232 -0.0700
 2204W        W17335  14.027   0.295   2.516  0.1831  0.3554  0.1940
 2205W        W17336   5.669  12.640  14.528 -0.0478  0.0109  0.1688
 2206W        W17337   7.113   5.335   5.561 -0.0296  0.0819  0.3164
 2207W        W17338   2.429   3.174  14.046  0.0986  0.4178  0.0337
 2208W        W17339  11.612   6.629  13.267  0.0850 -0.0823 -0.0780
 2209W        W17340   9.522   6.759   1.572 -0.0846  0.1793  0.1747
 2210W        W17341   8.742   1.139  14.337 -0.0104 -0.1093 -0.2264
 2211W        W17342   4.198  13.286  13.517 -0.0787  0.0918  0.1539
 2212W        W17343   9.383  11.857   0.173  0.1129  0.1685 -0.1760
 2213W        W17344  15.411   2.771  11.124  0.0706 -0.1717  0.1231
 2214W        W17345  15.611   9.633   2.548 -0.0874  0.1005 -0.1378
 2215W        W17346  15.801   4.734  14.033  0.1639  0.2650  0.1858
 2216W        W17347  11.890   7.793   4.155 -0.1471 -0.1555  0.1783
 2217W        W17348   7.856   7.508   3.445 -0.5647  0.2967 -0.0603
 2218W        W17349  16.967   6.298  12.675 -0.1135 -0.1281  0.0437
 2219W        W17350  15.085   2.384   3.199 -0.1158  0.1541  0.0577
 2220W        W17351  10.167   3.684  12.144  0.3768  0.1759  0.0796
 2221W        W17352  15.238  14.806   1.155  0.2313 -0.2515 -0.1979
 2222W        W17353   2.701  17.095  12.821 -0.1680 -0.0185  0.1255
 2223W        W17354   2.013   3.626   2.484 -0.0238  0.0345 -0.0898
 2224W        W17355   5.437   8.912   2.520 -0.0708  0.0350 -0.2562
 2225W        W17356  11.795   8.388   4.868 -0.0638  0.2217 -0.0035
 2226W        W17357  14.290   8.763   1.411 -0.0244  0.2226 -0.4010
 2227W        W17358  17.898  18.180  10.734 -0.2705  0.0142 -0.0623
 2228W        W17359  13.512   9.613   2.742 -0.0455  0.0515 -0.1854
 2229W        W17360  16.126  17.133   1.242  0.1304 -0.1729  0.1099
 2230W        W17361  12.854   9.604   0.769  0.0502  0.2130 -0.0067
 2231W        W17362  16.438   5.555  12.142 -0.0465 -0.1863  0.1503
 2232W        W17363  12.798  16.922  15.363  0.1329  0.0520  0.0325
 2233W        W17364   2.793  12.584   4.663  0.2093 -0.0626  0.1993
 2234W        W17365   5.503   2.193   3.719 -0.2500 -0.1224  0.2177
 2235W        W17366   5.447  15.174   1.450  0.0336 -0.0569  0.0761
 2236W        W17367   2.863  16.109   3.265 -0.2790 -0.0103  0.1699
 2237W        W17368   9.754   9.935   0.311 -0.3156 -0.1038  0.0996
 2238W        W17369   1.110   4.619  12.151  0.0634  0.2195 -0.3447
 2239W        W17370   7.459   1.452  12.540  0.0362 -0.3089  0.1455
 2240W        W17371   3.957   2.192   2.007  0.1049 -0.2303  0.1810
 2241W        W17372   3.876   2.512  13.387  0.0943  0.0318  0.1041
 2242W        W17373   8.087  10.863  11.340  0.0297  0.1096 -0.1189
 2243W        W17374  15.768   1.422   4.655  0.1781  0.2009 -0.2982
 2244W        W17375  11.822  14.358   5.504  0.0799 -0.0965 -0.1884
 2245W        W17376  12.251  16.096  14.407 -0.0587  0.0689  0.0752
 2246W        W17377   2.806  15.094   1.100 -0.2452 -0.0746 -0.0110
 2247W        W17378   8.122   9.457  11.342 -0.0278 -0.2153  0.0617
 2248W        W17379   8.487  14.346   1.765 -0.1529 -0.3497  0.1328
 2249W        W17380  17.561  11.219   0.500 -0.0524  0.1772 -0.1814
 2250W        W17381  14.949  11.693   2.707  0.2281 -0.2009 -0.0035
 2251W        W17382  17.730   6.784  13.880  0.0954 -0.3882  0.0650
 2252W        W17383   3.239  10.716   1.199 -0.1027 -0.0668 -0.1294
 2253W        W17384   1.881   9.748   2.708  0.0439 -0.0979  0.3363
 2254W        W17385   1.964   8.925  11.684  0.1863  0.0947  0.0753
 2255W        W17386   9.137   7.050   3.352  0.0905 -0.3294  0.2932
 2256W        W17387  17.628  11.118   3.231 -0.2155 -0.1928 -0.1297
 2257W        W17388  15.983  17.650   0.397 -0.1473  0.1483  0.0782
 2258W        W17389   5.998  15.451   5.284 -0.4747  0.2332 -0.1139
 2259W        W17390   1.368  15.223   5.881  0.0178 -0.1568 -0.2015
 2260W        W17391   4.924   5.460  10.672 -0.2477  0.1967  0.1234
 2261W        W17392   4.587  17.522   2.596 -0.4247 -0.3069  0.0141
 2262W        W17393  10.217   5.425  12.487  0.3604  0.1224  0.0668
 2263W        W17394   7.801   1.488  10.831  0.2032  0.0529 -0.2981
 2264W        W17395  16.681   6.023   6.070 -0.1014  0.0449  0.0098
 2265W        W17396  13.973  17.147  15.295 -0.1159  0.1651 -0.0149
 2266W        W17397   6.775  16.959   1.070 -0.0892 -0.1370  0.1835
 2267W        W17398  14.964   8.854  15.559  0.1390 -0.1222 -0.2017
 2268W        W17399   6.347  15.613  10.188 -0.0497  0.1727  0.0891
 2269W        W17400  14.666   5.133  14.228 -0.0867 -0.0445 -0.3622
 2270W        W17401  10.646   3.716  14.901  0.1317 -0.2908  0.0908
 2271W        W17402  13.981  14.092   4.897 -0.0329 -0.0351 -0.2164
 2272W        W17403  12.933   9.398   3.463  0.1604 -0.0787  0.2408
 2273W        W17404   8.969  14.978  15.053  0.1348  0.0027  0.1049
 2274W        W17405   5.619   2.322  11.702  0.0839  0.1330 -0.3131
 2275W        W17406  10.901  16.415   3.236  0.1525 -0.2037  0.0100
 2276W        W17407   7.867   3.204   3.929 -0.0697  0.0819 -0.0144
 2277W        W17408   5.525   1.082  10.911 -0.0134 -0.1963  0.0029
 2278W        W17409  13.449  16.596   1.738  0.1221 -0.0348  0.5047
 2279W        W17410  18.270  18.099   1.532  0.1835 -0.2996 -0.3058
 2280W        W17411  17.954   0.237   4.211 -0.0664 -0.4059 -0.0593
 2281W        W17412  10.814  13.802   3.096 -0.2897 -0.1951  0.1518
 2282W        W17413  15.342   0.179  14.918 -0.0484 -0.1781 -0.0881
 2283W        W17414   4.749  10.234  13.232  0.0499  0.0432 -0.0100
 2284W        W17415   5.332   1.968  15.897 -0.1986 -0.3938  0.4940
 2285W        W17416   9.184  17.492  12.055  0.0294 -0.1208 -0.0481
 2286W        W17417   3.037   7.293  13.219  0.0620 -0.0018  0.2634
 2287W        W17418   3.980   0.391   1.960  0.4113  0.7119  0.0606
 2288W        W17419  17.706  18.421  14.352  0.0073  0.0937  0.1444
 2289W        W17420   5.628   5.092   1.083  0.1215 -0.0696 -0.0455
 2290W        W17421  12.806  10.230  14.894  0.1915  0.2481  0.1711
 2291W        W17422   2.728   5.254   2.033 -0.2503 -0.1769 -0.0046
 2292W        W17423   6.366   8.473   1.076  0.2123 -0.2407 -0.0879
 2293W        W17424   2.415  15.703   3.577 -0.0583  0.5101 -0.3727
 2294W        W17425  10.424  15.145  11.393  0.0371  0.0408 -0.2002
 2295W        W17426  11.069  12.054  12.915  0.0314 -0.3219  0.2393
 2296W        W17427  11.503  15.183   3.767 -0.0239  0.1202  0.0872
 2297W        W17428  17.303   2.633   4.121  0.1391 -0.0992 -0.0037
 2298W        W17429  12.901   8.768   1.892 -0.0137 -0.2356 -0.0686
 2299W        W17430  17.385  12.758  12.808  0.0642 -0.2285  0.1933
 2300W        W17431  18.472   4.516  12.175  0.0802 -0.1437  0.1021
 2301W        W17432   3.327   8.916   4.240  0.1575  0.2046  0.3360
 2302W        W17433  11.935  15.898  11.429  0.0782  0.2231  0.1247
 2303W        W17434  10.215  14.172   0.654 -0.0185 -0.1286  0.2623
 2304W        W17435   9.097   5.722  13.600 -0.3200 -0.3100  0.2174
 2305W        W17436   0.637  16.464  14.389 -0.1515 -0.1050 -0.3180
 2306W        W17437   5.725   6.443   0.208 -0.0387  0.1748  0.4959
 2307W        W17438  16.686  15.583  15.135  0.1941  0.0830  0.4649
 2308W        W17439  15.020  12.498   0.253 -0.1305  0.1808 -0.0753
 2309W        W17440   3.760  12.342   4.812 -0.3541  0.3855 -0.0634
 2310W        W17441  12.041  12.155   1.938 -0.0615  0.0687 -0.1558
 2311W        W17442  10.870  12.382  13.171  0.0774 -0.0690  0.1886
 2312W        W17443  14.406  11.132   3.278 -0.1829 -0.0276  0.2877
 2313W        W17444  17.132   5.878   4.268  0.1958  0.3443 -0.3667
 2314W        W17445  16.949   2.972   3.331 -0.1845 -0.1034 -0.0620
 2315W        W17446  14.019   3.827  12.914  0.0814  0.0281  0.0143
 2316W        W17447   3.080  10.195   2.822  0.0895 -0.2554 -0.2814
 2317W        W17448   3.284   1.537  11.680 -0.1128  0.2430 -0.2505
 2318W        W17449  12.870   1.748  12.844 -0.4150 -0.0630  0.0135
 2319W        W17450   7.239   4.995   5.184  0.1734  0.2146  0.1367
 2320W        W17451   7.548   6.692  12.443 -0.0191 -0.0468  0.0445
 2321W        W17452  13.781   6.565   3.023 -0.0302 -0.0355  0.1938
 2322W        W17453   6.187   4.949   3.933  0.4753 -0.1279 -0.1783
 2323W        W17454   1.574   3.574   2.882 -0.1376 -0.0941  0.5791
 2324W        W17455   5.932  15.627   9.640 -0.0110  0.0508 -0.1633
 2325W        W17456  13.718  12.712   1.899 -0.1833 -0.0910  0.0261
 2326W        W17457   4.237   3.433  13.157  0.1481  0.0870 -0.0453
 2327W        W17458  11.255  10.739  13.907  0.3048 -0.1351 -0.1839
 2328W        W17459  13.468  15.344   1.488 -0.0801  0.0379 -0.1841
 2329W        W17460   5.385   1.469   3.964 -0.5257 -0.2362  0.2973
 2330W        W17461  13.488   0.319  14.500 -0.1615 -0.0294 -0.2917
 2331W        W17462   7.314  15.103  12.034 -0.2227  0.0813  0.1946
 2332W        W17463  14.532  15.094  13.352 -0.0458  0.0221 -0.0392
 2333W        W17464  10.207  10.407   2.789  0.2521  0.0281 -0.0345
 2334W        W17465   9.759  10.266   3.127 -0.2193  0.3024  0.0682
 2335W        W17466   2.637  16.909  10.921 -0.3353  0.2841 -0.3022
 2336W        W17467  18.423  13.444   0.623  0.1654 -0.1277 -0.1334
 2337W        W17468  15.360   1.992  11.514 -0.0798 -0.0341  0.1164
 2338W        W17469  18.394   0.084   5.035 -0.0002  0.0447  0.0293
 2339W        W17470  16.291  15.008  15.646  0.0153 -0.2370 -0.0346
 2340W        W17471  12.694   5.815   0.065 -0.1659 -0.2144  0.0615
 2341W        W17472   3.859   8.898   3.978 -0.1946 -0.3188  0.0210
 2342W        W17473  15.031  14.459   1.647  0.3562  0.1093 -0.3601
 2343W        W17474  11.860  18.526  11.584  0.1203  0.0415 -0.0962
 2344W        W17475  15.993   4.664   0.045  0.0070  0.1478  0.1414
 2345W        W17476   8.876   4.144   0.056  0.0493 -0.0709 -0.0848
 2346W        W17477   9.300  12.436  15.374 -0.0247 -0.0702  0.0207
 2347W        W17478   7.248   3.792   1.088  0.1435  0.2557  0.0346
 2348W        W17479   7.969   4.823  12.761 -0.2427  0.3414  0.2608
 2349W        W17480  10.186   4.460   2.709  0.1341 -0.0777 -0.5066
 2350W        W17481  16.860  14.859   0.047  0.0042 -0.2355 -0.0920
 2351W        W17482  16.666  13.197   5.592  0.1551  0.0735  0.2266
 2352W        W17483   0.137   7.038  12.915  0.0026 -0.2199  0.2487
 2353W        W17484  14.715   0.942  12.092 -0.0561 -0.0669  0.0565
 2354W        W17485   8.815   7.162  15.443  0.2243  0.0006  0.0189
 2355W        W17486  18.488  12.288   1.576  0.1662 -0.1424 -0.0220
 2356W        W17487   1.864   5.025   1.496 -0.0990  0.3292 -0.1904
 2357W        W17488   8.400  16.574   3.590 -0.0862  0.2248  0.2687
 2358W        W17489   5.143   6.616  14.126  0.0192 -0.0598 -0.5516
 2359W        W17490   3.432  17.669   2.618 -0.2649 -0.3662 -0.2744
 2360W        W17491   6.049  16.105   1.801 -0.2184 -0.0945 -0.3343
 2361W        W17492   5.777  15.087   4.920 -0.0506 -0.1119 -0.2675
 2362W        W17493   2.311   7.142  12.277 -0.1705  0.0019 -0.1570
 2363W        W17494   4.492   9.994  14.708  0.2595 -0.1876  0.1191
 2364W        W17495  11.059   8.340  12.819  0.0727 -0.0372  0.1081
 2365W        W17496  14.384  16.987   0.838 -0.1520  0.0745  0.0742
 2366W        W17497  17.198   5.340  11.056 -0.1364  0.2105  0.3282
 2367W        W17498   1.551   2.787  13.574  0.3207  0.2167 -0.2158
 2368W        W17499   3.795  15.378  14.930  0.1496 -0.0527  0.0854
 2369W        W17500  14.726  11.237   2.845 -0.0847 -0.0966 -0.1859
 2370W        W17501   0.947   9.411  15.177 -0.2056 -0.1526 -0.1614
 2371W        W17502  18.374   8.582   4.604 -0.4917  0.1838  0.4101
 2372W        W17503  16.721   8.048  13.820 -0.2499  0.1848  0.2267
 2373W        W17504   6.268   9.273   3.143 -0.1896  0.2019 -0.1121
 2374W        W17505   5.203   2.067   3.005  0.2895 -0.1519 -0.3508
 2375W        W17506  12.905   4.600   2.883 -0.1632  0.1065 -0.1083
 2376W        W17507   4.826  15.274  12.729  0.0215  0.2201  0.0806
 2377W        W17508   0.087  12.480   5.575 -0.2310  0.0914 -0.1042
 2378W        W17509  13.470   5.662  12.257 -0.2347 -0.1301 -0.1235
 2379W        W17510  17.188  15.286  14.276  0.1776 -0.3330 -0.1717
 2380W        W17511  14.024   3.969   5.585 -0.0625 -0.1288  0.1521
 2381W        W17512  14.901   9.384   1.560 -0.0135 -0.0614 -0.0992
 2382W        W17513   7.789   8.237   2.468 -0.3171 -0.0989 -0.0324
 2383W        W17514   6.311   8.937  11.940 -0.0248  0.0113  0.0125
 2384W        W17515  11.680   1.085   1.297 -0.0494 -0.1000 -0.1681
 2385W        W17516  16.076  10.881   2.639 -0.0463  0.0088 -0.0401
 2386W        W17517   8.578   1.321  13.517 -0.1265  0.1079 -0.0381
 2387W        W17518  11.862  18.184   5.291 -0.0077 -0.3617 -0.3520
 2388W        W17519  18.211   9.697   3.257  0.0713 -0.0182 -0.3253
 2389W        W17520   1.435   4.268   3.593  0.1536 -0.1873  0.1490
 2390W        W17521  18.283   7.734   3.629  0.2227 -0.0299  0.0161
 2391W        W17522  12.803  17.181  14.629 -0.4533  0.0639 -0.1752
 2392W        W17523   4.357  15.407   4.695  0.0111  0.0860 -0.2752
 2393W        W17524  17.130  17.773   4.096  0.0470  0.1709  0.0771
 2394W        W17525  17.123  12.504  14.196 -0.0525 -0.0614  0.1046
 2395W        W17526   8.284  16.344   2.127 -0.1551 -0.0318  0.0839
 2396W        W17527   6.029  11.859   0.629 -0.0041 -0.2321  0.1291
 2397W        W17528   7.707   7.154   2.453 -0.4044 -0.1360 -0.0955
 2398W        W17529   6.349   9.052   0.207  0.0009  0.1717  0.3520
 2399W        W17530   5.257  16.972  11.386 -0.0068 -0.1852 -0.3973
 2400W        W17531   3.825   9.222  10.953 -0.3007  0.2202 -0.0476
 2401W        W17532   3.886  14.142  15.378 -0.4575 -0.0015 -0.0694
 2402W        W17533  17.505  13.999   0.927  0.0335  0.3055 -0.0190
 2403W        W17534   1.064   4.529  15.509 -0.2301  0.0296  0.2087
 2404W        W17535   0.100   8.688  15.594  0.2522 -0.0359 -0.0129
 2405W        W17536   4.017   5.359   1.844 -0.2502 -0.0254  0.0148
 2406W        W17537   5.063  16.602  12.022  0.0351  0.1266 -0.5483
 2407W        W17538  12.545   7.401  10.138  0.0878  0.2902 -0.1742
 2408W        W17539  16.270   1.654  15.241 -0.1444  0.2774  0.1793
 2409W        W17540  17.703  11.004  15.521  0.2468  0.0643  0.1496
 2410W        W17541  14.709  14.481   0.250 -0.2524 -0.1327 -0.2040
 2411W        W17542   8.053  13.940   4.714 -0.1577  0.0980 -0.1525
 2412W        W17543  17.373   7.794  15.801 -0.3079  0.0471 -0.1808
 2413W        W17544   9.468  17.248   2.926 -0.4692 -0.1056 -0.2565
 2414W        W17545   1.562   2.143  12.868 -0.2928 -0.1643 -0.3058
 2415W        W17546   2.457   1.950  13.193 -0.4066 -0.0329 -0.0315
 2416W        W17547   1.786   7.193   5.014  0.3062 -0.0992  0.0905
 2417W        W17548  12.975  18.186   0.191 -0.3504 -0.0355  0.0736
 2418W        W17549  11.165  13.608   0.375 -0.4211 -0.1106  0.1324
 2419W        W17550  15.277   5.006   4.627 -0.3458 -0.2135  0.0109
 2420W        W17551   6.341   3.187  11.861  0.0689 -0.1614 -0.1732
 2421W        W17552   4.374   1.548   4.368 -0.0547 -0.0616 -0.1333
 2422W        W17553  14.104   9.779  13.412 -0.2125 -0.0550 -0.1756
 2423W        W17554   4.899   9.427   3.894  0.2167  0.3432 -0.0384
 2424W        W17555  16.454   9.179  14.481 -0.0245 -0.0157  0.2085
 2425W        W17556   9.857   2.619  11.122 -0.1488  0.1535 -0.0449
 2426W        W17557  10.841   0.855  14.709 -0.3008  0.2919  0.1879
 2427W        W17558  14.636  11.865  12.088  0.2886  0.2880  0.0793
 2428W        W17559   9.889   2.975   5.234 -0.0890  0.2986  0.1101
 2429W        W17560   0.040   8.559   5.994 -0.0341  0.2278 -0.0134
 2430W        W17561   7.657  10.378   1.125  0.1875 -0.2530  0.1576
 2431W        W17562   6.899   8.929   5.105 -0.0760 -0.2257  0.0920
 2432W        W17563   5.319  17.572  11.770 -0.1107 -0.0554  0.1770
 2433W        W17564   2.925   8.474   9.982  0.0973  0.0616  0.1398
 2434W        W17565   4.183   6.820   4.392 -0.1010 -0.2564  0.2406
 2435W        W17566  11.569  15.507  12.828 -0.5045 -0.0015 -0.0505
 2436W        W17567  16.319  11.614  11.391  0.2044 -0.1987 -0.0371
 2437W        W17568  17.722   3.895   3.745  0.2258  0.1270  0.0242
 2438W        W17569   9.608  13.150   2.202  0.0114 -0.1845  0.3557
 2439W        W17570  14.233   7.542   5.243  0.1593 -0.1911  0.0621
 2440W        W17571  15.408   3.620  11.315  0.0302 -0.5991  0.1290
 2441W        W17572  11.072  11.223   4.487 -0.1293  0.0498  0.0632
 2442W        W17573   3.033  13.569   0.347  0.1147 -0.0755 -0.1928
 2443W        W17574  17.643  14.093   3.874 -0.1543 -0.0471 -0.1560
 2444W        W17575  14.803   2.415   2.022  0.3346  0.2237  0.0801
 2445W        W17576  15.576   0.479  15.376 -0.0854  0.2801 -0.0920
 2446W        W17577  16.338   0.505  11.391  0.1773 -0.1319  0.2547
 2447W        W17578  10.486  13.203  11.027  0.0528 -0.0471 -0.0522
 2448W        W17579   3.835  11.237  12.282  0.1631  0.0973 -0.4095
 2449W        W17580  13.061   4.769  14.509  0.2425 -0.1247  0.0177
 2450W        W17581   8.801  12.195  12.812  0.1846  0.1580  0.0611
 2451W        W17582   2.563  10.790   5.530 -0.1428 -0.1079  0.2308
 2452W        W17583   6.598  11.790   2.322 -0.0014  0.2152  0.0203
 2453W        W17584   0.804   0.867   2.152  0.0793 -0.1706 -0.3499
 2454W        W17585   5.464   2.703  15.799  0.3160 -0.1438  0.1635
 2455W        W17586  15.746  10.924   0.733  0.1230 -0.1023 -0.3063
 2456W        W17587   2.159  13.126   2.948  0.0262  0.0629  0.1245
 2457W        W17588  11.500   7.306  14.120  0.1784  0.0145 -0.1359
 2458W        W17589  11.023   9.497  13.982  0.0918 -0.2120  0.0665
 2459W        W17590  12.059   9.486   2.985  0.1948 -0.0892 -0.2737
 2460W        W17591  12.420  16.200   3.442 -0.5240 -0.0555  0.2837
 2461W        W17592   4.349   8.996   2.063 -0.2228 -0.0564 -0.1534
 2462W        W17593  16.788   8.013   5.687  0.0751  0.0843  0.0614
 2463W        W17594  12.084  12.450   0.308 -0.1280  0.0823 -0.3351
 2464W        W17595  11.782   6.927   4.891  0.0393  0.0673 -0.3049
 2465W        W17596   6.763   7.020   2.356  0.1548 -0.0540 -0.2276
 2466W        W17597  13.037   5.370   0.820 -0.3454  0.1609  0.3731
 2467W        W17598  10.388  17.524   3.653  0.1505 -0.2707  0.0669
 2468W        W17599   2.115  15.430   1.515 -0.0249 -0.3809  0.1624
 2469W        W17600  11.204   6.031   4.238 -0.0641 -0.1534  0.2631
 2470W        W17601   3.607  12.666  15.152  0.2182 -0.0325 -0.0024
 2471W        W17602   2.153   9.015  12.271  0.0044  0.0426  0.3211
 2472W        W17603  10.109  11.199  10.645 -0.1327 -0.2203  0.0301
 2473W        W17604   3.771  10.495   4.298 -0.1621 -0.0545  0.2210
 2474W        W17605  14.752  18.157  13.975  0.0894 -0.2529 -0.0997
 2475W        W17606   1.375   6.787  14.809  0.1910  0.3040  0.2228
 2476W        W17607  12.666  16.722  10.944 -0.1185  0.1386  0.2533
 2477W        W17608   0.577  11.848  13.600 -0.3170  0.1087 -0.1117
 2478W        W17609   9.210   8.206   4.886 -0.2515 -0.1502 -0.2195
 2479W        W17610   2.651   9.807  14.066  0.0131 -0.1925 -0.3674
 2480W        W17611   1.463  14.446   0.016 -0.1347 -0.2010 -0.0716
 2481W        W17612   5.675  15.122   0.520 -0.2441 -0.3498 -0.0001
 2482W        W17613  14.681  15.570  13.655 -0.0465  0.2492  0.1731
 2483W        W17614   7.955   6.792   2.199 -0.1949 -0.2316 -0.3964
 2484W        W17615  11.881   0.205   5.282  0.1487 -0.0884  0.1348
 2485W        W17616   7.332   3.689  13.840 -0.1876  0.0996 -0.0605
 2486W        W17617  16.492   8.573   3.620 -0.1651  0.1540 -0.1401
 2487W        W17618  16.221  14.937   0.921  0.2046  0.1212  0.1081
 2488W        W17619  16.792  10.814   0.008  0.0153 -0.0562  0.1473
 2489W        W17620  11.444   5.591   5.421 -0.1166 -0.0909 -0.0587
 2490W        W17621  13.535  18.085   3.918  0.1088 -0.1451 -0.1490
 2491W        W17622  15.673  17.001  13.043  0.0856 -0.0869  0.1153
 2492W        W17623  13.357   7.515  14.353  0.2097 -0.1295 -0.2178
 2493W        W17624  10.228   1.882  15.702 -0.0091  0.0358  0.0001
 2494W        W17625  10.811  13.486  15.428  0.2478 -0.1281 -0.1742
 2495W        W17626   6.048   2.229   4.460 -0.0623  0.0296  0.0265
 2496W        W17627   0.961  12.414   5.442 -0.0895 -0.2122  0.1650
 2497W        W17628  14.580  15.786  12.439  0.0579 -0.1031  0.1020
 2498W        W17629   9.373  18.263   4.547  0.0741 -0.0676 -0.3349
 2499W        W17630   3.189  15.342   5.619 -0.1942 -0.2731 -0.0659
 2500W        W17631   3.371   8.441   0.231  0.0468  0.1994  0.0450
 2501W        W17632   5.274  12.318   5.190 -0.1363 -0.2825 -0.0330
 2502W        W17633   7.243   2.189   9.838 -0.3517  0.1550 -0.1261
 2503W        W17634  10.991  10.192   3.683 -0.0137 -0.1151  0.4728
 2504W        W17635   0.555   8.782   3.031  0.0425  0.3048  0.1072
 2505W        W17636  17.128  11.763  14.863 -0.1169 -0.1774  0.2080
 2506W        W17637  17.240   7.079   0.851 -0.0247 -0.0477 -0.0756
 2507W        W17638  10.641   1.668  15.891 -0.0614  0.0393 -0.1069
 2508W        W17639  12.811  14.863  15.680 -0.0990  0.2428 -0.2600
 2509W        W17640   2.083   5.009   0.238  0.1961 -0.2407 -0.1614
 2510W        W17641  17.865   9.638  13.981 -0.0609 -0.0520 -0.0548
 2511W        W17642   8.522   9.728   1.099 -0.0314  0.3030  0.0657
 2512W        W17643  11.835   7.759   3.144  0.0902 -0.1909  0.0116
 2513W        W17644  10.051   1.290  14.280 -0.0264 -0.0516  0.1076
 2514W        W17645   9.185  18.310  14.661 -0.2412 -0.2084 -0.1991
 2515W        W17646  16.804   0.356  12.522  0.0608  0.1185 -0.0271
 2516W        W17647   9.022   8.441   2.819  0.0983  0.1943  0.0329
 2517W        W17648   0.431   5.899  12.030  0.3459  0.1979  0.1895
 2518W        W17649  14.172   0.049   6.230  0.2940 -0.0199  0.0952
 2519W        W17650   4.720   0.117   5.029 -0.0903 -0.1962  0.0200
 2520W        W17651   1.308  11.350  15.743  0.1399  0.2166  0.1094
 2521W        W17652   7.605  15.638  11.252 -0.0403 -0.1563  0.0966
 2522W        W17653  10.931   2.960   4.323 -0.3409  0.1169  0.0437
 2523W        W17654  12.628   4.401  15.737  0.2877  0.0554 -0.0986
 2524W        W17655   5.899   0.231  13.819  0.1745 -0.1076 -0.0394
 2525W        W17656   4.066   4.406  13.428 -0.3537  0.1374 -0.0158
 2526W        W17657   2.571   7.844   3.929 -0.0021 -0.1549 -0.0852
 2527W        W17658   8.870  18.376   1.539  0.0480  0.0240  0.1219
 2528W        W17659  13.926   4.627   4.015 -0.1437  0.3293 -0.0693
 2529W        W17660   6.687   3.372  15.149  0.1565  0.1745  0.0840
 2530W        W17661  16.734   3.035   4.684 -0.0842  0.0378 -0.0832
 2531W        W17662  18.412   9.219  11.348 -0.1848  0.0040  0.0601
 2532W        W17663  10.287  15.541  12.664  0.0552 -0.2127 -0.0088
 2533W        W17664   3.094   3.366  12.438 -0.2522  0.0336 -0.1079
 2534W        W17665  15.352   5.585   3.068 -0.0879 -0.1695  0.2645
 2535W        W17666   2.891  13.164   2.535  0.0354  0.1775 -0.2729
 2536W        W17667   7.350   5.617   4.052  0.0019 -0.4681  0.0245
 2537W        W17668  13.514  15.074   0.835 -0.5112  0.0478  0.0002
 2538W        W17669  14.264  16.530   1.067  0.0436 -0.1473  0.0530
 2539W        W17670   0.088   2.117   2.340 -0.1736 -0.1986 -0.2692
 2540W        W17671  11.348  18.426   0.084  0.2465 -0.0274 -0.4294
 2541W        W17672   7.493  18.390  11.060  0.1235 -0.2097  0.1797
 2542W        W17673  13.108  18.323  14.790  0.0593  0.0726  0.1534
 2543W        W17674  14.266   0.091  12.115 -0.3195  0.1038  0.0020
 2544W        W17675  14.039   5.769  13.934 -0.2869  0.0149  0.1141
 2545W        W17676   9.693   9.880   2.534  0.3740  0.2204  0.1525
 2546W        W17677   2.542  14.279   5.097 -0.0341 -0.0126 -0.3630
 2547W        W17678   7.819  11.996  11.117 -0.1760  0.0809 -0.5612
 2548W        W17679   9.723   3.666  12.981 -0.1070 -0.0694  0.0166
 2549W        W17680   2.923   2.006  13.599  0.0281  0.0143 -0.1212
 2550W        W17681   7.042   0.738  11.406  0.0809  0.5522 -0.1004
 2551W        W17682   4.751  11.927   2.941  0.1979  0.0058  0.2618
 2552W        W17683  16.978  16.200   2.664 -0.0085 -0.1987 -0.2150
 2553W        W17684   4.015   7.238   1.591  0.0437 -0.0591  0.0793
 2554W        W17685   3.190   8.886   0.722 -0.0249 -0.1281 -0.0480
 2555W        W17686  13.865  17.011  14.798 -0.0596  0.3707 -0.1271
 2556W        W17687  17.093  16.282  11.683  0.0781 -0.0292 -0.4160
 2557W        W17688   4.795   3.920   3.392  0.2375 -0.1471 -0.4130
 2558W        W17689   8.909  16.829   3.543 -0.2578 -0.0561  0.0797
 2559W        W17690   1.085   8.378   2.005 -0.0771 -0.2265  0.2761
 2560W        W17691  11.597   2.154  14.308  0.0585 -0.0956  0.1301
 2561W        W17692  14.484  13.354   1.387  0.1049 -0.1805  0.0916
 2562W        W17693  11.266   6.798  11.623  0.1840  0.1333 -0.0684
 2563W        W17694  10.748   8.646   0.178  0.0749  0.0022 -0.2633
 2564W        W17695   4.447   7.576  11.534  0.1258 -0.0094 -0.0111
 2565W        W17696  15.666  16.477  10.768  0.3732 -0.0565 -0.3265
 2566W        W17697  11.241   9.459   9.649 -0.3221  0.0058  0.0832
 2567W        W17698   3.505  10.093  14.347  0.0297  0.2382 -0.2140
 2568W        W17699   7.926   3.215   3.247  0.1830  0.3007  0.0662
 2569W        W17700   8.200   8.171  12.538 -0.1430  0.1781  0.2677
 2570W        W17701   2.597   0.890  14.620  0.1279  0.1289 -0.0161
 2571W        W17702   5.749   3.571  11.886 -0.3464 -0.0194 -0.4831
 2572W        W17703  13.790   6.654   2.222 -0.2055 -0.2406  0.1090
 2573W        W17704   1.738   9.182   3.441 -0.1515  0.3388 -0.3319
 2574W        W17705   4.570  16.076   2.768 -0.0057  0.0722 -0.0736
 2575W        W17706   1.279   3.187   5.366  0.0933 -0.0331  0.0855
 2576W        W17707   0.840  10.016  13.457 -0.1189  0.3293  0.0680
 2577W        W17708   3.521   8.622  13.451 -0.1342  0.3193  0.3071
 2578W        W17709   4.445   4.639   2.833  0.0502 -0.0486 -0.0343
 2579W        W17710  16.774  14.141  13.633  0.0514 -0.1057  0.1413
 2580W        W17711  14.024  15.048  14.218 -0.3390  0.0053  0.0579
 2581W        W17712  11.628  18.205  13.949 -0.1187  0.2823 -0.1878
 2582W        W17713   8.097   0.792   9.796 -0.1341 -0.0151 -0.2435
 2583W        W17714  15.466  10.566   2.758 -0.0706 -0.2707  0.0690
 2584W        W17715  18.448  13.162   5.026 -0.1629  0.0088 -0.3696
 2585W        W17716   5.020   9.912  13.532  0.1184 -0.0314  0.0224
 2586W        W17717   3.862   0.349  14.990 -0.1677  0.2559  0.2135
 2587W        W17718   6.724   8.546   0.755  0.1856  0.2700 -0.0494
 2588W        W17719  10.383   4.050  11.918 -0.2355 -0.2075 -0.2892
 2589W        W17720   0.350  11.134   0.412 -0.0912  0.4478 -0.1239
 2590W        W17721  17.567   0.405  11.334  0.0805  0.0558 -0.1661
 2591W        W17722  11.878  12.553   1.660 -0.0573  0.4444 -0.1534
 2592W        W17723  14.247   8.100   5.263  0.1431 -0.2331  0.2190
 2593W        W17724  12.145  18.218  13.919  0.0814  0.2498 -0.0840
 2594W        W17725  12.567  13.090   0.818 -0.2215  0.0665 -0.0694
 2595W        W17726   8.038   3.164   2.212 -0.0070 -0.0446 -0.0465
 2596W        W17727   8.465   2.755  15.093 -0.0687  0.0537  0.0522
 2597W        W17728  12.902  17.912  12.927  0.0740 -0.1260  0.1509
 2598W        W17729  15.867   6.751   3.473 -0.0150  0.1444  0.1697
 2599W        W17730   0.814   9.719   0.205 -0.0854 -0.1563 -0.0297
 2600W        W17731  15.813   8.486   4.820 -0.1823 -0.0558 -0.1356
 2601W        W17732  18.460  14.451  15.682 -0.4732 -0.2442 -0.0142
 2602W        W17733  11.240   9.166   4.959 -0.0724 -0.0271  0.2122
 2603W        W17734   0.839  15.320   4.160 -0.3865 -0.2984 -0.2409
 2604W        W17735   5.433  12.803   1.525 -0.1522 -0.1726 -0.1648
 2605W        W17736   4.608  15.933  10.330  0.0151  0.0767 -0.1052
 2606W        W17737  12.576  17.396  15.396  0.1425 -0.2092 -0.1473
 2607W        W17738  14.849  10.023   9.963  0.0517  0.3311  0.0752
 2608W        W17739   0.810   2.164   0.518 -0.0975 -0.0561 -0.3512
 2609W        W17740  16.286  17.077   2.929 -0.2061  0.1242  0.1796
 2610W        W17741   3.136  14.833   2.937 -0.2704 -0.2648 -0.0914
 2611W        W17742   8.270   6.237   1.375  0.1020 -0.1009  0.0431
 2612W        W17743  14.261  17.450  13.103  0.0297  0.0287  0.0782
 2613W        W17744   2.008  14.160  11.888  0.0705 -0.4264  0.0048
 2614W        W17745   8.921   7.841   4.888 -0.0504 -0.2880  0.2323
 2615W        W17746  15.096   3.240   3.460 -0.2913  0.1083 -0.2009
 2616W        W17747   1.678   9.620  13.453 -0.1439  0.1588  0.0681
 2617W        W17748  18.273   9.338  12.747 -0.2960  0.2506 -0.0848
 2618W        W17749  13.227   2.587   2.263  0.0711 -0.0359  0.1650
 2619W        W17750   8.419  16.763  15.839 -0.2379  0.0271  0.0922
 2620W        W17751  12.503  14.765  12.373  0.0520  0.0809  0.0089
 2621W        W17752  15.802   0.268  12.830 -0.2058  0.0983  0.0662
 2622W        W17753  12.063   0.528   0.530 -0.1880  0.0656  0.0810
 2623W        W17754  14.856   3.582   1.977 -0.1847  0.1726 -0.3791
 2624W        W17755  11.021   4.623   0.734 -0.1191 -0.0507  0.2267
 2625W        W17756   0.467  14.534  14.985 -0.2462 -0.0613  0.1211
 2626W        W17757  13.552  12.256  13.044 -0.3097  0.1696  0.0100
 2627W        W17758   1.460   2.136  14.849  0.1084  0.2429  0.0853
 2628W        W17759  17.896  11.935  11.164  0.1258 -0.2426  0.2660
 2629W        W17760   8.758  17.768  11.091 -0.3282  0.0835  0.0877
 2630W        W17761   0.273   2.283  11.003  0.2106 -0.1880 -0.1590
 2631W        W17762   4.596   2.038   1.237 -0.1101  0.1494 -0.0878
 2632W        W17763  15.942  17.424   1.636  0.2498  0.0888  0.0803
 2633W        W17764   5.318   4.958   0.211 -0.1475  0.1209 -0.1208
 2634W        W17765   0.246  14.536   4.019 -0.0701  0.1051 -0.1299
 2635W        W17766   1.780  11.893  11.620  0.0927  0.0578 -0.0003
 2636W        W17767  15.152  16.863  15.862  0.3491 -0.0804 -0.2089
 2637W        W17768   2.932   3.006   5.429 -0.4701  0.1755  0.2529
 2638W        W17769   8.781  14.908   0.661 -0.0117  0.5722  0.1253
 2639W        W17770   0.749  17.913   3.887 -0.2781 -0.0220 -0.0306
 2640W        W17771   6.696   2.967   3.920  0.0103  0.0714  0.0494
 2641W        W17772   3.310  10.938   2.293  0.0854  0.1566 -0.0751
 2642W        W17773   1.148  17.737  12.138 -0.0854  0.0416  0.2649
 2643W        W17774   4.762   8.176  12.465  0.1145 -0.1477  0.1478
 2644W        W17775  10.099   8.168  15.275 -0.1582 -0.0108  0.0002
 2645W        W17776   6.742  17.015  10.460  0.1752  0.0608 -0.1004
 2646W        W17777  11.028   6.914   5.689  0.1603 -0.1994  0.0192
 2647W        W17778   9.875   5.974  10.895 -0.3779 -0.1737 -0.2952
 2648W        W17779   2.922   8.846   3.474 -0.1146 -0.0618 -0.2956
 2649W        W17780   5.772  11.492  14.021 -0.0865  0.0704 -0.3245
 2650W        W17781  14.352   6.224   4.071  0.1605  0.3831 -0.0716
 2651W        W17782   5.474   8.524  11.412 -0.5116  0.5451  0.0528
 2652W        W17783  12.685  14.308   5.230 -0.1966  0.1036  0.3799
 2653W        W17784   9.466   0.562  12.057 -0.1043 -0.0306  0.2019
 2654W        W17785  18.094   0.068   5.498 -0.1966 -0.2129 -0.0110
 2655W        W17786   5.724   6.155   2.096  0.1914 -0.0431 -0.1231
 2656W        W17787   8.745  10.188   3.027  0.0019 -0.2649 -0.1726
 2657W        W17788   0.749  11.989  11.512 -0.2347  0.2282  0.1053
 2658W        W17789  17.648  15.363   1.652 -0.0549  0.1368  0.1698
 2659W        W17790   5.573   3.864  14.456  0.0402  0.0290 -0.0554
 2660W        W17791  16.975   7.942  13.244  0.0803  0.3144  0.1917
 2661W        W17792  17.101   1.861  11.406  0.2498 -0.2595 -0.2227
 2662W        W17793   7.768   6.512   4.892  0.1139  0.6889  0.2448
 2663W        W17794   3.430  16.511  15.438  0.0486 -0.0440  0.2325
 2664W        W17795   9.657  12.694   5.201  0.0431 -0.3290 -0.0816
 2665W        W17796   7.485  15.730  15.813 -0.3028  0.1731 -0.0066
 2666W        W17797  14.719  15.031   6.057 -0.0691 -0.1224  0.0824
 2667W        W17798  16.146  11.018  15.415  0.3378 -0.1604  0.0448
 2668W        W17799   2.413   3.216   2.444 -0.1177 -0.1482 -0.0803
 2669W        W17800  17.081   4.346   1.207 -0.0435 -0.0549  0.0045
 2670W        W17801  10.355   0.907  14.115  0.3293  0.3837 -0.0591
 2671W        W17802   8.037  13.419   0.536  0.1203  0.1334  0.1882
 2672W        W17803   5.123  15.222   3.247  0.1241  0.0463  0.2097
 2673W        W17804  11.625  16.734  10.167 -0.0380  0.0920  0.1057
 2674W        W17805  14.491   4.611   2.260  0.2322 -0.0778  0.0261
 2675W        W17806  16.099   4.890  14.408  0.0355 -0.1068  0.0958
 2676W        W17807   0.575  15.719   3.978 -0.0258  0.2185 -0.0784
 2677W        W17808   2.005  13.646  14.406 -0.1292 -0.2818 -0.1662
 2678W        W17809   6.969   8.997  15.409  0.2270 -0.1318  0.3145
 2679W        W17810   4.356  10.126  12.993  0.2363  0.0565 -0.1030
 2680W        W17811  17.704  14.101  14.043  0.2329  0.1702  0.3423
 2681W        W17812  14.779  11.227  10.354 -0.1640  0.0191 -0.0930
 2682W        W17813   7.016   9.706   2.638 -0.0435  0.3972  0.1572
 2683W        W17814  12.297   8.946   4.731 -0.1276 -0.0662  0.0969
 2684W        W17815   0.510  10.329  13.555  0.0405 -0.0678 -0.4462
 2685W        W17816  11.437  18.244  12.165  0.2568  0.1112  0.0256
 2686W        W17817   3.519  11.978   3.480  0.1706  0.0492 -0.1703
 2687W        W17818  16.815  12.178  12.248  0.2870  0.2101 -0.4261
 2688W        W17819  16.200   0.768  12.658 -0.1961 -0.0809 -0.2215
 2689W        W17820   5.726   1.640  14.463 -0.1093 -0.2047  0.4079
 2690W        W17821   4.043  13.344   3.628  0.0401  0.0591  0.1127
 2691W        W17822  14.690  12.584  14.120  0.3578 -0.3453 -0.0715
 2692W        W17823  12.206   0.599   6.046  0.0447  0.1243  0.3863
 2693W        W17824   8.443   3.233  14.031  0.0113 -0.2422  0.0489
 2694W        W17825   1.128   9.598  13.310 -0.3750 -0.1048  0.0232
 2695W        W17826  10.878   0.345  12.957 -0.0806 -0.1142  0.0879
 2696W        W17827   1.940   8.418  11.600 -0.1164  0.1654  0.0651
 2697W        W17828   3.936   1.877   0.460  0.0563 -0.1008 -0.3309
 2698W        W17829   3.438   6.947   3.148  0.0397  0.4027  0.1602
 2699W        W17830   5.312  16.021  10.892 -0.2261  0.5920 -0.0490
 2700W        W17831  17.436  17.396   2.521  0.1656  0.1345  0.1112
 2701W        W17832  12.104  14.996  14.511 -0.0296 -0.0545  0.1530
 2702W        W17833   3.429   4.089  10.737  0.1808 -0.0248  0.1427
 2703W        W17834   9.806   0.487   5.766  0.0282 -0.0804 -0.2246
 2704W        W17835   7.112   1.566   5.335  0.0839  0.1681  0.2316
 2705W        W17836   7.234  10.990  14.818  0.2471  0.0946 -0.1219
 2706W        W17837  18.409   4.474   0.762 -0.1266  0.1205  0.1185
 2707W        W17838   0.954   2.491   3.187 -0.2364 -0.3868 -0.2173
 2708W        W17839   8.714   6.231   1.748  0.0223 -0.1397 -0.1566
 2709W        W17840  10.271   9.439   2.854 -0.0589  0.0340  0.0897
 2710W        W17841   4.220   1.193   4.853  0.0087 -0.0656  0.0111
 2711W        W17842  17.291  16.974   4.752  0.0199  0.0289  0.1725
 2712W        W17843   9.575   2.267  12.258  0.2198  0.0126  0.1369
 2713W        W17844   9.110   8.992   0.714 -0.1811 -0.2324 -0.1084
 2714W        W17845   1.432  12.800   4.907 -0.1329 -0.2020  0.0092
 2715W        W17846   6.732   6.974  13.625  0.2988 -0.2802  0.1098
 2716W        W17847   3.728  15.604  12.677  0.1230 -0.1158 -0.0527
 2717W        W17848  17.311   3.008   3.712 -0.3172 -0.0836 -0.0729
 2718W        W17849   0.973  17.737  11.215  0.1216 -0.0421 -0.1590
 2719W        W17850   3.157  15.431   1.552  0.1905  0.0486  0.0437
 2720W        W17851   3.148  13.982  10.490  0.1272 -0.2224  0.6390
 2721W        W17852   9.309  12.538  10.460 -0.0804  0.0420 -0.2045
 2722W        W17853   7.834  14.003   1.168  0.3382 -0.2148  0.0594
 2723W        W17854  14.200  11.033   0.200 -0.0015 -0.0488 -0.1650
 2724W        W17855   5.888  12.076   3.014  0.0510  0.0178  0.0252
 2725W        W17856  14.085  13.658  10.519 -0.0349  0.0173  0.0865
 2726W        W17857   2.855   9.755  11.371  0.1475  0.2583 -0.0824
 2727W        W17858  15.063   2.377  14.738 -0.0652  0.0560  0.2268
 2728W        W17859   5.901  13.745   4.763  0.2463  0.0662  0.2388
 2729W        W17860   7.158   7.089  12.777  0.0359  0.2635 -0.1443
 2730W        W17861   4.696   9.595   5.388 -0.3020 -0.1257 -0.0064
 2731W        W17862   8.834  13.634   1.072  0.1972 -0.3445 -0.1307
 2732W        W17863  14.286   9.619  12.279 -0.2965 -0.5219 -0.0774
 2733W        W17864  11.911  10.139  13.619 -0.0437  0.1458  0.0434
 2734W        W17865  16.109  16.510   2.441 -0.2549 -0.1651 -0.2688
 2735W        W17866   5.560  11.759  11.046 -0.3020 -0.1299  0.3305
 2736W        W17867   5.358  17.245   0.429  0.1916 -0.1701  0.0512
 2737W        W17868  15.134  15.701  13.458 -0.2145 -0.0579 -0.1591
 2738W        W17869   1.410  10.532  12.339 -0.1147 -0.1779 -0.1064
 2739W        W17870   3.789  16.133   5.606 -0.0225 -0.2278  0.0702
 2740W        W17871  17.431  10.650  15.030 -0.0989  0.1785  0.2868
 2741W        W17872   4.888  15.887   5.716  0.0001  0.2473 -0.0193
 2742W        W17873   8.139   2.564  12.348 -0.3784 -0.2552  0.0971
 2743W        W17874   2.944  14.102  12.888 -0.1035  0.0195  0.0636
 2744W        W17875   7.019   3.332   4.900 -0.1032  0.1841  0.0125
 2745W        W17876   1.106  15.499  10.883 -0.1543  0.0616 -0.0251
 2746W        W17877   7.188   3.214  13.744 -0.2620  0.0040  0.0625
 2747W        W17878  13.710   7.316  14.627 -0.1761  0.0066 -0.1757
 2748W        W17879  18.326   7.168   3.705  0.3426  0.0401  0.1599
 2749W        W17880  14.475   4.942  10.701  0.1106 -0.0900  0.0250
 2750W        W17881   7.784   9.639  15.650 -0.0403 -0.0288 -0.2914
 2751W        W17882  17.823  18.490   0.686 -0.2145 -0.2877 -0.3882
 2752W        W17883   1.338  11.329  13.955 -0.3455  0.0396  0.0400
 2753W        W17884   7.972   8.360   2.986 -0.1940  0.1046  0.1955
 2754W        W17885   9.301   3.751   4.167 -0.1281  0.0384  0.2217
 2755W        W17886   3.369   1.341   4.516 -0.0452 -0.0155 -0.1743
 2756W        W17887   6.311  13.999   3.330 -0.1437  0.5122  0.0295
 2757W        W17888  17.681   4.832   0.335  0.0819 -0.0893 -0.1631
 2758W        W17889  10.078   4.851   3.032  0.1065 -0.3455 -0.0133
 2759W        W17890   5.216   6.687   2.826 -0.0329 -0.0376  0.1176
 2760W        W17891   9.390   1.372  10.697 -0.1110  0.0787 -0.0335
 2761W        W17892  14.496   9.669   3.980  0.1986  0.0017  0.0078
 2762W        W17893   4.243   1.483  11.135  0.5194 -0.1390 -0.0827
 2763W        W17894   2.661   7.342  11.261  0.0980  0.0876 -0.5264
 2764W        W17895   9.276   6.151  13.920  0.2951  0.0021 -0.0471
 2765W        W17896   1.212   1.559  14.009 -0.0519  0.3815 -0.3623
 2766W        W17897   0.411  16.119   2.909 -0.3197 -0.3020 -0.0933
 2767W        W17898  16.022  12.241  10.706 -0.2581 -0.2756  0.1211
 2768W        W17899  13.547   3.391  11.301  0.1480 -0.2884  0.1211
 2769W        W17900  13.892   7.170   4.717 -0.1044  0.1864  0.0115
 2770W        W17901  14.722  13.718   0.613 -0.0569  0.1201  0.0031
 2771W        W17902   9.327   1.765  11.575 -0.0785 -0.0097 -0.1042
 2772W        W17903  11.609   4.075   1.129  0.0222 -0.1476 -0.1201
 2773W        W17904  11.087   7.713  12.056 -0.1042  0.0783 -0.1680
 2774W        W17905   3.107   6.966   3.991  0.2305 -0.1165 -0.4668
 2775W        W17906  16.806  11.236  11.740  0.0128  0.2119  0.1205
 2776W        W17907   1.382   7.066  14.377  0.1337 -0.2329  0.2416
 2777W        W17908  10.419   2.319  13.330 -0.0436 -0.0289  0.2517
 2778W        W17909  15.233  13.171   9.557 -0.2192  0.1445  0.1105
 2779W        W17910   0.155   8.223   5.539 -0.1622  0.1045  0.2072
 2780W        W17911  13.719  11.826  12.293  0.0810 -0.1130 -0.0365
 2781W        W17912  13.074   0.640  11.212  0.3881  0.2066  0.0818
 2782W        W17913  13.124  16.778  13.093  0.1451  0.1454 -0.0092
 2783W        W17914   4.223  13.482   5.039  0.0962  0.0208 -0.3308
 2784W        W17915   5.686  13.355  14.735 -0.2934 -0.1538  0.0172
 2785W        W17916  10.839  16.269   0.818 -0.0164 -0.2430 -0.0901
 2786W        W17917  14.526   8.032   1.869  0.0518 -0.1237 -0.0215
 2787W        W17918   9.403   9.171   2.492 -0.0275 -0.0030 -0.2198
 2788W        W17919  16.768  17.003  12.463 -0.2239 -0.2548  0.0695
 2789W        W17920   4.457  12.463   4.135  0.1725  0.0547  0.1623
 2790W        W17921   5.672  10.563  13.461  0.3684  0.0456  0.3388
 2791W        W17922  15.450  17.533   3.812  0.1817 -0.2055  0.1595
 2792W        W17923   0.587   0.562   1.057 -0.6447 -0.0065  0.1566
 2793W        W17924  13.842   8.912   3.454 -0.1196  0.0203 -0.0396
 2794W        W17925  10.444   5.394  15.491 -0.2097 -0.1462 -0.1225
 2795W        W17926   0.244   2.552  15.579 -0.2141  0.0275  0.1337
 2796W        W17927   5.474   8.915  13.158  0.0437 -0.0916  0.0529
 2797W        W17928   7.813   0.704   0.267  0.0764  0.1438  0.1239
 2798W        W17929  18.395  15.247   3.163 -0.1577 -0.1464  0.0908
 2799W        W17930   7.154   6.424  11.498 -0.0976  0.0383 -0.2650
 2800W        W17931  11.438   4.385   1.454 -0.2096  0.0634 -0.0668
 2801W        W17932  11.285  13.999   0.625 -0.0009 -0.1111  0.0489
 2802W        W17933   9.246  16.585  11.585  0.0761 -0.0750  0.4584
 2803W        W17934  10.331   5.922  12.173 -0.1189  0.2094 -0.0206
 2804W        W17935  11.959   3.274   1.439  0.1043 -0.0729  0.2002
 2805W        W17936  17.026  16.152  15.717  0.0288  0.0758  0.2492
 2806W        W17937  10.271   1.855   4.344  0.2639  0.1963 -0.0525
 2807W        W17938   0.898   7.890   3.070 -0.1612 -0.0919  0.2565
 2808W        W17939   5.947  17.117  15.644 -0.4211 -0.0920 -0.1285
 2809W        W17940   5.977  10.113  15.101  0.0739 -0.1737  0.0321
 2810W        W17941  17.380  10.683  11.478  0.0556  0.0913 -0.0146
 2811W        W17942   5.812  12.403  15.033 -0.5500 -0.0462 -0.2601
 2812W        W17943   0.401   7.265  12.170 -0.2220 -0.1326 -0.1269
 2813W        W17944  12.260   6.227  12.210 -0.4531  0.1959  0.1261
 2814W        W17945   3.519  13.883  15.596  0.5288  0.2076 -0.0100
 2815W        W17946   0.621   8.999  11.872 -0.3752  0.2773  0.2148
 2816W        W17947   6.170   5.833   0.807  0.2285 -0.2607  0.0687
 2817W        W17948  14.892  13.546   5.113 -0.3060  0.1465 -0.0760
 2818W        W17949   9.112   0.844   4.909  0.0636  0.3089 -0.2318
 2819W        W17950  15.575  14.405  12.274  0.1181 -0.0581 -0.0276
 2820W        W17951   4.847  12.287  13.301 -0.5019  0.2909  0.0615
 2821W        W17952  14.506  15.382  12.033 -0.0587  0.1812  0.3982
 2822W        W17953   5.574   7.479   3.400 -0.0312 -0.1318  0.0646
 2823W        W17954   0.962   3.678  13.153 -0.0698  0.0693 -0.2959
 2824W        W17955   1.818  18.328  15.290 -0.1175 -0.1402 -0.3121
 2825W        W17956  13.963   1.790   3.497  0.3836  0.3934  0.2635
 2826W        W17957   9.919   7.466   6.045 -0.1810 -0.1397 -0.0426
 2827W        W17958   8.461  11.365   1.714 -0.1655 -0.0518  0.0446
 2828W        W17959   6.171  13.817  12.701  0.2336 -0.2579 -0.1987
 2829W        W17960  15.125   1.327  10.878 -0.1337  0.3145 -0.1092
 2830W        W17961   3.785   2.994  14.608 -0.2472  0.0723  0.1262
 2831W        W17962   3.919  17.476   4.710  0.4329  0.2200  0.2100
 2832W        W17963   2.876   9.077   2.948  0.1438 -0.1021  0.1778
 2833W        W17964   1.735   0.611   2.580  0.0495 -0.0828  0.0264
 2834W        W17965   6.919   6.087  13.105  0.0760 -0.3317 -0.2143
 2835W        W17966  16.707   8.444  14.976  0.0452  0.1445 -0.0649
 2836W        W17967   5.465  18.494  15.712  0.0472 -0.0338 -0.2226
 2837W        W17968  18.401   5.285  15.550  0.0532  0.0506 -0.2613
 2838W        W17969   2.416  16.182  15.494  0.0388 -0.0279 -0.0403
 2839W        W17970  12.566  10.953  12.662  0.1511 -0.0556  0.2435
 2840W        W17971  15.320   2.080   4.923 -0.0157  0.0984 -0.5032
 2841W        W17972   0.209  13.603  14.702 -0.2449  0.0482 -0.3065
 2842W        W17973   3.609   7.119  11.456  0.1451  0.3532  0.0528
 2843W        W17974   1.032   6.478  14.485 -0.0468 -0.1284  0.0757
 2844W        W17975  18.297  13.900   1.968  0.3312  0.2012  0.0063
 2845W        W17976  10.348  17.098   2.133 -0.3147 -0.1819  0.1385
 2846W        W17977   2.908   8.864  14.370 -0.1031 -0.0820 -0.5116
 2847W        W17978  16.061  10.993  11.809  0.0636  0.0446 -0.1398
 2848W        W17979   8.914   0.914   1.477 -0.2423 -0.0801 -0.0135
 2849W        W17980   5.348   9.349  11.986 -0.3563 -0.1953 -0.0475
 2850W        W17981  10.315  10.966   1.044  0.0041 -0.2526 -0.2270
 2851W        W17982  11.672   9.510  13.186 -0.1514 -0.3508 -0.2011
 2852W        W17983   6.509   5.624  13.560 -0.1382  0.0240 -0.0716
 2853W        W17984   6.354   4.316   2.634  0.0070  0.3074  0.2894
 2854W        W17985   7.550   5.270  15.786  0.2565 -0.0472  0.1166
 2855W        W17986   1.691  14.914   2.797 -0.1236 -0.1755  0.2582
 2856W        W17987  10.196   3.158  15.250 -0.1868 -0.1427 -0.1206
 2857W        W17988   4.003   8.370   3.913 -0.0450  0.0113  0.2237
 2858W        W17989   0.953  10.848  14.969  0.2318  0.0556 -0.0248
 2859W        W17990  14.456   1.370   1.200 -0.2051  0.0518 -0.0463
 2860W        W17991  12.556  15.144   5.893 -0.2632  0.2706  0.0936
 2861W        W17992  15.026  15.652   2.522 -0.1890 -0.2417  0.0336
 2862W        W17993  16.905  10.388   2.446  0.1770  0.2461 -0.0705
 2863W        W17994   9.863   8.556  15.012  0.3735 -0.0385  0.0813
 2864W        W17995  16.050   4.838  11.059 -0.3402 -0.1604  0.2644
 2865W        W17996   6.401   3.680  15.388 -0.2934 -0.0043 -0.0939
 2866W        W17997   6.956  13.763  12.180  0.4953 -0.0019  0.0842
 2867W        W17998  12.789   2.585  12.506 -0.0372 -0.0502  0.1687
 2868W        W17999   7.286   3.608   2.295 -0.2086  0.0339  0.1992
 2869W        W18000   5.684  12.126  14.412 -0.0383 -0.0409 -0.1575
 2870W        W18001  14.027  15.497   4.360  0.1469  0.0594 -0.0045
 2871W        W18002   9.654   2.069  10.447 -0.2326  0.0680 -0.2967
 2872W        W18003  15.609   4.759  14.547  0.3072 -0.1162  0.0742
 2873W        W18004   2.987  10.228  15.638 -0.3116  0.0990  0.1198
 2874W        W18005  14.412   6.831  12.016 -0.5632  0.1326 -0.1394
 2875W        W18006  15.725  10.942  12.542  0.0327 -0.2511  0.1294
 2876W        W18007  13.350   2.028  13.335 -0.0659  0.2947  0.1025
 2877W        W18008   7.847   0.973  14.554 -0.1689 -0.2898 -0.1487
 2878W        W18009  10.635   0.468  14.891 -0.0915 -0.2858  0.2257
 2879W        W18010   4.514   2.135   2.831 -0.1313 -0.0827 -0.1122
 2880W        W18011  18.140   7.321   0.456 -0.0720 -0.1286  0.3293
 2881W        W18012   0.843   5.245   2.289  0.3444  0.1785  0.1519
 2882W        W18013   8.078   8.883  12.010  0.1993  0.3453 -0.4901
 2883W        W18014   7.216  15.484  10.312 -0.1394 -0.1926  0.1937
 2884W        W18015  10.206  13.946  13.310  0.2150 -0.0851  0.0101
 2885W        W18016   0.671  14.149   5.333 -0.2831 -0.3100 -0.3134
 2886W        W18017   6.438  17.382   3.420 -0.4617 -0.1118 -0.1186
 2887W        W18018  17.295   8.006  11.251 -0.2325  0.4353 -0.2088
 2888W        W18019  11.031  18.276   1.612 -0.2411  0.0817  0.1057
 2889W        W18020  11.385  11.760   3.440  0.4481 -0.0193  0.0902
 2890W        W18021  15.564  13.398  13.730 -0.1136 -0.1817  0.2220
 2891W        W18022   8.582   4.279   0.425 -0.0617 -0.1228  0.1348
 2892W        W18023   8.047   0.541  11.157  0.1898 -0.2110  0.0322
 2893W        W18024   9.765   1.619  15.155  0.2174  0.0937  0.0604
 2894W        W18025  14.784   0.416   4.496  0.0723 -0.0266 -0.1025
 2895W        W18026   9.224   7.415  14.616  0.1738  0.2442 -0.0260
 2896W        W18027   7.834  14.472  11.116 -0.2279 -0.1963 -0.0421
 2897W        W18028   1.401  15.481  15.013 -0.0987 -0.2806  0.4044
 2898W        W18029  10.557   0.985   0.989 -0.0184 -0.0107  0.1836
 2899W        W18030  13.435   2.557  11.737  0.2148  0.0310 -0.1101
 2900W        W18031  15.212  17.994  12.636  0.0865  0.0589  0.0464
 2901W        W18032   6.027   9.652   4.635  0.0890  0.1162 -0.0463
 2902W        W18033   2.516   9.549   0.153  0.0782  0.0507 -0.2341
 2903W        W18034   1.030   6.788   2.429  0.1323 -0.1033 -0.0155
 2904W        W18035   5.091  10.053  11.303  0.1901  0.3256  0.3609
 2905W        W18036  13.345   9.166   2.599  0.1334  0.0321 -0.0886
 2906W        W18037   7.238  14.808   2.625 -0.0379 -0.1014  0.0285
 2907W        W18038  16.783  17.774   3.743 -0.2840  0.3356  0.2109
 2908W        W18039   2.007  16.507   5.964 -0.4383 -0.2626  0.1817
 2909W        W18040   9.797   1.513  11.918  0.0333  0.0799  0.0825
 2910W        W18041   4.085   9.463   1.246 -0.0508  0.0469 -0.0739
 2911W        W18042  17.611   9.381   0.937  0.0327 -0.0553 -0.1047
 2912W        W18043  14.023   4.747   1.526  0.0068  0.4585  0.0066
 2913W        W18044   8.064   7.904  15.682  0.0721  0.1779 -0.1432
 2914W        W18045  14.960   5.380   1.907  0.1464  0.0286  0.0739
 2915W        W18046   4.657   6.801  11.033 -0.0684 -0.1943  0.0286
 2916W        W18047   3.483   8.449   3.942 -0.1321 -0.2547 -0.2384
 2917W        W18048   2.761  13.262  13.996  0.0835  0.0213 -0.0725
 2918W        W18049  13.346  17.108   1.676  0.4383  0.0881 -0.1643
 2919W        W18050  11.401   7.987  11.366 -0.0589  0.0193  0.3104
 2920W        W18051  16.575   7.561  13.821 -0.6218  0.1267 -0.0272
 2921W        W18052   3.308   9.319   3.013 -0.4468  0.1186  0.1851
 2922W        W18053   1.194   2.560  14.539 -0.3450 -0.2132 -0.0763
 2923W        W18054   8.105  13.194  11.605 -0.1124 -0.0406 -0.2724
 2924W        W18055   7.276   5.272   3.017  0.0981 -0.1561  0.1141
 2925W        W18056  16.100   0.750   2.686  0.0305  0.2129 -0.0574
 2926W        W18057   8.624   6.126   5.646 -0.1768 -0.1242 -0.2133
 2927W        W18058  11.482  10.456   1.826  0.0586 -0.3029 -0.0149
 2928W        W18059   2.512  10.400   1.697 -0.1391  0.0833 -0.0346
 2929W        W18060   7.452  15.313   1.613 -0.0901 -0.1005  0.0267
 2930W        W18061  14.659  14.196   4.466 -0.1575  0.0356 -0.0186
 2931W        W18062  13.156  18.385  14.255 -0.0646 -0.0559 -0.1013
 2932W        W18063   2.464   6.742  14.542 -0.2481  0.0404 -0.2223
 2933W        W18064   9.838  11.562  10.940  0.0403  0.0409 -0.0717
 2934W        W18065  16.147   5.240   4.448 -0.0133 -0.2129 -0.0508
 2935W        W18066   7.510   3.933   3.161 -0.1264  0.4230 -0.2208
 2936W        W18067  11.932  18.058   1.811 -0.1169  0.0652  0.3083
 2937W        W18068   3.831   8.987   4.506 -0.2296 -0.1791 -0.0705
 2938W        W18069   9.755  15.049  13.313 -0.0863 -0.3415  0.1052
 2939W        W18070   4.284   0.221   1.438  0.1741  0.1049 -0.0516
 2940W        W18071  15.903   2.175  14.652  0.1376 -0.0279  0.1324
 2941W        W18072  12.262   0.415   1.937  0.0178  0.2759  0.0203
 2942W        W18073  13.812  10.477  10.626 -0.2711  0.3204 -0.4618
 2943W        W18074  14.626  13.048   3.768  0.1064  0.0595 -0.1363
 2944W        W18075   9.044  10.360   4.962 -0.0214  0.2370  0.1474
 2945W        W18076  14.901  11.786  13.866 -0.0427 -0.0310  0.0151
 2946W        W18077  11.080  17.604   0.433  0.3086 -0.4754 -0.0511
 2947W        W18078  12.988   7.758  15.213  0.0687 -0.0073 -0.1288
 2948W        W18079   4.636   0.617   5.058 -0.0754  0.0018 -0.2273
 2949W        W18080  14.535   3.540  15.701 -0.1157  0.2094 -0.0218
 2950W        W18081   3.175  11.002  15.313 -0.0412  0.0119 -0.1004
 2951W        W18082   5.731  16.393   2.752  0.2069 -0.2244  0.3083
 2952W        W18083  18.402   6.069  13.898 -0.4691 -0.0357 -0.0090
 2953W        W18084  14.780  13.165  11.018  0.1093 -0.3250 -0.1433
 2954W        W18085   8.766   4.833  12.122 -0.1744 -0.0781 -0.0341
 2955W        W18086   8.836   4.640  11.640 -0.2282 -0.0520 -0.1827
 2956W        W18087  16.622   0.888  14.782 -0.1372  0.3532  0.3872
 2957W        W18088   2.840  12.749   3.271  0.0019  0.3354 -0.2248
 2958W        W18089   6.768   6.933  11.330 -0.0506  0.0007  0.1324
 2959W        W18090  10.532   9.914   1.378  0.3209 -0.2089 -0.2197
 2960W        W18091   9.717   2.141  13.118 -0.1202 -0.0478 -0.1225
 2961W        W18092  10.986  16.525  15.408 -0.1511 -0.0707  0.1010
 2962W        W18093  16.545   1.673  13.552  0.2438 -0.0736  0.0123
 2963W        W18094   3.043  12.331   4.281 -0.0356 -0.3036  0.3253
 2964W        W18095   8.876  16.280   0.983 -0.0542  0.2448 -0.0040
 2965W        W18096  18.362   9.568  13.745 -0.0146 -0.4385 -0.0847
 2966W        W18097  16.697   6.172   5.020 -0.1314  0.1830 -0.1075
 2967W        W18098   2.736   3.647   1.325 -0.4428 -0.3213 -0.0825
 2968W        W18099   6.360   7.846  15.151 -0.0802 -0.2778 -0.3242
 2969W        W18100   2.954   3.610   4.369  0.0898 -0.0768 -0.1308
 2970W        W18101   5.731   0.364  15.632 -0.0869 -0.1101 -0.1374
 2971W        W18102   6.283  13.177  12.086  0.3700 -0.0316  0.1973
 2972W        W18103  13.673   5.099   1.748 -0.0176 -0.1384 -0.0100
 2973W        W18104   8.542  10.523  14.266  0.3159  0.1497  0.1997
 2974W        W18105  17.839  13.747   1.916 -0.0651 -0.0793 -0.1604
 2975W        W18106   2.073   2.582   2.400 -0.1158  0.0725 -0.0036
 2976W        W18107   2.815   5.904   2.966  0.1313  0.0697  0.0502
 2977W        W18108  13.128   8.992   1.172 -0.1213  0.1434 -0.2355
 2978W        W18109   1.215   2.625   5.416  0.2850 -0.2565 -0.1121
 2979W        W18110  16.098   9.620   5.400  0.2148 -0.1573  0.3652
 2980W        W18111   4.834   8.838   2.327  0.0360 -0.0815  0.0226
 2981W        W18112   9.762   8.875  13.221 -0.2071 -0.2140  0.0827
 2982W        W18113  10.498  15.885  10.559 -0.0652  0.3001  0.1563
 2983W        W18114  11.137  10.643   3.809  0.0254 -0.0926 -0.1438
 2984W        W18115  17.696  15.644  13.873  0.0462 -0.1274  0.1102
 2985W        W18116   8.103   4.681  10.487 -0.1259 -0.0113 -0.0566
 2986W        W18117  10.799   8.770  12.952  0.2057 -0.0880 -0.1705
 2987W        W18118   4.758  15.550  13.179  0.0752 -0.1233  0.2543
 2988W        W18119  15.116   2.942  11.663 -0.6008  0.1377  0.0748
 2989W        W18120   0.597   2.859  12.100 -0.0009  0.1140  0.0682
 2990W        W18121   2.073   0.141   3.911 -0.2321 -0.0675 -0.1992
 2991W        W18122  10.429   8.626   4.973  0.1878  0.0173  0.1256
 2992W        W18123   0.276   1.995   3.952 -0.1867  0.0120 -0.4502
 2993W        W18124   1.178  18.263   1.427  0.1735  0.0674 -0.0056
 2994W        W18125  11.794   7.212  15.461  0.1569 -0.1236  0.2503
 2995W        W18126  13.239   8.234   4.304  0.0922  0.0648  0.3040
 2996W        W18127  10.724   1.863   2.863 -0.1480 -0.1708 -0.1445
 2997W        W18128   8.427  10.627   0.551 -0.2023 -0.1825  0.0737
 2998W        W18129  16.058   6.577   1.074  0.2173 -0.1134 -0.0018
 2999W        W18130   3.756  16.799  13.583  0.0926 -0.1795 -0.2459
 3000W        W18131   9.471  10.400   0.508  0.1278 -0.1744  0.0029
 3001W        W18132   1.744   5.516   2.798 -0.1684 -0.2158  0.1919
 3002W        W18133  14.657  15.102  14.299 -0.0367  0.0830  0.2899
 3003W        W18134   7.630  15.555   1.118 -0.2313 -0.4744 -0.0965
 3004W        W18135   4.951  13.082   2.406  0.0779 -0.3100 -0.1377
 3005W        W18136  13.108   1.942   2.849 -0.0368  0.1187 -0.0437
 3006W        W18137  18.153  13.487   3.724 -0.0628 -0.1848 -0.3375
 3007W        W18138   3.348   5.717   4.917 -0.0200  0.0677  0.0838
 3008W        W18139  12.295  15.860   3.889  0.0576 -0.0999  0.1112
 3009W        W18140   1.681   4.783  12.529  0.1309 -0.0073 -0.3269
 3010W        W18141   6.550  13.710   5.166 -0.3433 -0.3365 -0.0904
 3011W        W18142   8.834  14.056  10.249  0.1520 -0.0071  0.0534
 3012W        W18143   9.059  12.549  14.683  0.2771  0.1225 -0.1463
 3013W        W18144   8.868   2.753  11.117  0.2854 -0.0045 -0.0650
 3014W        W18145   0.368  12.284   5.972 -0.1202  0.0630 -0.2751
 3015W        W18146   3.434   8.935   5.739 -0.0579  0.2957  0.2311
 3016W        W18147   6.632   7.643   4.607  0.1516 -0.0739 -0.0647
 3017W        W18148   0.951  17.171  10.295  0.2449 -0.2061 -0.0932
 3018W        W18149   7.552  11.131  12.803 -0.0064  0.1112  0.0530
 3019W        W18150  15.682   1.931   1.615 -0.2091  0.2507  0.0192
 3020W        W18151   9.333  14.676  11.992  0.2182  0.2546 -0.1339
 3021W        W18152  17.981   1.188   3.876 -0.2115 -0.1504  0.0460
 3022W        W18153  17.832  12.673   3.911 -0.1238  0.1199  0.3862
 3023W        W18154  11.955   0.804   4.638 -0.3118  0.2157 -0.2918
 3024W        W18155   4.352  14.445   6.058  0.3631  0.3137  0.0882
 3025W        W18156   1.019  12.479  13.007 -0.0569 -0.0161  0.2253
 3026W        W18157   0.288   7.527  12.825 -0.0823  0.0213  0.1002
 3027W        W18158  15.282   0.579  13.563 -0.1031  0.1058 -0.0743
 3028W        W18159   1.144   7.636   5.476  0.1238  0.2651 -0.1675
 3029W        W18160   7.692   2.578  13.298 -0.2093 -0.2093  0.1150
 3030W        W18161   1.464  12.376  11.658 -0.0284 -0.3755 -0.2492
 3031W        W18162   6.292  15.969  13.459 -0.0840 -0.0157  0.1496
 3032W        W18163   3.325   0.351  13.712  0.0658 -0.0815 -0.0890
 3033W        W18164  16.110   1.092   5.488  0.2268 -0.0819  0.2349
 3034W        W18165   2.736   6.657  11.217  0.1229 -0.0931  0.1717
 3035W        W18166   8.663  17.967   1.230 -0.0372  0.0749  0.1702
 3036W        W18167   5.277  14.344  12.714 -0.0948 -0.0576 -0.2146
 3037W        W18168  15.878   6.238   2.606 -0.1502 -0.2279  0.2045
 3038W        W18169  18.061   6.843   2.332 -0.1614  0.3779  0.3751
 3039W        W18170   4.624   2.628  12.120 -0.2062 -0.1037  0.3166
 3040W        W18171  10.497  14.006   2.414  0.4241 -0.2608 -0.2694
 3041W        W18172   2.682  11.641  13.297  0.0430 -0.0940 -0.0470
 3042W        W18173  14.312  12.511  15.490 -0.1573  0.1939 -0.0191
 3043W        W18174   1.163   7.794   4.671  0.1701 -0.0822 -0.3469
 3044W        W18175  13.679  12.252  13.537  0.1587 -0.0837 -0.4002
 3045W        W18176  14.883  17.589   0.858  0.2389 -0.0404 -0.2840
 3046W        W18177  13.518  11.040   1.915 -0.1486 -0.0355  0.1909
 3047W        W18178   0.693   3.760  14.936  0.1339  0.1350  0.1345
 3048W        W18179  14.265   8.318  13.860  0.1031 -0.3639 -0.1748
 3049W        W18180  12.314   8.864  14.528 -0.2121  0.2169  0.0465
 3050W        W18181  11.069  17.367  11.799 -0.0202  0.0966 -0.1014
 3051W        W18182  13.665   7.317   1.600 -0.1015  0.0217  0.0419
 3052W        W18183   9.644  14.417   3.399  0.1652  0.1983  0.0046
 3053W        W18184  12.922   1.227  12.804 -0.0616 -0.0086 -0.1733
 3054W        W18185   7.944   3.447  13.232  0.0356  0.2157  0.0147
 3055W        W18186  11.893  13.311   1.027  0.0796  0.0108  0.0175
 3056W        W18187  16.998   6.574   2.754 -0.0070  0.2883  0.2986
 3057W        W18188  14.610   5.612   4.030 -0.0909  0.0117  0.2303
 3058W        W18189   3.404   0.733  12.509  0.1386  0.0694  0.1086
 3059W        W18190   0.219   5.442   0.023 -0.0040  0.1063 -0.1440
 3060W        W18191  11.122  14.283   2.745 -0.1354  0.1982 -0.2654
 3061W        W18192  10.711   8.857   1.476  0.2421 -0.0183  0.1678
 3062W        W18193  13.813  11.840  12.807  0.1013  0.2286 -0.0850
 3063W        W18194   7.930  12.103   1.085 -0.1630 -0.1906 -0.1555
 3064W        W18195   4.716   0.808  11.463  0.0303  0.0139  0.0045
 3065W        W18196  15.884   5.165  12.841 -0.1758  0.1524  0.0995
 3066W        W18197  13.266   7.536  13.433 -0.1140  0.0266 -0.1451
 3067W        W18198  12.031   6.732   5.277  0.2482 -0.1895  0.0230
 3068W        W18199  18.510  16.661  14.877 -0.2053  0.0780  0.2313
 3069W        W18200   2.464  16.436   1.429 -0.1525 -0.0690  0.0913
 3070W        W18201  10.307  15.431  10.338  0.3850 -0.3569 -0.2483
 3071W        W18202  14.301   7.722   1.386 -0.0184 -0.2458 -0.3200
 3072W        W18203  13.166   7.827  13.829 -0.1178  0.1633 -0.1832
 3073W        W18204  11.064  18.247  13.176  0.0696 -0.2269  0.1299
 3074W        W18205  16.081   7.602   2.240  0.0418 -0.2665 -0.0687
 3075W        W18206   2.323   0.614   0.024  0.0629  0.0992 -0.2083
 3076W        W18207   7.369   3.908   6.074 -0.0529  0.2332  0.2304
 3077W        W18208   3.703  16.197   4.324  0.0805  0.0789 -0.2770
 3078W        W18209   3.050   2.730  12.893 -0.0087 -0.1570 -0.0360
 3079W        W18210  14.687  13.772   4.715 -0.0300 -0.1842  0.1005
 3080W        W18211  10.669   7.064   0.580 -0.0792 -0.2986  0.1701
 3081W        W18212  12.662   5.214  13.957 -0.2149 -0.3251 -0.0397
 3082W        W18213   5.687   8.239   4.013  0.3901  0.0148 -0.1383
 3083W        W18214   5.836   0.127   5.036  0.0427 -0.2658  0.0914
 3084W        W18215   3.526   1.986   2.600 -0.1574 -0.1374  0.1296
 3085W        W18216  13.443   6.352   3.633  0.1048 -0.3694 -0.2889
 3086W        W18217  11.352  12.196  13.873 -0.2246 -0.2145  0.3411
 3087W        W18218   5.622   6.824  12.410 -0.3498 -0.0581  0.1864
 3088W        W18219   7.013   0.221   5.017 -0.1928  0.2323  0.2699
 3089W        W18220   3.816   1.342   0.676  0.2475 -0.0777  0.2197
 3090W        W18221  13.537  12.319   4.917 -0.0955  0.0332 -0.0204
 3091W        W18222   6.682  13.472   5.598  0.2402 -0.1232 -0.0128
 3092W        W18223   6.682  17.828   0.563 -0.3755 -0.5468  0.1464
 3093W        W18224   1.324   6.916  12.388  0.3708  0.2063  0.0511
 3094W        W18225   7.000  13.345   3.231  0.1460 -0.1618  0.0617
 3095W        W18226  18.120   4.663   5.184 -0.0021 -0.0065 -0.0055
 3096W        W18227  17.221  17.424   1.985 -0.1610  0.0127 -0.0982
 3097W        W18228  10.734   2.108  12.958  0.1010 -0.4959 -0.1191
 3098W        W18229   3.117  12.596  15.124 -0.1369 -0.0550  0.1156
 3099W        W18230   2.342   0.113  10.450 -0.2263  0.4226  0.2327
 3100W        W18231   3.252   9.432   1.020 -0.0319 -0.4035  0.2888
 3101W        W18232  13.548   9.713   3.399 -0.0225  0.2110 -0.1929
 3102W        W18233   4.575  11.985   4.169 -0.0179 -0.1406 -0.1608
 3103W        W18234   7.818   5.307  10.162  0.2641  0.2081 -0.0313
 3104W        W18235  11.068  15.956  15.148 -0.1431 -0.0940 -0.0276
 3105W        W18236   5.199   4.311   3.122  0.0968  0.3306  0.6879
 3106W        W18237   9.144   7.041   2.871 -0.1832 -0.0833  0.2222
 3107W        W18238   6.029  13.468  11.464  0.1863  0.0724  0.2034
 3108W        W18239  10.286   0.528   5.837 -0.3313  0.0203  0.2644
 3109W        W18240   5.422  12.279  15.374 -0.1929 -0.2585 -0.0697
 3110W        W18241  12.525   3.033  12.784 -0.0805  0.0122 -0.0022
 3111W        W18242  13.721   5.422  14.554  0.1664 -0.0084  0.2226
 3112W        W18243   7.138  17.427  12.655 -0.2909  0.3531 -0.3142
 3113W        W18244  15.979  16.952  13.962 -0.1330 -0.0949  0.1724
 3114W        W18245   3.651   0.774  14.002  0.3086  0.1002 -0.0513
 3115W        W18246  15.072   0.049  12.149  0.0396 -0.2625  0.1286
 3116W        W18247   0.884   7.493   3.449 -0.0532 -0.1671 -0.2251
 3117W        W18248  18.181  15.990   3.626  0.1620  0.2096 -0.1123
 3118W        W18249   3.552   4.322   2.664 -0.0558  0.5547  0.0217
 3119W        W18250   6.264  12.344  14.123 -0.2106 -0.0604  0.0813
 3120W        W18251   6.568  17.650  13.964 -0.1762  0.1625 -0.0699
 3121W        W18252  15.724  17.860   4.422 -0.0008  0.0124  0.1852
 3122W        W18253   9.187  12.439   1.938  0.0893 -0.1347 -0.0204
 3123W        W18254   7.966   3.670   1.621 -0.2631 -0.0179 -0.0912
 3124W        W18255   4.934  17.116   2.342  0.0606 -0.0786  0.0046
 3125W        W18256   0.942  11.334  13.631  0.0795 -0.1228 -0.4222
 3126W        W18257  12.853  16.831   2.893  0.0250 -0.0378  0.0335
 3127W        W18258  11.697  15.772   4.531 -0.1081  0.0454 -0.0947
 3128W        W18259  16.641   0.140   5.708 -0.2406 -0.1087  0.2411
 3129W        W18260   4.084   0.047  11.112  0.1346 -0.1531 -0.0768
 3130W        W18261  10.691   6.002  15.540  0.2291 -0.4029 -0.1681
 3131W        W18262   1.936  12.839   3.356 -0.0896 -0.1252  0.1521
 3132W        W18263   0.027   7.250   0.719 -0.1146 -0.2163 -0.0858
 3133W        W18264  14.714   5.837   2.055 -0.1867 -0.3041 -0.0994
 3134W        W18265  10.794   7.387   1.696  0.0484  0.1655  0.0125
 3135W        W18266  15.796   6.927   4.549 -0.2377 -0.0809 -0.3386
 3136W        W18267   7.752   3.688  14.171  0.0611 -0.1087  0.1529
 3137W        W18268  16.956   9.583   0.484  0.1261  0.0685 -0.0495
 3138W        W18269  15.327  12.363  10.228  0.4302  0.1649 -0.1542
 3139W        W18270  13.261   9.009   2.145 -0.2038  0.1325 -0.3254
 3140W        W18271   2.709  12.790   0.706 -0.0519  0.1838  0.4657
 3141W        W18272  11.421  10.405   4.690  0.2495 -0.0829 -0.0415
 3142W        W18273   0.791  17.386   1.442 -0.3931  0.1225 -0.3055
 3143W        W18274  14.642   4.203  14.316 -0.0015 -0.0585  0.0975
 3144W        W18275  17.777   1.126  11.410 -0.0671 -0.2735  0.3726
 3145W        W18276   8.987  13.267   3.409  0.2584  0.0008 -0.0151
 3146W        W18277  16.107  18.337   0.503  0.1326  0.1835  0.0574
 3147W        W18278  18.510  17.905  14.338 -0.2692  0.1224  0.1675
 3148W        W18279  15.840  14.057  12.014  0.0163  0.1276  0.0539
 3149W        W18280   5.721   1.236  12.648  0.0117  0.0112 -0.4106
 3150W        W18281  11.620   9.147  13.821 -0.1958 -0.0711 -0.0186
 3151W        W18282  10.304  17.529   3.091  0.2116 -0.2606  0.1865
 3152W        W18283  12.498  11.780   5.339  0.2568  0.2879  0.0104
 3153W        W18284  17.132   0.728   1.681  0.2780 -0.1308 -0.2445
 3154W        W18285  10.590   2.614  12.969 -0.0637 -0.2445 -0.0511
 3155W        W18286  13.180  13.533  11.054  0.0765 -0.3056  0.2822
 3156W        W18287   2.696   0.184  10.972 -0.1460  0.1626 -0.1014
 3157W        W18288   1.755   9.183   4.890 -0.3210  0.0850 -0.0187
 3158W        W18289  13.852  12.482   9.733  0.1814  0.1465  0.2468
 3159W        W18290   8.496  12.379  11.394 -0.2308 -0.0560  0.6481
 3160W        W18291   4.534  10.126   1.461 -0.1487 -0.0110  0.0052
 3161W        W18292   9.082   4.884   2.935 -0.0109 -0.0509 -0.2149
 3162W        W18293   5.182   2.352   4.908 -0.0331 -0.1734 -0.0026
 3163W        W18294   3.940  15.960   3.948 -0.0097  0.0938 -0.0930
 3164W        W18295  16.047  13.311  11.704 -0.1470 -0.0105 -0.2440
 3165W        W18296   7.226   5.227   6.027  0.1183 -0.1600 -0.0362
 3166W        W18297  13.262  10.635   0.239  0.1680  0.0248  0.0916
 3167W        W18298  10.136  11.992  12.834  0.0446 -0.0549 -0.2117
 3168W        W18299   0.778  14.996   1.287 -0.2932  0.1182 -0.0201
 3169W        W18300  18.418  18.344  13.181  0.4883 -0.0416 -0.1464
 3170W        W18301  14.708   1.003  13.415 -0.1165 -0.0594  0.1753
 3171W        W18302  12.739  15.503  10.503  0.4481  0.0374  0.2320
 3172W        W18303  15.269   9.691  12.716 -0.2557 -0.0287 -0.1274
 3173W        W18304  14.823   8.867   5.004  0.1529  0.0945  0.1486
 3174W        W18305   2.741   1.548   2.980 -0.0059  0.0893 -0.0129
 3175W        W18306   2.216  14.075  14.213  0.0113 -0.0324 -0.2485
 3176W        W18307   3.409   7.878   3.482 -0.1561 -0.1357 -0.0505
 3177W        W18308   4.127  14.192  13.687 -0.0338  0.3251  0.0264
 3178W        W18309  13.802  18.346   4.533  0.0426  0.2499 -0.2657
 3179W        W18310  16.450   7.978   2.282 -0.0429  0.1676  0.0551
 3180W        W18311  13.887   8.633  15.762  0.0047  0.2768 -0.0962
 3181W        W18312  14.252   1.703  15.010 -0.2282 -0.1839 -0.1636
 3182W        W18313   4.603   0.896  10.122 -0.2860  0.0873  0.2326
 3183W        W18314  15.710  11.083   2.876 -0.2707  0.3464 -0.3728
 3184W        W18315  16.973  11.885  10.885  0.2494 -0.0447 -0.1067
 3185W        W18316   5.548   1.340   5.339  0.2557 -0.4181 -0.0635
 3186W        W18317  17.182   4.658  12.212  0.1251 -0.0950 -0.0762
 3187W        W18318   9.112   0.326   1.131 -0.1560 -0.0221 -0.3012
 3188W        W18319  11.143   9.542   3.116  0.1861 -0.0947 -0.0689
 3189W        W18320   1.062   3.007   0.790  0.2777  0.3344  0.4695
 3190W        W18321   3.057   5.700  14.059  0.0558 -0.2074  0.1190
 3191W        W18322   2.669   4.980   3.015 -0.0090  0.2032 -0.3991
 3192W        W18323   0.023   9.940   4.769 -0.0017 -0.3465 -0.2868
 3193W        W18324  11.061   8.699   1.220  0.0044  0.0464  0.2045
 3194W        W18325   3.576   5.866   0.799  0.1340  0.0826  0.0984
 3195W        W18326  14.752   8.032   1.094 -0.1282  0.0494 -0.3156
 3196W        W18327   9.120   2.935  13.502  0.0469 -0.2075 -0.1513
 3197W        W18328   6.943   2.479   4.215 -0.0068 -0.2395 -0.0160
 3198W        W18329   3.160  12.693   3.920 -0.0845  0.1389 -0.3225
 3199W        W18330   5.690  18.157   2.075 -0.0204 -0.1406  0.3417
 3200W        W18331  13.946   1.392   5.403  0.2684  0.1059  0.0561
 3201W        W18332  17.142   1.303   4.082  0.2008  0.1329  0.1072
 3202W        W18333   5.728  12.573   4.771  0.0990  0.2107 -0.2891
 3203W        W18334   9.555  16.295  12.252 -0.0550  0.0407 -0.0864
 3204W        W18335   1.644  18.271  13.402 -0.0222  0.2052  0.2746
 3205W        W18336  10.360   8.120  11.308 -0.2243 -0.0848  0.2229
 3206W        W18337   1.147   7.990   0.537 -0.1102  0.1895 -0.1074
 3207W        W18338   6.934  14.028   2.383  0.1235  0.1107 -0.1360
 3208W        W18339  13.839  17.245   5.537  0.0758 -0.3068  0.2505
 3209W        W18340   7.139   6.628   4.320 -0.0627 -0.2131 -0.1194
 3210W        W18341   0.781  14.761  15.417  0.5249  0.1668 -0.2377
 3211W        W18342  16.404  15.530  15.575  0.1409  0.0370  0.1616
 3212W        W18343  16.421   2.494   0.817 -0.0626  0.0983  0.0826
 3213W        W18344  18.253   5.603  15.199 -0.2182  0.1621  0.1023
 3214W        W18345  14.941  16.072  12.346 -0.1460  0.0947 -0.1492
 3215W        W18346  17.410  12.429   4.515 -0.4850 -0.0958  0.1104
 3216W        W18347  17.587  15.604  11.289 -0.0601 -0.1092 -0.1738
 3217W        W18348  14.699   4.491   1.766 -0.0989 -0.0364  0.0393
 3218W        W18349   3.577   5.585  15.725  0.3211 -0.1810 -0.2647
 3219W        W18350   6.543  15.601  15.262 -0.2087  0.3126  0.1421
 3220W        W18351   4.697   2.538   1.333 -0.1745 -0.0341 -0.1119
 3221W        W18352   9.640  17.312  12.303 -0.0892  0.1610 -0.1890
 3222W        W18353  13.780   7.773   2.595  0.1648  0.2473 -0.0681
 3223W        W18354   6.424   1.516  13.978 -0.0890  0.2640 -0.1005
 3224W        W18355   0.006   1.011  10.536  0.3083  0.1859 -0.1580
 3225W        W18356   0.730   3.749  13.965  0.1147  0.3390 -0.0197
 3226W        W18357   8.029   3.157   2.752 -0.1401  0.1407 -0.0750
 3227W        W18358  13.252  18.350   1.985  0.3737 -0.2212  0.0563
 3228W        W18359   2.198  13.735  14.944 -0.0955  0.0454  0.1393
 3229W        W18360  16.445  15.898  11.036  0.0076  0.0659  0.1045
 3230W        W18361  15.057   8.967   2.814  0.2227  0.0041  0.1091
 3231W        W18362  16.142  17.927   2.908  0.0341  0.0650  0.0906
 3232W        W18363   0.682   6.306  11.811 -0.1680 -0.1241 -0.1882
 3233W        W18364  17.148   3.473  12.771 -0.1421 -0.1393  0.1666
 3234W        W18365  12.269   5.254  14.969 -0.0362  0.0795  0.0124
 3235W        W18366   8.202   5.970   0.030 -0.0288 -0.2537 -0.0992
 3236W        W18367   5.179   8.742   0.582 -0.2404 -0.0946  0.3056
 3237W        W18368  13.416  18.015   4.423 -0.0375  0.1417 -0.0701
 3238W        W18369  17.932   4.629  14.570 -0.1500  0.0271  0.0509
 3239W        W18370   2.330  10.590   1.128 -0.3680  0.3418  0.2110
 3240W        W18371   2.232  14.230  14.670  0.0296  0.0946  0.0845
 3241W        W18372   7.801  16.512  13.367 -0.1338 -0.1565 -0.1058
 3242W        W18373   4.456   5.233  11.639 -0.1235  0.0584 -0.2754
 3243W        W18374  16.014  12.332   4.928  0.2393  0.1352  0.0369
 3244W        W18375   1.681  14.219  14.200 -0.0341  0.0745 -0.0211
 3245W        W18376   5.340   8.131   2.110  0.2645 -0.5605 -0.3198
 3246W        W18377   2.570  15.342  13.072 -0.2301  0.3222 -0.0548
 3247W        W18378  12.342   1.558   3.941 -0.0368  0.2032  0.0684
 3248W        W18379   1.902  13.264  11.150 -0.2969  0.0851  0.1908
 3249W        W18380   8.219   7.901   3.354 -0.2559 -0.1455 -0.2774
 3250W        W18381  17.523  18.140  13.001 -0.0326  0.1534  0.2147
 3251W        W18382  15.417  15.317  13.445  0.1332 -0.0582 -0.0565
 3252W        W18383   3.724   3.009  11.812  0.1683 -0.1344  0.0471
 3253W        W18384  11.939   4.401   3.137  0.0529  0.0941 -0.1127
 3254W        W18385   5.475   1.732  14.003  0.0335  0.3840 -0.1728
 3255W        W18386  14.742   0.495   1.172 -0.0190 -0.0170  0.0609
 3256W        W18387  11.611   4.326   0.641  0.0451 -0.4405 -0.0170
 3257W        W18388  12.346  12.934   2.497  0.2311 -0.1979 -0.0884
 3258W        W18389  11.770  15.355  11.444  0.1532  0.0985  0.0029
 3259W        W18390  15.832   1.995   3.139  0.0288 -0.2943 -0.0543
 3260W        W18391  10.938  10.789   4.276  0.0355  0.1713  0.0816
 3261W        W18392   8.176   0.490   3.242 -0.0480 -0.1554  0.1788
 3262W        W18393  15.646  10.206  14.463 -0.0508 -0.1157 -0.0784
 3263W        W18394  14.141   5.084  14.779  0.3643  0.0867  0.0020
 3264W        W18395   5.287   4.663  14.006  0.0404  0.1081  0.0587
 3265W        W18396   6.376   3.618   4.394 -0.2804  0.1018  0.0618
 3266W        W18397   0.141  11.582   4.040  0.0398  0.0009 -0.0824
 3267W        W18398   1.473   8.682  10.786  0.2984  0.1399 -0.3477
 3268W        W18399  18.028   1.355   2.862  0.1505  0.1467  0.0922
 3269W        W18400   6.231  18.336   0.734 -0.1073  0.0579 -0.2758
 3270W        W18401   0.605  17.856   2.380 -0.3793 -0.2410  0.0763
 3271W        W18402   8.991   2.427  14.279 -0.1992 -0.0781  0.0231
 3272W        W18403  18.240  18.512  15.009 -0.0327 -0.1718 -0.0128
 3273W        W18404  16.149  16.586   1.207  0.0761 -0.2726 -0.0274
 3274W        W18405  16.646   7.058   0.918 -0.1212  0.0211 -0.1208
 3275W        W18406   5.711   2.094  14.889  0.2462  0.1497 -0.2935
 3276W        W18407  18.439   3.853  15.885 -0.3023 -0.1776  0.1397
 3277W        W18408   3.826  11.697   2.193  0.0725  0.1788 -0.3861
 3278W        W18409  11.895  18.341   4.378  0.1106  0.0685 -0.1273
 3279W        W18410   9.364   7.520   0.809 -0.1549 -0.0893  0.1564
 3280W        W18411  10.700   8.935  13.404  0.2050 -0.0575 -0.0094
 3281W        W18412  12.303  15.096  13.293  0.2333  0.3403 -0.4519
 3282W        W18413   9.815  15.325  11.425 -0.3145  0.0488  0.3956
 3283W        W18414   1.691  10.277   5.194 -0.1511 -0.0192 -0.2071
 3284W        W18415  17.723  11.333   2.708  0.0905 -0.1777  0.1867
 3285W        W18416   6.350   8.917  11.283 -0.0932 -0.1481 -0.2626
 3286W        W18417  16.730  14.952   1.735  0.0982  0.2651 -0.2909
 3287W        W18418   3.449   6.806  15.509 -0.0446  0.1893  0.3064
 3288W        W18419   7.904  18.400   1.857  0.2109 -0.0024 -0.0184
 3289W        W18420   9.555   0.682  14.513  0.0559  0.4405  0.2542
 3290W        W18421   0.496   8.944   4.207  0.1504  0.2568 -0.0938
 3291W        W18422  16.941  16.117   1.333 -0.2395 -0.0881  0.0033
 3292W        W18423   5.017   4.191   4.575 -0.0785  0.2785 -0.0564
 3293W        W18424   9.117   3.775   1.573  0.0528 -0.2878 -0.0001
 3294W        W18425   8.231   2.406   0.544  0.0993 -0.1347 -0.1712
 3295W        W18426  17.190  13.251   2.288  0.2318  0.0901 -0.1354
 3296W        W18427   3.255   8.097  11.032 -0.2080 -0.0532 -0.3978
 3297W        W18428  15.031   4.832  11.876  0.3628  0.2143 -0.0690
 3298W        W18429  12.345  17.213  12.418 -0.1262 -0.0435 -0.0105
 3299W        W18430   3.729   3.333   0.553 -0.2376 -0.2278 -0.0456
 3300W        W18431  11.116   5.445  14.252  0.0938  0.2108  0.0347
 3301W        W18432   3.870   3.780   2.541 -0.0381 -0.1466  0.2027
 3302W        W18433   1.646  14.772  13.375  0.2467 -0.1496  0.1071
 3303W        W18434   6.946   6.187  15.487 -0.3184 -0.2974 -0.0903
 3304W        W18435   0.228  12.562   4.334  0.2200 -0.0148  0.0809
 3305W        W18436   8.610   7.887   2.615  0.1359 -0.0829 -0.0484
 3306W        W18437   0.065   7.956  14.978  0.1009  0.0344 -0.0308
 3307W        W18438   6.731   1.313   5.597 -0.0867 -0.3156  0.4453
 3308W        W18439  13.050   3.756  11.245 -0.1326  0.1742  0.0476
 3309W        W18440   2.412  13.248  11.028  0.0278  0.0380  0.1688
 3310W        W18441   1.709   2.290  11.903 -0.1887 -0.1316 -0.0329
 3311W        W18442  14.842   6.804   5.594  0.4280 -0.2429 -0.1717
 3312W        W18443   0.418  13.734   3.335  0.2524 -0.0304 -0.1597
 3313W        W18444   7.481   1.012  14.873  0.1025  0.0951  0.0015
 3314W        W18445  12.322  11.020   3.976  0.1426  0.2160 -0.0418
 3315W        W18446   7.811   8.558   1.669  0.3110 -0.0446 -0.0595
 3316W        W18447   1.293   1.757  15.155  0.3043 -0.2936  0.2499
 3317W        W18448   0.229   9.372   4.828  0.2626 -0.3676  0.0963
 3318W        W18449  13.475   1.705   3.809  0.0237 -0.3654  0.1946
 3319W        W18450   2.563  18.374  11.821 -0.1732  0.3515 -0.0093
 3320W        W18451   4.738  10.204   0.249 -0.0566  0.0529 -0.1853
 3321W        W18452   3.463  14.939   4.331  0.1959 -0.1232  0.1462
 3322W        W18453   2.095   7.657  15.825 -0.0225 -0.0003  0.0934
 3323W        W18454  16.088   5.879  13.560  0.1672  0.1954  0.2731
 3324W        W18455  12.326  16.765  12.881  0.2065  0.1336  0.5000
 3325W        W18456  16.909   9.941  10.460 -0.2350 -0.1257 -0.2291
 3326W        W18457   8.216  17.397  10.649  0.2018  0.2007 -0.1913
 3327W        W18458  15.444   6.628   1.991 -0.1436 -0.0485 -0.0515
 3328W        W18459  16.265  15.266  12.725  0.0415  0.0342  0.1075
 3329W        W18460   9.954   5.927   2.614  0.2804 -0.0152  0.1063
 3330W        W18461   1.507   1.683   4.389  0.0080  0.1233  0.1324
 3331W        W18462   5.381  15.146   4.543  0.0154  0.0747  0.1883
 3332W        W18463  16.704   9.679   2.613 -0.0082 -0.0441  0.0331
 3333W        W18464  11.218   1.166   2.731 -0.2086 -0.0826  0.0282
 3334W        W18465   5.538   9.497   0.286  0.0098  0.0620  0.0091
 3335W        W18466  14.881  10.662  14.558 -0.1085  0.0045 -0.0453
 3336W        W18467   2.761  15.516   3.272 -0.0682  0.0661 -0.1600
 3337W        W18468   1.149   7.870  12.818  0.0566  0.1072 -0.4106
 3338W        W18469   7.824   6.170  13.906  0.0779  0.1124 -0.3660
 3339W        W18470  12.011  12.202   2.744  0.4497 -0.4927  0.1721
 3340W        W18471   6.208  11.478   2.231 -0.1380  0.1751  0.2812
 3341W        W18472   1.063  12.761   1.236 -0.2834 -0.0620 -0.0294
 3342W        W18473  11.632  17.265   2.755 -0.2767  0.0183 -0.2872
 3343W        W18474  11.151   6.190  15.368 -0.3033  0.0392 -0.0932
 3344W        W18475  14.619   9.489  14.840  0.1564  0.0715 -0.0427
 3345W        W18476   8.403   2.262   2.455 -0.0278  0.1035 -0.2895
 3346W        W18477  14.761   1.326   0.588 -0.1358  0.1042  0.2992
 3347W        W18478  16.760  15.807   2.775  0.0555  0.0079 -0.1652
 3348W        W18479  16.208  17.206   2.002  0.1799  0.0915  0.1594
 3349W        W18480  17.669  12.820  10.579 -0.3120  0.1306  0.0579
 3350W        W18481  17.783   1.000  12.377 -0.0363 -0.1928 -0.1085
 3351W        W18482  13.383  15.359   3.242 -0.1489  0.2060 -0.0203
 3352W        W18483  15.417   6.021  15.649  0.2574 -0.1641 -0.0657
 3353W        W18484  13.372   3.307  12.250  0.0063  0.3521  0.0217
 3354W        W18485  11.263   4.549  14.549 -0.0309 -0.3550  0.2283
 3355W        W18486  14.554  17.799  14.543  0.0045 -0.0313 -0.0093
 3356W        W18487   1.051   5.734   4.871  0.0217 -0.1318  0.2678
 3357W        W18488   6.768   9.193   1.447  0.2477  0.2215  0.3380
 3358W        W18489  10.954   3.607   5.205 -0.1937 -0.1657 -0.1347
 3359W        W18490   5.827   1.286   3.615  0.0667 -0.2959 -0.1264
 3360W        W18491  15.381  16.200  14.894  0.1742  0.2307  0.2035
 3361W        W18492  18.176   0.353   2.690  0.1978  0.1274  0.0308
 3362W        W18493   8.466   0.249  15.870 -0.0119  0.1709  0.0075
 3363W        W18494  12.773  16.320  11.611 -0.3044 -0.0455  0.0733
 3364W        W18495   6.823  14.576   2.490 -0.1297 -0.0611 -0.1586
 3365W        W18496  14.809   5.929  13.736  0.0865 -0.0379 -0.5198
 3366W        W18497   2.006  10.627   0.116 -0.1527  0.1420 -0.0534
 3367W        W18498   4.328  13.019   5.064 -0.3682  0.2008  0.2177
 3368W        W18499  14.447  15.596   3.530 -0.0847 -0.1099  0.2350
 3369W        W18500   6.358  17.048  11.814 -0.3780 -0.2596  0.0087
 3370W        W18501  15.613   9.661  15.101 -0.0701  0.4357 -0.2611
 3371W        W18502   6.063   4.588   4.904 -0.0971 -0.0818  0.1103
 3372W        W18503   0.745   0.718   5.336 -0.2275 -0.0220 -0.2869
 3373W        W18504  18.202   6.912  14.086 -0.2178  0.0262 -0.0382
 3374W        W18505   6.047  12.101   2.335  0.0804  0.0521 -0.0799
 3375W        W18506  16.804  14.518   5.850  0.0254 -0.1491 -0.1872
 3376W        W18507  13.843   2.290   3.466  0.1868 -0.1028 -0.0218
 3377W        W18508  17.190  11.554  15.523  0.2629  0.0782 -0.1868
 3378W        W18509   7.556   8.034  11.187  0.2336  0.1804  0.2293
 3379W        W18510   1.207  12.828  11.814 -0.1896 -0.1238 -0.0849
 3380W        W18511   0.852  15.137   3.663 -0.0716 -0.1300 -0.0086
 3381W        W18512  18.016  14.351  12.091  0.0239  0.1064 -0.2579
 3382W        W18513  16.733   6.907  13.320  0.1980 -0.1017  0.4742
 3383W        W18514  12.626   6.397   4.556  0.2558 -0.1587  0.0531
 3384W        W18515  18.337   6.730  11.396  0.2562 -0.1806  0.0777
 3385W        W18516  15.777   5.044  12.314 -0.2021 -0.2774 -0.0712
 3386W        W18517  13.158   7.897   2.015  0.0439  0.1832  0.1321
 3387W        W18518  13.040   7.088   1.737  0.2068  0.1177  0.1010
 3388W        W18519   8.467   4.244   5.577  0.0160 -0.2150  0.4061
 3389W        W18520  12.441  18.030  11.317 -0.0676  0.3606 -0.1022
 3390W        W18521  11.670  17.177   5.122  0.1227 -0.1976  0.0340
 3391W        W18522  11.628   9.479   4.811  0.0910 -0.0172  0.0462
 3392W        W18523   3.276  17.164   2.615  0.2339 -0.0313 -0.1789
 3393W        W18524  12.160   5.958  11.383 -0.1837 -0.1267  0.1361
 3394W        W18525  13.552   9.412  15.555 -0.0275 -0.0991  0.3328
 3395W        W18526   0.848  16.208   2.600  0.0187  0.0186 -0.1236
 3396W        W18527   8.899   8.393   0.069 -0.0672 -0.1022 -0.0213
 3397W        W18528   1.784  14.075  11.445  0.2321  0.2072 -0.0313
 3398W        W18529  10.653  12.400   3.996  0.2113 -0.3066  0.2215
 3399W        W18530   5.908  15.286   1.630  0.0829 -0.1474 -0.0545
 3400W        W18531  10.083   4.460   1.651  0.3023  0.3914  0.2187
 3401W        W18532   6.692  17.129  14.199 -0.0975 -0.1327 -0.1898
 3402W        W18533  11.653   2.676  11.217  0.4950  0.1188  0.2773
 3403W        W18534   4.449  16.565   2.628  0.2163  0.1753 -0.0919
 3404W        W18535  11.290  13.912  15.465 -0.1837  0.0079 -0.0418
 3405W        W18536  17.543   8.911  11.093  0.1303  0.0840  0.1570
 3406W        W18537   1.964   0.047   9.934  0.2039  0.1539  0.1763
 3407W        W18538   7.227  14.499  15.124 -0.0635  0.1574  0.3776
 3408W        W18539   5.671  10.875   5.564  0.2050  0.1690  0.0868
 3409W        W18540  11.546   1.733   5.392  0.2340 -0.0189  0.1246
 3410W        W18541  10.887   1.141   4.167 -0.0242 -0.0951 -0.3004
 3411W        W18542  11.675  10.925  13.311 -0.0002 -0.0012 -0.1636
 3412W        W18543  10.293   8.214   3.287 -0.1244  0.1738 -0.2026
 3413W        W18544   4.985   7.910   0.599 -0.1784  0.5566 -0.0970
 3414W        W18545  10.905   2.458  13.381 -0.1176 -0.2347  0.1838
 3415W        W18546   4.296  18.059   4.115 -0.0202  0.0092 -0.3181
 3416W        W18547  17.828   2.269  11.010 -0.2412 -0.0959  0.1185
 3417W        W18548   7.831  18.006  14.676 -0.1100 -0.0090 -0.3041
 3418W        W18549  17.440   7.866   4.066 -0.2094 -0.0212 -0.0699
 3419W        W18550   1.740   7.668   0.399 -0.3756 -0.2754 -0.1639
 3420W        W18551   2.008  11.468  11.823 -0.1641 -0.2244  0.0535
 3421W        W18552   4.848   4.427  14.131  0.0017 -0.0651  0.1346
 3422W        W18553  17.226  17.160  11.643  0.0511  0.3033  0.2291
 3423W        W18554  14.599  18.027   2.468  0.3126  0.2013  0.0328
 3424W        W18555   4.048   5.003   0.862  0.0324  0.2858  0.1333
 3425W        W18556  16.670   3.888  15.884  0.0745 -0.2556 -0.2244
 3426W        W18557   7.366   0.961   4.643 -0.4169 -0.0934  0.2140
 3427W        W18558   5.136   7.014   1.756  0.1737 -0.1537  0.2504
 3428W        W18559  18.365   5.573  13.890  0.1858 -0.5835 -0.1409
 3429W        W18560   7.532  13.444   0.291  0.1599  0.0594 -0.3459
 3430W        W18561   9.209  10.380   2.933 -0.3139  0.0230 -0.2098
 3431W        W18562  16.874   1.225  12.850  0.0020 -0.0055 -0.1168
 3432W        W18563  17.412   0.818   4.555  0.4544 -0.2113  0.2480
 3433W        W18564  14.708  12.947   2.754 -0.0176  0.2528  0.0376
 3434W        W18565   9.658   3.607   4.966  0.0452 -0.0266 -0.0724
 3435W        W18566   5.838  12.640   3.136 -0.1450  0.3561  0.1223
 3436W        W18567  18.532   1.340   2.509 -0.0937 -0.0577 -0.0076
 3437W        W18568  17.764  17.670   2.198 -0.0316 -0.0152 -0.1133
 3438W        W18569   0.062   7.011   1.170 -0.0926 -0.0836  0.2759
 3439W        W18570   1.063   3.802   3.282  0.0618  0.0266 -0.1220
 3440W        W18571  16.453  14.249  14.047  0.0777  0.1661  0.3760
 3441W        W18572  14.319   5.612   1.056 -0.0960 -0.0813  0.1437
 3442W        W18573   0.552   6.165   1.441 -0.1397 -0.0635  0.2148
 3443W        W18574   6.195   2.851   3.972  0.2155 -0.0317 -0.2038
 3444W        W18575  13.689  14.959   4.829 -0.0626 -0.2498 -0.1309
 3445W        W18576   1.509  12.438   1.107  0.1900  0.1243 -0.1757
 3446W        W18577   2.157   4.499   5.130 -0.0633 -0.0299 -0.3247
 3447W        W18578  17.689   9.765  15.168 -0.2042 -0.0349 -0.1318
 3448W        W18579  10.076  16.430   4.453  0.0679  0.2520 -0.1814
 3449W        W18580  18.241  10.426  14.239  0.0079  0.0168  0.0312
 3450W        W18581  12.917   5.962  15.431 -0.3240 -0.3480  0.1747
 3451W        W18582   9.339  17.924  13.430  0.0938  0.0299 -0.2783
 3452W        W18583   1.258   0.445   5.043  0.0096 -0.0536  0.2889
 3453W        W18584  11.374  16.695  15.865 -0.0187  0.4058 -0.2355
 3454W        W18585  11.761  14.239  13.302 -0.2473  0.2624 -0.1426
 3455W        W18586  12.106   0.080   2.764 -0.0842  0.0374 -0.1549
 3456W        W18587   7.828   9.627   3.819  0.4620  0.2018  0.0757
 3457W        W18588   6.469   1.643  12.294 -0.1084  0.2669  0.1393
 3458W        W18589  17.188  11.647   0.975 -0.1529 -0.0247 -0.1092
 3459W        W18590   3.555   5.504   1.176  0.0786  0.2227 -0.1500
 3460W        W18591  13.164  14.057   5.313  0.0129 -0.0243 -0.3186
 3461W        W18592   4.655   5.082   1.889  0.0059 -0.2492  0.0164
 3462W        W18593  17.265  16.396  14.179 -0.2285 -0.2214 -0.0323
 3463W        W18594  12.638  17.110  13.040  0.1074 -0.2830  0.1240
 3464W        W18595   8.268  18.441  10.508  0.0071  0.1912 -0.0920
 3465W        W18596  15.187  14.806  12.207 -0.2694  0.1405 -0.1445
 3466W        W18597  16.737  12.353   3.540 -0.3437 -0.2030  0.0989
 3467W        W18598   9.605   7.184   2.920  0.1723  0.1311  0.0067
 3468W        W18599   7.277  18.379  10.537  0.0272  0.1032 -0.2837
 3469W        W18600   5.879   2.380   0.593 -0.1922  0.1418  0.0270
 3470W        W18601   7.578   6.059   6.136  0.1189 -0.6369 -0.0015
 3471W        W18602   6.413   4.011   5.765  0.3366  0.1535  0.1597
 3472W        W18603   1.793  14.536  14.646 -0.0533  0.0377 -0.3426
 3473W        W18604   3.935  11.318  15.821 -0.2169 -0.5883  0.0260
 3474W        W18605   1.135   1.734  11.241  0.2190  0.0629  0.4682
 3475W        W18606   7.246  13.797   0.522  0.0021  0.1046  0.1948
 3476W        W18607   6.557  17.823   4.228 -0.1916 -0.0973 -0.0354
 3477W        W18608  15.200  10.032  13.484 -0.0161 -0.0810  0.0214
 3478W        W18609   8.198   0.458  13.014  0.1387 -0.1858 -0.3237
 3479W        W18610   2.953   2.482   0.684  0.1535  0.0599 -0.3620
 3480W        W18611   3.600   0.857   1.596 -0.2703 -0.0109 -0.1558
 3481W        W18612  18.412   2.733   4.865  0.0168 -0.1122  0.2809
 3482W        W18613   2.837   0.503  14.849  0.1905  0.0795  0.0705
 3483W        W18614   6.567  16.790   4.146 -0.1291  0.3183 -0.1970
 3484W        W18615  17.645   0.036  12.537  0.2091 -0.0737 -0.0492
 3485W        W18616  16.707   3.406   3.351 -0.1571 -0.3758 -0.4114
 3486W        W18617  16.201  13.998   0.611  0.2825  0.4453 -0.0551
 3487W        W18618  13.651  17.499  13.486  0.1027 -0.2429  0.1595
 3488W        W18619  16.677  16.426   0.645 -0.0991  0.0808 -0.2290
 3489W        W18620   9.985   3.694   1.145 -0.0429 -0.1425 -0.0814
 3490W        W18621  16.127   5.792   2.769  0.0222  0.0057  0.1190
 3491W        W18622   4.186   6.946   2.008 -0.1886 -0.0960 -0.1018
 3492W        W18623  10.845   1.413  11.581 -0.0634  0.1236  0.0902
 3493W        W18624  13.787  12.177   3.135 -0.0732  0.2046  0.1110
 3494W        W18625  18.230  14.532  10.720 -0.0668  0.2781  0.0523
 3495W        W18626  15.963   0.008  14.170  0.0975  0.3007 -0.2724
 3496W        W18627   6.300   5.551   1.747 -0.1785  0.0928 -0.1086
 3497W        W18628   1.122   3.516  14.215  0.0481  0.2128  0.2501
 3498W        W18629   5.171  15.938   4.658  0.0095  0.0562 -0.1198
 3499W        W18630   6.031   2.582  11.336 -0.0596 -0.0316 -0.2611
 3500W        W18631   3.276  13.828   3.696  0.0968  0.2841  0.2538
 3501W        W18632  13.301  16.995  10.768  0.0276  0.2435  0.0700
 3502W        W18633   9.746   1.940   2.663 -0.2286 -0.0997 -0.2617
 3503W        W18634   5.723   2.615  13.627 -0.0693  0.0675 -0.1084
 3504W        W18635  10.714   0.319  10.761 -0.0650 -0.2112  0.0454
 3505W        W18636   3.282   7.067   0.892 -0.1519 -0.2737 -0.2585
 3506W        W18637   8.604  15.923  14.203 -0.1413  0.0422 -0.1673
 3507W        W18638   6.359  14.769  14.098  0.3892  0.1676 -0.0159
 3508W        W18639  10.125   3.933  10.641  0.0434  0.0694  0.1975
 3509W        W18640   9.375   3.582  14.941 -0.2649  0.0386  0.0607
 3510W        W18641   7.911   6.129   1.915  0.1233  0.0082 -0.1282
 3511W        W18642  17.956   4.865   4.603  0.0689 -0.2130 -0.0155
 3512W        W18643   5.016   8.103  13.858  0.1809  0.5176 -0.0284
 3513W        W18644   1.356   7.766  12.364  0.1868 -0.0051 -0.0301
 3514W        W18645   8.550   3.309  11.759 -0.3147 -0.0887 -0.2967
 3515W        W18646   8.178  16.300  13.903 -0.1345  0.2042 -0.2996
 3516W        W18647   0.179   6.779   3.540  0.3392  0.1593 -0.1621
 3517W        W18648  17.179  17.673   6.055  0.2333  0.3185 -0.1804
 3518W        W18649   2.336  15.209   3.345 -0.1373  0.1701 -0.0270
 3519W        W18650  15.493   8.220  10.728 -0.0227 -0.0831  0.4031
 3520W        W18651   2.691  10.433   2.713  0.1453 -0.2321  0.2176
 3521W        W18652  11.375  10.477   2.330 -0.1646 -0.3392  0.0307
 3522W        W18653   5.097  14.438   2.894 -0.2372 -0.0999 -0.1716
 3523W        W18654  15.457  16.038  15.676  0.0790  0.0903  0.3155
 3524W        W18655   5.786   9.741   2.442 -0.2603 -0.1049  0.1043
 3525W        W18656   5.517  17.335  15.384 -0.0030  0.2278 -0.0732
 3526W        W18657  11.342   8.753  12.754  0.1079  0.2886  0.3375
 3527W        W18658  17.088   5.766  11.365 -0.0365 -0.0267  0.0275
 3528W        W18659   7.648   1.260   1.945  0.1513  0.1073  0.0483
 3529W        W18660   2.069  13.156   4.301 -0.3176 -0.1672  0.1970
 3530W        W18661  13.672   3.067   9.684 -0.0551  0.3509  0.1163
 3531W        W18662  11.205  14.921  14.805 -0.2317 -0.1769 -0.1010
 3532W        W18663   8.461   1.615   9.896  0.1560 -0.2224  0.2804
 3533W        W18664  16.780  12.160  15.561  0.0518  0.2808 -0.2404
 3534W        W18665   6.406  13.816   9.934  0.2686  0.0672 -0.3146
 3535W        W18666   4.355  17.124   2.332  0.0851  0.4824  0.1660
 3536W        W18667   1.343  15.241  10.509 -0.1084 -0.4789 -0.3784
 3537W        W18668   0.215  15.408  12.481  0.2957  0.0222 -0.0898
 3538W        W18669  13.336   0.607   0.837 -0.0895  0.0086  0.1776
 3539W        W18670  10.094   1.262  11.574 -0.0075  0.3431  0.0328
 3540W        W18671   3.509   8.574   2.381  0.2182 -0.2211  0.0726
 3541W        W18672  11.837   5.248  10.764 -0.0382  0.0379 -0.1863
 3542W        W18673   2.210   6.571  13.993 -0.1272  0.0386 -0.0640
 3543W        W18674   7.832  13.773   1.942 -0.0888  0.0846 -0.0803
 3544W        W18675   0.510   7.971  15.752  0.1157 -0.2739 -0.0095
 3545W        W18676   3.497  12.507   4.296  0.1295 -0.2912 -0.1477
 3546W        W18677  11.859  13.828   0.855 -0.0504  0.2270 -0.0679
 3547W        W18678   6.863   6.731   1.485 -0.0201  0.1352  0.1101
 3548W        W18679   8.532   4.339  11.967 -0.4945 -0.0178 -0.0311
 3549W        W18680  15.697   2.358  11.209  0.2353 -0.2488 -0.0110
 3550W        W18681  10.275   8.278  13.673  0.0380 -0.0146  0.2486
 3551W        W18682  10.257   1.251   1.271  0.4806  0.4582 -0.0342
 3552W        W18683   5.069   6.025  12.240 -0.0713 -0.0385  0.1654
 3553W        W18684  12.614   8.173   3.054 -0.2093 -0.0474  0.1603
 3554W        W18685   2.090  12.436  12.285  0.2923  0.1205  0.0462
 3555W        W18686  17.825   3.739  15.099  0.1183 -0.1085 -0.1443
 3556W        W18687   3.287  15.354   0.639 -0.1573  0.0758 -0.1568
 3557W        W18688  11.029  15.406  14.653 -0.0475  0.0477 -0.4184
 3558W        W18689  14.113   6.572   4.965 -0.1284 -0.2112  0.0317
 3559W        W18690  14.346   7.200  13.058  0.1101  0.2047 -0.0507
 3560W        W18691   8.319   4.935  10.880 -0.2519 -0.1411  0.3011
 3561W        W18692  11.305   3.284   1.517 -0.3074  0.0550 -0.0131
 3562W        W18693  12.542   2.436  14.394  0.3366  0.0361 -0.0636
 3563W        W18694   5.471   0.044  15.203  0.1926  0.0122 -0.0472
 3564W        W18695  10.127  13.481   2.446 -0.2231 -0.1262  0.1592
 3565W        W18696  16.699  18.483   4.464  0.0300  0.2139  0.2133
 3566W        W18697   9.828  12.468   2.664 -0.1249  0.0618  0.1739
 3567W        W18698   5.990   1.785   1.329  0.2904  0.0577  0.1097
 3568W        W18699  15.222  18.416   1.812  0.0085  0.1245 -0.2544
 3569W        W18700   9.665  11.191   1.257  0.0584 -0.0697  0.0995
 3570W        W18701  11.463   4.156  11.502 -0.2057 -0.4157 -0.2929
 3571W        W18702   3.807  13.027  12.639 -0.0668 -0.0098  0.4031
 3572W        W18703   3.921   5.695   0.522 -0.2059  0.2459  0.0590
 3573W        W18704  10.894  16.874   5.347  0.2826 -0.0770 -0.0435
 3574W        W18705   1.992  13.230  11.955  0.1183  0.1819  0.4981
 3575W        W18706   7.241   6.441  12.081  0.0625  0.0868 -0.1546
 3576W        W18707   0.945  18.513   2.409  0.2653 -0.0439  0.0190
 3577W        W18708  17.989  14.306  12.609  0.0496 -0.3079 -0.0652
 3578W        W18709   7.296  11.762   4.095  0.0381 -0.2757  0.0297
 3579W        W18710  16.930  16.627   1.416  0.0659  0.1645 -0.2001
 3580W        W18711   2.616   4.676   4.367 -0.3450  0.0139 -0.0331
 3581W        W18712  10.109  14.230  15.584 -0.0585  0.1503 -0.1237
 3582W        W18713  10.867  17.088  11.427  0.0646  0.1646 -0.0271
 3583W        W18714   4.461   7.549  15.887  0.1575 -0.2387 -0.1272
 3584W        W18715  12.735   4.116   4.487 -0.4632 -0.1900  0.2015
 3585W        W18716  14.791   1.224   4.530 -0.0356 -0.2690  0.0985
 3586W        W18717   5.579   2.913  14.196 -0.0450  0.0657 -0.2241
 3587W        W18718  15.089  13.735   3.091 -0.0157  0.0228  0.0471
 3588W        W18719  11.337   8.723   4.842 -0.2585  0.2617 -0.0847
 3589W        W18720   8.977   3.600  12.976 -0.3140  0.5143 -0.0343
 3590W        W18721   4.150  15.249  14.605 -0.0709 -0.0307  0.1746
 3591W        W18722   4.551  13.747  11.441  0.0055  0.0545  0.1396
 3592W        W18723   1.995   5.966   5.655  0.1862 -0.1721 -0.0738
 3593W        W18724  16.674   0.941   1.568 -0.0743 -0.1371 -0.0007
 3594W        W18725   8.852   7.814  14.023  0.4350 -0.1558 -0.0271
 3595W        W18726   2.611   4.223  13.176 -0.1730 -0.2072 -0.1279
 3596W        W18727  14.391  16.265  13.174  0.0537 -0.1812  0.3649
 3597W        W18728   3.195  14.625   3.378 -0.0492  0.2615 -0.0377
 3598W        W18729   3.972  15.894   0.350  0.4447  0.1279 -0.1671
 3599W        W18730  18.004  16.387  12.160  0.1423 -0.3700 -0.0664
 3600W        W18731  15.208  17.882  14.019  0.0454  0.0923 -0.3869
 3601W        W18732   6.868  13.011   2.230  0.1149  0.1976  0.3161
 3602W        W18733  11.213   7.791  15.809 -0.0069 -0.0828 -0.0952
 3603W        W18734  17.011  16.495   4.489  0.3653  0.0988 -0.1030
 3604W        W18735  11.167  10.708  13.084 -0.0265 -0.2628 -0.1741
 3605W        W18736   7.336  10.448  13.919  0.0027  0.1593 -0.0222
 3606W        W18737   3.261   7.640   2.510  0.1874  0.0858 -0.2013
 3607W        W18738   9.890   2.317   0.356  0.2514  0.0297 -0.0751
 3608W        W18739   0.317   5.643   4.101  0.1974 -0.3240 -0.2868
 3609W        W18740  13.524   4.997  13.291 -0.3638 -0.0929  0.1636
 3610W        W18741   3.875  13.513   2.688 -0.0644 -0.1136  0.2157
 3611W        W18742   8.801   3.058  13.120  0.1791  0.1835 -0.2369
 3612W        W18743   7.639   7.386   4.653  0.3294  0.2942  0.1425
 3613W        W18744  17.515   3.138   0.818  0.2345 -0.0433 -0.3586
 3614W        W18745  12.530  14.275  10.616 -0.0967 -0.0001 -0.0528
 3615W        W18746  16.589   4.943  11.207  0.1089  0.2163  0.1925
 3616W        W18747   4.268  11.334   2.113  0.0460  0.2852  0.3659
 3617W        W18748   5.953  13.639  14.449  0.1895 -0.3301 -0.3323
 3618W        W18749  12.470  14.493   2.531 -0.0307  0.1422 -0.0682
 3619W        W18750   6.090   9.946   2.081 -0.2419  0.0431  0.1625
 3620W        W18751  18.173   3.422   2.008  0.1276  0.6621 -0.2211
 3621W        W18752   4.817   4.004  14.317  0.0575 -0.1946 -0.0184
 3622W        W18753   2.944   8.585   3.895  0.0460 -0.0958 -0.1124
 3623W        W18754  18.477   2.450   0.071 -0.0933  0.2949  0.3404
 3624W        W18755   9.096  13.837  12.089 -0.0637  0.0517  0.0431
 3625W        W18756   9.353   3.366  13.229 -0.0583  0.0789  0.1832
 3626W        W18757   1.258   2.912  11.308 -0.3326 -0.3113  0.3942
 3627W        W18758  16.814  13.796   3.469  0.0024  0.2549 -0.2220
 3628W        W18759  18.098  18.045   1.071  0.2349  0.1964 -0.0299
 3629W        W18760   3.646   5.915   3.322 -0.2008 -0.1735 -0.1111
 3630W        W18761   0.831   3.255  15.223  0.2329 -0.1340  0.0909
 3631W        W18762   1.854   1.867  15.776 -0.0845  0.0584 -0.2062
 3632W        W18763   3.178   6.081   3.626  0.2276  0.3866  0.0568
 3633W        W18764   6.034  15.713   1.392 -0.0040  0.2272  0.1380
 3634W        W18765   7.454   6.774  15.083 -0.2762 -0.0398  0.4392
 3635W        W18766  14.343   3.687   2.886  0.0690  0.1605 -0.1939
 3636W        W18767  14.362  12.735  15.016  0.1527 -0.0232  0.0770
 3637W        W18768   5.428  18.234   5.035 -0.1189  0.4378  0.0054
 3638W        W18769  13.716  10.764  11.618 -0.0343 -0.0170 -0.2960
 3639W        W18770  16.124   6.475  14.392 -0.1794 -0.0451 -0.2665
 3640W        W18771  15.108   3.332   2.398  0.0965 -0.0099 -0.0827
 3641W        W18772  13.714   0.693  12.277 -0.1748  0.0666 -0.3718
 3642W        W18773  14.316  17.134   2.740  0.3117  0.1322 -0.0670
 3643W        W18774  16.727  18.389  11.443 -0.1021 -0.1161  0.0970
 3644W        W18775  18.231  18.283  11.328  0.0545  0.2107 -0.1463
 3645W        W18776   7.307  15.634   1.957  0.0026 -0.0816  0.0382
 3646W        W18777   5.104  10.748   0.623  0.1482 -0.0463 -0.2490
 3647W        W18778   2.222  15.323   0.550  0.1263  0.0982 -0.1828
 3648W        W18779   5.015   8.323   0.279  0.0217  0.2115 -0.0760
 3649W        W18780   1.851  16.933   1.106  0.0264 -0.3677 -0.1026
 3650W        W18781  10.545  10.196   1.918 -0.0174  0.0903  0.2850
 3651W        W18782   0.194   6.289   5.764 -0.1584 -0.2084 -0.2036
 3652W        W18783   1.091   0.477   4.632  0.2158  0.2177 -0.0654
 3653W        W18784   1.593   9.413   0.835 -0.0089 -0.0587 -0.0632
 3654W        W18785   5.761  15.543  12.898  0.2776  0.0819 -0.0774
 3655W        W18786  10.338   5.915   3.411  0.1251 -0.1783  0.0685
 3656W        W18787  11.537   9.873  12.837  0.0244  0.0292 -0.0293
 3657W        W18788   8.938   2.519  13.786  0.0642 -0.0847  0.0380
 3658W        W18789  17.991   2.189   0.094  0.2290 -0.0771  0.1165
 3659W        W18790   0.134   9.644  12.245 -0.2078  0.2333 -0.3453
 3660W        W18791  17.744  11.276   6.183 -0.1682 -0.0156 -0.2551
 3661W        W18792  16.581   0.655   3.545 -0.3051  0.0243 -0.0201
 3662W        W18793   3.700  17.446  12.961  0.2666  0.0474 -0.0682
 3663W        W18794  16.893  12.884  12.918  0.0357 -0.2058 -0.0970
 3664W        W18795  17.617   8.368  11.102 -0.1293  0.0484  0.2226
 3665W        W18796   4.724   7.170   0.877  0.0147 -0.1426  0.1038
 3666W        W18797  14.798   8.746   1.442  0.1443  0.2429 -0.3324
 3667W        W18798   1.624  17.024  12.410  0.2287 -0.0655 -0.0112
 3668W        W18799   3.252   5.176   3.119  0.0578  0.1840  0.0314
 3669W        W18800  10.621   1.945  14.278  0.1729 -0.0596  0.1825
 3670W        W18801  10.885  17.716  14.673 -0.0410  0.0163  0.0614
 3671W        W18802  17.068   4.093  15.558  0.1093 -0.1132  0.3423
 3672W        W18803  12.734   9.299   2.102  0.0285 -0.1058 -0.0045
 3673W        W18804   6.848   3.725  15.630 -0.2273  0.2348  0.1806
 3674W        W18805  15.427   4.547   4.756 -0.0372 -0.2321  0.1909
 3675W        W18806   0.929   8.999   5.478 -0.2854 -0.0876  0.2512
 3676W        W18807  16.371   5.937  10.454 -0.0414  0.1046  0.0984
 3677W        W18808   1.173   0.956  14.752  0.1145  0.2082 -0.0661
 3678W        W18809  16.329   5.764   4.932 -0.0706  0.1786  0.0890
 3679W        W18810  18.239   5.592   3.374 -0.1397  0.3875 -0.0627
 3680W        W18811   7.127  12.500   3.454 -0.0051  0.1533  0.2864
 3681W        W18812   5.296   1.497  14.628  0.0424  0.1712  0.1595
 3682W        W18813  13.422   0.555   5.190 -0.2449 -0.0876  0.1346
 3683W        W18814  12.889  11.894  11.488  0.1245 -0.1831 -0.0894
 3684W        W18815   1.531  13.832   0.500 -0.1294 -0.1840  0.0079
 3685W        W18816  16.238   8.055  13.679  0.2146 -0.2988 -0.0230
 3686W        W18817   0.644  16.820   2.226 -0.0764  0.0969  0.1174
 3687W        W18818   5.759  17.040  11.460  0.2313 -0.1811 -0.1162
 3688W        W18819   5.536   7.761   1.754  0.1594 -0.3439  0.1372
 3689W        W18820  12.334  13.096  15.383 -0.3125 -0.2082  0.1277
 3690W        W18821  15.140   1.143   2.310 -0.0908 -0.1283  0.1748
 3691W        W18822   1.493   3.629  13.315  0.1138  0.0757  0.3023
 3692W        W18823  14.304   3.413   4.967 -0.1313 -0.0904  0.0939
 3693W        W18824   3.313   3.903   1.676  0.4844  0.0312  0.0974
 3694W        W18825  17.470  17.625  14.471 -0.0264  0.0307  0.0539
 3695W        W18826   7.815   0.242  12.677  0.0626  0.1053  0.1622
 3696W        W18827   2.207  17.799   4.522 -0.0313  0.1503  0.0914
 3697W        W18828   3.312  12.598  12.645 -0.0201 -0.0005  0.0759
 3698W        W18829  14.542  18.454   2.812  0.2391 -0.0508 -0.1382
 3699W        W18830  13.833  11.393  12.507  0.0724 -0.1872 -0.2670
 3700W        W18831  13.163  14.102  11.395 -0.2448  0.0912 -0.1923
 3701W        W18832  18.160   6.999   9.897  0.0101  0.3531 -0.1090
 3702W        W18833  15.095  13.180  13.675  0.1165  0.3957  0.2370
 3703W        W18834   6.290  14.770  11.105  0.1915  0.1121 -0.1543
 3704W        W18835  11.565   8.905   2.474 -0.0659 -0.0262 -0.2488
 3705W        W18836  12.855  10.414  13.216  0.0604 -0.3665 -0.3486
 3706W        W18837   3.686  14.044  13.855 -0.0595  0.0411  0.5319
 3707W        W18838   9.362  16.319  14.467 -0.0303 -0.0962 -0.2191
 3708W        W18839  10.677   4.599   0.403 -0.3057  0.2179  0.0065
 3709W        W18840  10.389  17.531  15.736 -0.1473 -0.1156 -0.4259
 3710W        W18841  15.264  13.421   4.633  0.0388 -0.1436  0.0670
 3711W        W18842   4.343   2.945  12.521 -0.0600  0.0514  0.0307
 3712W        W18843   7.120  14.195   2.876  0.1765  0.1031 -0.0183
 3713W        W18844  14.888   4.851   3.528 -0.1948  0.1315 -0.2881
 3714W        W18845  13.843   9.980   0.593  0.0577 -0.2837  0.1135
 3715W        W18846  14.376  16.718  12.309  0.2353  0.0427 -0.0253
 3716W        W18847   4.506  13.928  13.933  0.1845  0.0394 -0.0343
 3717W        W18848   9.412  11.332   3.981  0.1527 -0.0102  0.3628
 3718W        W18849   8.779  15.160  11.891 -0.1824  0.1432  0.2435
 3719W        W18850   5.398  14.690  11.692  0.1477 -0.3871 -0.0963
 3720W        W18851   7.614   5.935   0.828 -0.2612 -0.0118  0.2621
 3721W        W18852  18.478   0.647   5.827  0.2825 -0.1533 -0.3013
 3722W        W18853   1.802   4.071  12.635  0.1661  0.1336  0.0633
 3723W        W18854   2.917   1.087  10.917  0.2980  0.2179 -0.0395
 3724W        W18855  11.694   5.043  13.997  0.2552 -0.1603  0.0478
 3725W        W18856   4.604  12.573  15.140  0.2791  0.0278  0.0989
 3726W        W18857   5.801   8.762   4.277 -0.0901 -0.3486  0.2579
 3727W        W18858  17.217  12.495  13.200 -0.0593  0.0850 -0.0590
 3728W        W18859  10.095   5.276   5.930 -0.1877 -0.0442 -0.2043
 3729W        W18860   5.293   8.046   5.859  0.1752 -0.1590 -0.3473
 3730W        W18861  14.489  11.577  11.113 -0.0577 -0.0762  0.0760
 3731W        W18862   9.688   0.563   2.303 -0.0844 -0.2071 -0.1650
 3732W        W18863   1.311  15.741  13.298  0.1661  0.0097  0.2317
 3733W        W18864   7.735   5.218  11.708 -0.3982 -0.1317  0.1359
 3734W        W18865   8.931  15.717   4.072 -0.2083  0.1745  0.2673
 3735W        W18866   0.587   4.913  13.875 -0.2338 -0.1968 -0.2889
 3736W        W18867   6.361   5.140   2.244 -0.1864 -0.1534  0.2108
 3737W        W18868   8.619  15.723  12.143  0.0339  0.0791  0.0052
 3738W        W18869  12.066   6.809   4.152 -0.0770  0.0542 -0.0088
 3739W        W18870  14.988  16.901  11.020  0.2352 -0.0809  0.0128
 3740W        W18871   7.497  10.509   0.243 -0.2930  0.0643  0.2134
 3741W        W18872  13.454   6.610  12.953  0.1744 -0.3500 -0.1554
 3742W        W18873  15.088   8.810  12.875 -0.2181 -0.4840 -0.1446
 3743W        W18874   9.908  14.476   0.062 -0.2533  0.0366  0.3954
 3744W        W18875  11.387   2.868  13.669  0.2932 -0.1672 -0.0330
 3745W        W18876  18.257  13.407  15.789 -0.1417 -0.0653  0.2358
 3746W        W18877   5.834   8.281  12.143 -0.1246  0.0717  0.1193
 3747W        W18878  11.989  16.723   1.195 -0.1324  0.0979  0.1556
 3748W        W18879   1.731  10.979   2.553 -0.0250  0.1927 -0.3087
 3749W        W18880   1.409   3.911  11.800 -0.0617  0.0495 -0.2445
 3750W        W18881   6.880  11.983   1.823 -0.1883 -0.0358  0.1857
 3751W        W18882   7.320   6.418   3.395  0.1950 -0.0203 -0.0014
 3752W        W18883   3.223   0.417   3.991  0.0946 -0.0253 -0.1109
 3753W        W18884   1.740   4.813  14.402  0.3863  0.0542 -0.0118
 3754W        W18885  15.358  10.197  14.015  0.0143  0.1261  0.0199
 3755W        W18886   1.831  10.161   6.490 -0.0490 -0.0694  0.2376
 3756W        W18887   9.671   7.872   0.558 -0.0830 -0.4446  0.1038
 3757W        W18888   4.054   7.932  11.502 -0.1886 -0.1457 -0.0550
 3758W        W18889   8.651   0.727   4.681  0.1791  0.0072  0.1473
 3759W        W18890   5.544   6.031  11.993  0.1241  0.0945  0.1396
 3760W        W18891   0.447   4.458   3.486 -0.0685  0.0529 -0.0117
 3761W        W18892   8.770  13.089  10.100 -0.0149 -0.1106 -0.1863
 3762W        W18893  10.698   9.920  10.972  0.0721  0.1574  0.0612
 3763W        W18894   9.298   5.542   5.089  0.1119  0.2121  0.0616
 3764W        W18895  10.251   6.156   4.709 -0.1804 -0.1345  0.1519
 3765W        W18896  10.598   4.131   2.873  0.2592  0.0515  0.0240
 3766W        W18897  14.489  17.189  12.444  0.1604  0.2468  0.1116
 3767W        W18898   3.726   8.259   1.977  0.3859 -0.0156 -0.0583
 3768W        W18899   0.863  13.248  11.985  0.0621  0.2237 -0.1025
 3769W        W18900   1.545  10.160   2.854  0.0681  0.0989 -0.0038
 3770W        W18901  17.791   1.567  11.669 -0.0083 -0.4692 -0.0537
 3771W        W18902  12.668  13.090  14.862 -0.0443  0.3401  0.0869
 3772W        W18903   8.049  15.465   2.483 -0.3456  0.1897 -0.1590
 3773W        W18904   1.687  11.858   2.210 -0.0386  0.0810 -0.3220
 3774W        W18905   7.322   5.130  13.761  0.0618  0.0768 -0.0780
 3775W        W18906   9.448  15.867  14.272 -0.0458  0.2930  0.1527
 3776W        W18907  16.861  18.352  13.342  0.4937  0.3586  0.1212
 3777W        W18908   0.048  12.009  10.449  0.0886 -0.3310 -0.1535
 3778W        W18909  13.259   5.947  10.068  0.1444 -0.0331 -0.3050
 3779W        W18910   6.783   8.631   1.331 -0.2878  0.2727  0.3363
 3780W        W18911  11.761  11.977  13.111 -0.0286  0.1525  0.0625
 3781W        W18912  11.518  11.462   3.802  0.1321  0.1236 -0.0872
 3782W        W18913  15.309   9.429   3.120  0.0427  0.1606  0.2769
 3783W        W18914  10.945  12.302  13.617  0.1362  0.3016  0.2380
 3784W        W18915   8.884   2.796   3.546 -0.0733  0.2253  0.0256
 3785W        W18916  13.370   3.639   4.286 -0.2132  0.0858 -0.0897
 3786W        W18917  16.998   7.341   3.466 -0.2873 -0.2459  0.0962
 3787W        W18918   5.146   9.861  15.429 -0.0968  0.4404 -0.1496
 3788W        W18919  17.633   2.031  15.537  0.0408 -0.0195 -0.1069
 3789W        W18920  11.532   1.696   0.092 -0.0900 -0.5000 -0.1199
 3790W        W18921  14.139  17.512  11.061 -0.1854 -0.3274  0.1008
 3791W        W18922   0.307  15.333   4.225  0.1300  0.3084 -0.2279
 3792W        W18923  12.152   3.529   1.917  0.1338 -0.0572 -0.0140
 3793W        W18924  13.400   8.693  12.719 -0.1077 -0.0895  0.1843
 3794W        W18925  11.825  15.914  12.279 -0.3270  0.1722  0.1112
 3795W        W18926   7.061   3.175   0.356 -0.0225 -0.0932  0.1158
 3796W        W18927   9.464   0.313  12.798 -0.0752  0.1410  0.2503
 3797W        W18928  10.363  11.420  10.207 -0.3285 -0.0002 -0.1926
 3798W        W18929  10.242   2.033  12.946  0.0418 -0.0649 -0.0471
 3799W        W18930  14.470  11.186   5.069 -0.0129 -0.1711  0.0262
 3800W        W18931   2.796   4.860  13.350  0.0365 -0.4228  0.2273
 3801W        W18932  13.341   3.396   9.807 -0.1781 -0.3351 -0.0489
 3802W        W18933  17.415   4.584  13.284 -0.0922 -0.0160  0.0573
 3803W        W18934  14.635   3.182  11.671 -0.0926 -0.1259 -0.0456
 3804W        W18935  12.410  10.086  11.252 -0.1123  0.2153 -0.1971
 3805W        W18936   3.860  16.762  11.289  0.0764 -0.1383 -0.1751
 3806W        W18937   2.253   6.150   3.977  0.1548  0.0158 -0.2313
 3807W        W18938  12.814  14.142  13.658  0.1157 -0.0915  0.0036
 3808W        W18939  18.082   0.220  10.301 -0.0539  0.0210 -0.0633
 3809W        W18940  12.512   8.821   0.915 -0.0826 -0.1100 -0.0368
 3810W        W18941   5.080   6.481   4.067 -0.2357  0.2356  0.3521
 3811W        W18942   9.306  11.887  13.971  0.0992 -0.2594  0.2772
 3812W        W18943  13.937  15.536  11.106  0.0918  0.2622 -0.3317
 3813W        W18944  11.843   3.194  11.930  0.0792  0.0207  0.0956
 3814W        W18945  17.459   5.258  15.253 -0.0279 -0.0425  0.2588
 3815W        W18946  17.102   9.904   2.396  0.1347 -0.0817 -0.0252
 3816W        W18947   0.067   8.706  14.241  0.2622 -0.3317  0.2305
 3817W        W18948   5.890  15.262  13.857  0.0308 -0.1677 -0.0674
 3818W        W18949   0.392  18.306  15.569 -0.1080  0.1211  0.1070
 3819W        W18950   2.845  18.496   5.892  0.0443  0.0455 -0.0737
 3820W        W18951   3.595   6.500   6.219 -0.0872  0.0178  0.6098
 3821W        W18952  16.753  16.762   5.490 -0.2999  0.3550 -0.3253
 3822W        W18953   1.351   3.297  12.350  0.4030 -0.1301  0.2202
 3823W        W18954   4.490   4.294   3.251  0.3307  0.0310 -0.0179
 3824W        W18955  18.493  13.069  14.521  0.0589 -0.0209 -0.2706
 3825W        W18956   6.436  13.498  13.268 -0.3383  0.0983 -0.3216
 3826W        W18957  10.116   1.261   4.260 -0.0623  0.2391 -0.0623
 3827W        W18958   8.310  18.316   2.934  0.2333 -0.2349 -0.1305
 3828W        W18959  11.867   5.686   2.089  0.2780 -0.0155 -0.0598
 3829W        W18960  15.597   4.791   3.813  0.1197 -0.0157  0.0917
 3830W        W18961   9.936  15.046  10.402  0.0553  0.0376  0.2630
 3831W        W18962   3.458  14.185   3.454  0.1491 -0.0387  0.1188
 3832W        W18963   0.001  16.376   4.313  0.1143  0.0781 -0.1095
 3833W        W18964   5.279  15.698   2.294  0.2001 -0.1418  0.1479
 3834W        W18965   6.337   5.959   4.172  0.0278 -0.0949 -0.1513
 3835W        W18966  16.890  11.578   0.569 -0.3375 -0.0968  0.0090
 3836W        W18967  13.821   8.280   1.192 -0.0659  0.3909 -0.1658
 3837W        W18968  17.538  14.008  15.549 -0.1914  0.3233 -0.1866
 3838W        W18969  15.233   7.145  15.818  0.1795  0.1435  0.2362
 3839W        W18970   4.729  16.314  15.763  0.1884  0.1636  0.2331
 3840W        W18971  10.253   3.901   1.513  0.1417 -0.0635 -0.1589
 3841W        W18972   2.557  14.612  14.887 -0.1204  0.0762  0.1602
 3842W        W18973  14.069   7.372   0.704 -0.1217 -0.1955 -0.4502
 3843W        W18974  17.329  13.587  11.104 -0.2416  0.2087  0.2139
 3844W        W18975  18.173  13.784   4.231 -0.0844  0.0072 -0.1057
 3845W        W18976  13.224   4.900  15.377 -0.3346 -0.0976 -0.0016
 3846W        W18977  10.009   9.906   3.458 -0.1842 -0.0672 -0.1783
 3847W        W18978   7.691   8.285  15.281  0.4011 -0.0326  0.2317
 3848W        W18979   7.408   0.944  12.481 -0.1120 -0.0632  0.4434
 3849W        W18980   1.065   0.004   5.145  0.4604 -0.1320 -0.2490
 3850W        W18981   6.557  13.089   4.871 -0.2104 -0.0921  0.2023
 3851W        W18982   2.412  11.135   3.807  0.1490 -0.1729 -0.2021
 3852W        W18983  16.568   1.605  12.226 -0.0921  0.0652 -0.1996
 3853W        W18984   0.940   2.315   4.804 -0.1394  0.3412  0.0203
 3854W        W18985  16.382   2.898  15.531 -0.2565  0.0103  0.2090
 3855W        W18986   1.438  11.114  10.462 -0.1849 -0.0500 -0.4831
 3856W        W18987   0.434  10.307  15.786 -0.1215 -0.1043 -0.2222
 3857W        W18988  16.822  13.706  10.906 -0.2129  0.0079 -0.1159
 3858W        W18989   6.629   9.603  12.445 -0.0107 -0.0567  0.0454
 3859W        W18990  16.274  10.533   3.000  0.1142 -0.1861  0.0243
 3860W        W18991  10.093   5.119  14.726  0.0419 -0.1440 -0.1531
 3861W        W18992  17.649  10.294   0.157 -0.1573 -0.2559 -0.2227
 3862W        W18993  13.593  11.271  11.460  0.2326  0.1959  0.0359
 3863W        W18994  13.545   7.393   3.528  0.1944 -0.1193  0.3271
 3864W        W18995  13.464   3.156  10.878  0.1902 -0.0469 -0.4643
 3865W        W18996  16.458  13.359   2.989 -0.1735  0.0820 -0.0548
 3866W        W18997   0.967  10.401  13.110 -0.2346 -0.1870 -0.0557
 3867W        W18998   9.890  12.777   4.149 -0.2813 -0.1455 -0.1056
 3868W        W18999   5.733  10.333   0.024  0.0603 -0.4266 -0.2352
 3869W        W19000  16.316  12.781  12.845 -0.0789  0.1825 -0.1203
 3870W        W19001  15.914   2.871   0.041 -0.1719 -0.0213 -0.1687
 3871W        W19002   5.471   7.773   5.449  0.0305  0.1813  0.0775
 3872W        W19003   0.129  14.685   2.463 -0.1318  0.2466 -0.0928
 3873W        W19004  15.012  16.580  11.410 -0.1187  0.2500  0.0784
 3874W        W19005   3.171  16.138  11.058 -0.1844 -0.0591  0.0581
 3875W        W19006   4.384   6.722  12.903 -0.0690 -0.1385 -0.0725
 3876W        W19007  14.528   7.566   0.895 -0.1291 -0.4065  0.0824
 3877W        W19008   0.939  11.664   4.273  0.2308  0.1383 -0.0812
 3878W        W19009   3.168  13.280   3.876  0.1646 -0.0849 -0.1834
 3879W        W19010   1.865  12.534   4.170  0.0760  0.0858 -0.1374
 3880W        W19011  11.450  14.535  10.439  0.0058  0.3952  0.0379
 3881W        W19012  11.464   8.328  14.707 -0.1475  0.3453  0.0937
 3882W        W19013   0.315   9.994   1.372 -0.0584 -0.3893 -0.3932
 3883W        W19014  17.533   8.735   5.034  0.1513  0.2632  0.0994
 3884W        W19015   3.039   7.849   4.478  0.0963 -0.1659 -0.0774
 3885W        W19016  15.840   3.783  14.280  0.0374 -0.4079 -0.0364
 3886W        W19017  18.526   2.807   0.482  0.0654 -0.1452 -0.2482
 3887W        W19018  16.216  15.231   2.971 -0.1774 -0.1852  0.1013
 3888W        W19019   1.862   0.379  12.858  0.4081 -0.0570  0.1056
 3889W        W19020  13.135   5.390  12.505 -0.0694  0.0411 -0.2172
 3890W        W19021   6.525  10.699  11.609 -0.0468  0.2765 -0.2494
 3891W        W19022  17.885   7.796   1.908  0.0615 -0.1108  0.2643
 3892W        W19023   6.864   8.936   0.953  0.1251 -0.3686 -0.1660
 3893W        W19024  18.198  12.679   1.659  0.0040  0.0750 -0.0258
 3894W        W19025  13.522   4.388   4.125 -0.1993 -0.1611 -0.0804
 3895W        W19026   3.945   5.783  13.919  0.1311 -0.4269  0.0100
 3896W        W19027  13.919  14.692  13.849 -0.0528  0.1545 -0.0198
 3897W        W19028   2.394  13.568   3.073 -0.2092  0.4132  0.3398
 3898W        W19029  10.457   8.199  12.820  0.0538  0.1546  0.3158
 3899W        W19030   0.106  15.775   4.760  0.0435  0.2678 -0.1505
 3900W        W19031   9.278   4.877  12.325 -0.0769  0.1358 -0.2020
 3901W        W19032   8.955  17.058   0.587  0.2943  0.2554  0.0308
 3902W        W19033  15.473   1.614   0.660 -0.3252 -0.0348  0.3443
 3903W        W19034  17.695   8.073   3.629  0.2011 -0.1017 -0.0265
 3904W        W19035   4.038   8.598   1.583 -0.4569  0.2634  0.1269
 3905W        W19036   3.004   7.059  13.881  0.1208  0.0679  0.0202
 3906W        W19037   7.735   7.062   1.663  0.0818 -0.1266 -0.0089
 3907W        W19038   6.516  13.400   3.970 -0.0278  0.0867 -0.2247
 3908W        W19039   4.491   3.919  15.231  0.0802 -0.4529  0.0345
 3909W        W19040   7.699   5.553   1.709 -0.1206  0.1752  0.2101
 3910W        W19041  13.442   6.405  10.982 -0.1087  0.1659  0.0330
 3911W        W19042  16.714   0.645  13.959 -0.1690  0.1396  0.2380
 3912W        W19043   9.964   8.061   4.241  0.1465 -0.0451  0.0737
 3913W        W19044   1.539   7.609   1.465 -0.0918  0.0614  0.3043
 3914W        W19045   3.541   2.517   0.780 -0.3613 -0.1906 -0.4109
 3915W        W19046  17.117  13.959   2.522  0.0751 -0.1478 -0.4256
 3916W        W19047   8.977  13.845   3.429 -0.1015 -0.3089 -0.1639
 3917W        W19048  10.694   0.325   5.065  0.1473  0.0394  0.0643
 3918W        W19049   0.544   0.810  12.020 -0.3323  0.2108  0.1208
 3919W        W19050   1.457   8.434  12.865 -0.0350 -0.1508 -0.0066
 3920W        W19051   0.808   1.938   4.118  0.1504 -0.1666 -0.0918
 3921W        W19052   5.918  10.804  10.743  0.1354 -0.0564 -0.3879
 3922W        W19053   2.029  11.122   2.940  0.1328 -0.1094  0.0278
 3923W        W19054   0.788   5.551  12.913  0.0059  0.1174  0.2187
 3924W        W19055  13.890   0.761   0.538  0.0807  0.0657  0.0281
 3925W        W19056   9.304  14.608   0.659  0.2901 -0.0960 -0.0944
 3926W        W19057  15.230   9.646  12.231 -0.0200 -0.0468 -0.3603
 3927W        W19058  12.717   3.655   0.232  0.4197  0.2657 -0.2868
 3928W        W19059  12.901   9.826  13.007  0.0293 -0.1544  0.0598
 3929W        W19060  16.211  17.894  11.075 -0.2737 -0.3596  0.3769
 3930W        W19061  12.926  17.440   1.758  0.1617 -0.0881  0.0903
 3931W        W19062   3.054   7.458   0.162  0.0416  0.0901  0.3038
 3932W        W19063   4.081  14.391   2.716  0.1657  0.1555  0.3360
 3933W        W19064  12.738  17.501  13.714  0.0479  0.3406  0.2225
 3934W        W19065  15.500   3.076  13.615  0.1602 -0.2465 -0.0772
 3935W        W19066  17.748  13.040   3.039  0.3566  0.0181  0.0177
 3936W        W19067   9.409   4.621   5.192  0.1523  0.0088  0.0613
 3937W        W19068   5.994   1.345  12.048  0.0376 -0.0802  0.0875
 3938W        W19069   7.579   0.210  14.157 -0.0613 -0.2153  0.0168
 3939W        W19070   4.324   1.687   5.520 -0.0688  0.4558 -0.2725
 3940W        W19071   3.054  18.446  14.957 -0.0147 -0.2658 -0.4616
 3941W        W19072  13.308  15.731   1.713  0.0025 -0.1126 -0.2465
 3942W        W19073  15.768   9.635   3.270  0.3203 -0.0366 -0.1259
 3943W        W19074  18.193  14.055   3.700 -0.1011 -0.0109 -0.1104
 3944W        W19075   2.142   7.152   4.604  0.2306  0.1352  0.1411
 3945W        W19076   9.398   8.080   1.344 -0.2441 -0.2069 -0.1349
 3946W        W19077  12.078   7.415   4.446 -0.2836 -0.2592 -0.1075
 3947W        W19078   5.555  15.427  13.515  0.1113  0.0464 -0.0675
 3948W        W19079  12.524  17.823   4.630  0.1824  0.2418 -0.4781
 3949W        W19080   5.999   6.588   2.352  0.2293 -0.1918 -0.0624
 3950W        W19081   3.956  11.759   3.459 -0.1761  0.0553 -0.0138
 3951W        W19082  15.328  17.316   3.284 -0.2564 -0.0152 -0.1157
 3952W        W19083   1.614   2.122   4.704 -0.1393  0.0386  0.0835
 3953W        W19084   1.568   2.741   2.514 -0.1385  0.1859 -0.0139
 3954W        W19085  13.039  17.436  14.214  0.0702 -0.1172 -0.2378
 3955W        W19086  16.753  12.926  15.387  0.0405 -0.2425 -0.0184
 3956W        W19087  10.276  13.770  11.257  0.2814 -0.2757  0.1687
 3957W        W19088  15.931  15.522  15.454  0.0577  0.0038  0.0190
 3958W        W19089  18.089   1.306  15.895 -0.0770 -0.3858 -0.2418
 3959W        W19090   8.371  15.464  14.063 -0.1615 -0.1388  0.1274
 3960W        W19091   6.973   8.150   0.376 -0.0224 -0.2151 -0.0890
 3961W        W19092  17.485  13.102  10.964 -0.1592 -0.0661 -0.1076
 3962W        W19093   3.067   8.198   2.564  0.2238 -0.0680  0.3225
 3963W        W19094   9.700   9.814  14.009  0.0873 -0.0271  0.1294
 3964W        W19095  12.944   8.558   2.787  0.0559  0.2525 -0.2051
 3965W        W19096   1.192   6.204   3.973  0.0233  0.0634 -0.1500
 3966W        W19097   4.374   3.559   4.888 -0.1891 -0.2844 -0.0662
 3967W        W19098  15.997  12.180   3.898  0.0233  0.2500  0.1622
 3968W        W19099   3.949  15.591   2.651 -0.3669  0.3371 -0.0595
 3969W        W19100   6.453   7.725   5.060  0.0844 -0.2196  0.0611
 3970W        W19101   7.087  16.346  15.173  0.0815  0.0840 -0.0723
 3971W        W19102  16.009  17.328   3.642  0.1462 -0.0117 -0.0255
 3972W        W19103  15.097  11.521   0.153 -0.0391 -0.2461  0.0987
 3973W        W19104  16.680  12.660  15.887 -0.3016  0.1860  0.0640
 3974W        W19105   5.503  13.455   3.791  0.0851  0.4436 -0.2047
 3975W        W19106   1.614   6.367   2.110 -0.0338  0.0029 -0.0866
 3976W        W19107   3.072   7.970  14.271  0.0866  0.1055 -0.2800
 3977W        W19108   8.926  11.723  13.696  0.2147 -0.0925 -0.0136
 3978W        W19109  14.365   7.294  11.229 -0.3006 -0.0126  0.2456
 3979W        W19110  10.358  10.736   2.142  0.0330 -0.0456  0.2341
 3980W        W19111   1.074   8.941  13.557  0.2012 -0.0937  0.0151
 3981W        W19112   1.345  14.008  13.183  0.1057  0.0441  0.2028
 3982W        W19113  18.068   1.445  15.331 -0.0572  0.1082  0.0183
 3983W        W19114   8.877  11.124   1.848  0.0269  0.4462 -0.0355
 3984W        W19115  16.809  16.076   0.271  0.2234 -0.2188  0.0768
 3985W        W19116   8.243  17.589  12.052 -0.1261 -0.4839  0.3156
 3986W        W19117   5.602  10.214  12.005 -0.1536  0.0617 -0.1279
 3987W        W19118   9.353  16.045   4.189 -0.1381 -0.2226  0.0030
 3988W        W19119  18.325   4.676   1.990  0.1104 -0.1141 -0.2773
 3989W        W19120  10.358  14.679   3.568  0.1058 -0.0294 -0.0917
 3990W        W19121   6.345  12.351  13.182 -0.1645  0.1996 -0.0981
 3991W        W19122   8.449   2.134   4.091  0.1153 -0.0099  0.1626
 3992W        W19123  11.024   0.734   1.153 -0.2078  0.0404 -0.0978
 3993W        W19124   3.154   4.896   3.521 -0.0014  0.0432 -0.0715
 3994W        W19125  17.547   2.766  13.480 -0.3190  0.0291 -0.0912
 3995W        W19126  12.728   2.086   5.966 -0.0973  0.0833  0.2176
 3996W        W19127   3.632  16.898  11.745  0.2140  0.0304 -0.4798
 3997W        W19128  14.219   6.380  14.888 -0.1041 -0.0888 -0.1427
 3998W        W19129   1.045   7.729  14.750 -0.1048  0.0398  0.0016
 3999W        W19130  16.420   3.077   3.151 -0.3726 -0.0514  0.1828
 4000W        W19131   2.541   0.533   1.016 -0.1790 -0.0607 -0.5832
 4001W        W19132  15.047  10.223   3.608 -0.0731  0.3252 -0.0857
 4002W        W19133   6.312   5.137   4.663 -0.3503  0.2609 -0.1660
 4003W        W19134  14.571  10.410   1.015  0.2615 -0.0003  0.0753
 4004W        W19135   2.366  15.658  15.585 -0.0558 -0.0262  0.1007
 4005W        W19136  15.357   2.626   4.192 -0.2639 -0.1188  0.0270
 4006W        W19137  14.140  10.279   3.602 -0.3016 -0.0236 -0.0948
 4007W        W19138  14.770   9.912  12.566 -0.0671  0.1116  0.1849
 4008W        W19139   3.161   9.779   2.253 -0.5226  0.0387  0.0431
 4009W        W19140   8.187  11.325   0.449  0.0976 -0.0885 -0.2830
 4010W        W19141  11.140  11.659  11.703 -0.0716 -0.0678  0.0130
 4011W        W19142   2.348  12.472   0.671 -0.0554 -0.0299 -0.0616
 4012W        W19143   5.924   0.610  11.293  0.0615 -0.0545 -0.2375
 4013W        W19144   6.416  14.283  11.763 -0.0874  0.1762 -0.0960
 4014W        W19145   1.398  17.625   5.080 -0.1532 -0.0198 -0.2150
 4015W        W19146  11.682   7.713  15.750 -0.0613 -0.0572  0.1750
 4016W        W19147   6.790   4.811  15.691 -0.5679 -0.0842  0.2115
 4017W        W19148  12.727   3.938  13.803 -0.3040  0.0674  0.0030
 4018W        W19149   8.806  16.048   2.827 -0.0953  0.1088 -0.1807
 4019W        W19150  11.485   7.534  11.276  0.4216  0.0529 -0.3203
 4020W        W19151  15.310  11.887   2.948 -0.2029  0.1649 -0.1145
 4021W        W19152   1.278   0.560  13.780 -0.0927  0.0500  0.0649
 4022W        W19153   9.635   1.185  10.052  0.1843  0.1577  0.3082
 4023W        W19154  16.911   6.682   1.430  0.0218  0.0070 -0.0462
 4024W        W19155  10.710  13.283  13.092  0.1945 -0.0836  0.1837
 4025W        W19156  18.310   7.088  15.066 -0.0301  0.0335  0.0956
 4026W        W19157   7.450   1.771   2.632  0.0166 -0.1414  0.2033
 4027W        W19158   6.484   8.772  15.684  0.2255 -0.0444 -0.1238
 4028W        W19159   6.578  15.403   2.232  0.2839  0.1570 -0.1444
 4029W        W19160   1.509  15.346   0.098  0.0099  0.2020  0.1704
 4030W        W19161  15.825  12.226   2.334 -0.0142  0.1559 -0.2539
 4031W        W19162   0.722   3.671   1.436  0.0240 -0.1821 -0.1459
 4032W        W19163   0.864   4.748  10.943 -0.1541  0.0565  0.0905
 4033W        W19164  17.155  15.515   2.983  0.1210 -0.1305 -0.0307
 4034W        W19165   0.925   6.201   5.191  0.1574  0.0637 -0.0462
 4035W        W19166   8.729  13.601   4.971 -0.2826 -0.3401  0.1936
 4036W        W19167   2.901   6.852   3.088 -0.0957  0.2214  0.2617
 4037W        W19168   9.286   9.359  13.493  0.0844  0.0948  0.0021
 4038W        W19169  10.487  15.351   1.800 -0.4930  0.0834 -0.1079
 4039W        W19170  10.456   5.841   5.405 -0.4306  0.1658  0.1893
 4040W        W19171   7.425  10.215  11.048 -0.2395 -0.1040  0.0336
 4041W        W19172  17.533   9.144   5.450  0.0763 -0.0144 -0.1356
 4042W        W19173  11.712  14.198   0.566 -0.1561  0.2579  0.1684
 4043W        W19174   5.440  13.969  13.588  0.1789  0.0450 -0.0594
 4044W        W19175   6.447  14.878  14.779 -0.0377 -0.0346  0.0504
 4045W        W19176  16.705   1.250   0.247 -0.3010  0.0210  0.4754
 4046W        W19177  11.058  17.885   2.437 -0.3117  0.1579  0.1599
 4047W        W19178   9.715   9.028   1.643 -0.1029 -0.0093  0.2644
 4048W        W19179   6.214  16.923   3.814  0.2118 -0.1551 -0.2626
 4049W        W19180   8.750  14.097  12.394  0.3117  0.3234 -0.3850
 4050W        W19181   7.463  11.842   5.067  0.0398 -0.0891 -0.0884
 4051W        W19182  12.521   3.076  13.300  0.1139 -0.0579  0.1682
 4052W        W19183   9.066  14.217  11.086 -0.0453  0.1976  0.1928
 4053W        W19184   8.806  15.828  12.584 -0.2406 -0.1727 -0.0486
 4054W        W19185  14.135  14.313  14.108  0.3056 -0.0259  0.1909
 4055W        W19186  18.060  13.120  15.282  0.0719  0.0401 -0.3065
 4056W        W19187   8.430   9.964  13.572 -0.1210  0.0025  0.0343
 4057W        W19188  11.531   9.767  15.472 -0.2367 -0.0908 -0.2461
 4058W        W19189  17.110   9.551   0.989  0.0562 -0.3630  0.1946
 4059W        W19190   5.858   5.098  14.891  0.1886  0.0561  0.4189
 4060W        W19191  12.378  15.400  15.349 -0.0558  0.0754  0.1042
 4061W        W19192  10.258  11.187   0.518 -0.3061  0.2649  0.0403
 4062W        W19193  16.410  18.093   4.695  0.1754  0.1524 -0.1914
 4063W        W19194  16.660   0.237  11.079  0.0329  0.0078  0.0476
 4064W        W19195  13.304  11.200   1.029 -0.3324 -0.2502  0.1856
 4065W        W19196   2.371   2.976  11.872 -0.0413 -0.4136  0.1108
 4066W        W19197  11.812   5.272   4.418  0.1290  0.1331 -0.0842
 4067W        W19198   0.073   1.589  14.401  0.0865 -0.0451  0.5489
 4068W        W19199   5.602   2.972   4.181 -0.0794 -0.0650  0.0763
 4069W        W19200   7.932  15.568  13.079 -0.2724  0.1135  0.0194
 4070W        W19201   1.385  13.295  15.654  0.2785 -0.0968  0.0077
 4071W        W19202  13.754  15.079   2.479  0.1195 -0.4632  0.0188
 4072W        W19203  14.759   5.690  12.698  0.0603 -0.3268  0.3615
 4073W        W19204   2.252  17.142  14.336 -0.2345  0.0053 -0.1163
 4074W        W19205   0.380  17.115   1.374 -0.3920  0.1107  0.0198
 4075W        W19206  17.728  15.495  12.229  0.3027 -0.1130  0.0390
 4076W        W19207  16.317   5.622   0.250 -0.1898  0.0848 -0.1668
 4077W        W19208   1.017  15.259  13.509 -0.0382 -0.2749  0.3064
 4078W        W19209   7.129   1.938  10.776  0.0801 -0.0008  0.0357
 4079W        W19210  13.549   5.404   2.170 -0.0981  0.0188  0.0256
 4080W        W19211  10.893   6.767  12.023  0.1643  0.3081  0.1304
 4081W        W19212   1.487  16.709  13.181 -0.3009 -0.0722 -0.6294
 4082W        W19213  12.257   4.213  12.896 -0.1236  0.3566  0.1166
 4083W        W19214  12.099  17.292   2.511 -0.1864  0.1604 -0.1320
 4084W        W19215   8.254  14.107   3.323  0.2975  0.0336  0.2280
 4085W        W19216  14.184   0.831   2.781  0.1697  0.0555 -0.0123
 4086W        W19217   4.211   6.180   4.958  0.1966 -0.0319 -0.1754
 4087W        W19218  13.048  15.122  14.949 -0.0655  0.1563  0.2015
 4088W        W19219  11.208  16.869  14.016 -0.0275 -0.0450 -0.0755
 4089W        W19220   7.779   9.102  13.643 -0.3007 -0.2334  0.0192
 4090W        W19221   0.637  13.222   2.542 -0.1446 -0.2455 -0.1721
 4091W        W19222   1.377   7.114  13.782 -0.1286 -0.0225  0.3200
 4092W        W19223  17.986   3.960   4.529 -0.1341 -0.0720 -0.0992
 4093W        W19224   8.560  11.869   1.599 -0.0275 -0.1390 -0.2011
 4094W        W19225   2.001   7.956   3.245  0.2935  0.1757  0.0192
 4095W        W19226   1.939   8.956   4.481 -0.1665  0.3959 -0.0157
 4096W        W19227  15.651  16.631   9.935  0.1176 -0.3449  0.0757
 4097W        W19228   0.830  10.048  15.722  0.0109 -0.2029 -0.0208
 4098W        W19229   0.827  11.361  14.094 -0.1348 -0.3204 -0.1497
 4099W        W19230   4.001  14.284   1.457  0.0897  0.1732 -0.6248
 4100W        W19231   5.827  10.947  15.525 -0.1609  0.0147  0.2176
 4101W        W19232  11.026  18.075   0.685  0.2328  0.1085 -0.2109
 4102W        W19233   0.290  12.977   1.247  0.0645  0.0544 -0.1554
 4103W        W19234   4.337  17.613  15.334 -0.0376 -0.2581 -0.1544
 4104W        W19235  18.302  17.112  15.532  0.0643 -0.2317  0.3125
 4105W        W19236   7.593   2.619  10.051  0.1682 -0.2276 -0.0928
 4106W        W19237  11.156  13.279  12.646  0.3702 -0.3141 -0.0651
 4107W        W19238   2.732   6.044   3.881 -0.0765  0.2356 -0.4264
 4108W        W19239   0.993   6.866  12.781 -0.0689  0.2471  0.0333
 4109W        W19240   9.563   0.138   2.474 -0.0701  0.1354 -0.1068
 4110W        W19241  14.678   2.334  12.260  0.0626 -0.0493 -0.2567
 4111W        W19242  15.129   3.687   1.341 -0.3113  0.0240 -0.0199
 4112W        W19243   1.386  14.976  13.759 -0.1429 -0.1604  0.1003
 4113W        W19244   4.536  10.535   1.125 -0.0348  0.1677  0.0834
 4114W        W19245   8.309   4.486   3.114  0.1011 -0.1757  0.2305
 4115W        W19246  12.895  13.273   3.375  0.1063 -0.2050  0.2218
 4116W        W19247  14.973  12.989  12.742  0.0394  0.1907  0.1652
 4117W        W19248  13.119  18.174   3.605  0.3093 -0.1942 -0.0224
 4118W        W19249   9.463   4.573   0.511 -0.4299  0.0578 -0.1451
 4119W        W19250   9.051  17.518   2.820  0.1813  0.0072  0.1102
 4120W        W19251  13.529   3.597  12.616 -0.2426  0.0764 -0.1150
 4121W        W19252   3.047   8.074  14.908 -0.1715  0.0434  0.2039
 4122W        W19253   5.658   5.007  14.357  0.0174  0.3398 -0.1889
 4123W        W19254   3.214  17.326   4.068  0.0104  0.1477 -0.1384
 4124W        W19255  15.267   3.934   4.019 -0.3133 -0.1086  0.0579
 4125W        W19256  16.050   9.779  13.027 -0.0530  0.1507  0.1450
 4126W        W19257   9.110   4.452  15.500  0.0730  0.2529  0.3060
 4127W        W19258   7.697  10.623   0.697 -0.0421 -0.0459  0.1439
 4128W        W19259  13.131  17.248   2.972  0.1414  0.4703 -0.1263
 4129W        W19260   3.653   1.796   4.419  0.0668 -0.0977  0.0510
 4130W        W19261  13.979   2.096  13.991  0.1655 -0.2085  0.1666
 4131W        W19262  17.262   4.469   3.043  0.2401  0.4071 -0.1471
 4132W        W19263  10.300  10.045  14.548  0.3043  0.3116 -0.1089
 4133W        W19264   8.428   9.106  14.357 -0.1281  0.0488  0.1368
 4134W        W19265   9.389  17.701   3.129 -0.0461  0.1326  0.1952
 4135W        W19266   2.070  15.475   0.084  0.2290 -0.0795  0.2675
 4136W        W19267  13.922  18.402  11.245  0.0746 -0.0615 -0.1181
 4137W        W19268  11.762  15.257   3.326  0.0302  0.1902  0.1042
 4138W        W19269   6.855  11.235   1.209 -0.0055  0.0911 -0.0788
 4139W        W19270   4.922  12.331  15.714 -0.1148 -0.0607 -0.1788
 4140W        W19271  14.642   6.685  10.784 -0.0415  0.1660  0.2160
 4141W        W19272  11.331  15.505   4.771  0.0703 -0.2032  0.0383
 4142W        W19273  17.577   5.822   0.639  0.2417  0.1284  0.0062
 4143W        W19274  16.976   9.840   5.431 -0.0585  0.0351  0.4290
 4144W        W19275   5.460   4.563   2.012  0.0716 -0.1391 -0.2964
 4145W        W19276   3.126  18.192  11.532  0.1253 -0.0934 -0.1101
 4146W        W19277   1.108   9.914  12.956 -0.0018 -0.1294 -0.0493
 4147W        W19278  10.223  12.592   3.084 -0.0493 -0.3101  0.0441
 4148W        W19279   1.657   5.221   3.221 -0.0519  0.1630 -0.2438
 4149W        W19280  13.374  12.846   4.201  0.2383 -0.1764 -0.1735
 4150W        W19281  13.552  16.155   5.065  0.1448 -0.0981 -0.3792
 4151W        W19282   4.341  12.168  15.312 -0.0440 -0.2307 -0.2894
 4152W        W19283  17.753   9.501   3.311 -0.2941  0.0677 -0.2039
 4153W        W19284  13.668   2.585  14.705 -0.0765 -0.2564 -0.1829
 4154W        W19285   1.152  11.762  13.861 -0.1348 -0.1662  0.4372
 4155W        W19286  10.518  16.149  15.083  0.0557 -0.0144  0.0280
 4156W        W19287   6.747  11.062   0.062  0.4081  0.0064 -0.1980
 4157W        W19288  12.493   0.423   0.979  0.0259 -0.4453 -0.1033
 4158W        W19289   5.802   8.985   3.440 -0.0225 -0.2372 -0.0907
 4159W        W19290   1.195   9.096   5.852 -0.0810  0.1500  0.2110
 4160W        W19291   9.691   2.449  15.522  0.0732 -0.3452  0.0780
 4161W        W19292   7.071  17.004  12.925 -0.0472  0.1294 -0.2646
 4162W        W19293  12.465  14.527  14.794  0.0002  0.0537  0.3538
 4163W        W19294   7.869   6.215   4.391  0.0746  0.1713  0.0901
 4164W        W19295  15.174  13.972   0.773 -0.0485 -0.1703  0.0780
 4165W        W19296   8.022  12.017   0.120  0.0874 -0.0759 -0.0654
 4166W        W19297  16.914   4.354  13.120  0.0024 -0.2423  0.1533
 4167W        W19298   5.059   1.206   1.682  0.0307  0.5661 -0.0276
 4168W        W19299   0.793  16.634   3.572 -0.0937  0.0783 -0.0966
 4169W        W19300  13.290   6.266   1.770 -0.0272  0.2656 -0.1663
 4170W        W19301   3.099   5.178  10.181  0.0441  0.6091 -0.1694
 4171W        W19302  12.869   8.790   4.106  0.0075 -0.1532  0.1803
 4172W        W19303   4.247   4.566  13.877  0.1434  0.0827  0.4422
 4173W        W19304  16.391   7.829   0.249 -0.0865  0.2602 -0.2402
 4174W        W19305   0.293  16.537   3.928 -0.0052  0.1549  0.1185
 4175W        W19306  10.824   2.487  10.812  0.1369  0.1070  0.3240
 4176W        W19307   1.738   1.711  12.009  0.1238  0.0721 -0.0420
 4177W        W19308  12.063   2.263  11.407  0.2849 -0.2003 -0.1741
 4178W        W19309   9.936  13.667   4.464 -0.3971  0.0987  0.3140
 4179W        W19310   1.671  15.306   0.639 -0.0346  0.2221 -0.2590
 4180W        W19311   7.222  14.720  14.681 -0.0213 -0.0781  0.1197
 4181W        W19312  13.291  11.445   0.519  0.0238  0.1201  0.1701
 4182W        W19313  16.697   0.735  11.693 -0.0267  0.1142 -0.3041
 4183W        W19314  16.212   2.583  14.702 -0.4130  0.0140 -0.3400
 4184W        W19315   8.275  18.090   0.529  0.0920 -0.0312  0.4295
 4185W        W19316   9.536   0.762  15.664 -0.1216 -0.3175  0.4116
 4186W        W19317  16.933   7.384   5.091 -0.1467  0.0691  0.3091
 4187W        W19318   2.063   4.582  14.073 -0.3123 -0.0778 -0.3509
 4188W        W19319  18.523  13.501  13.100 -0.2290 -0.1652 -0.0592
 4189W        W19320  10.345  16.387  14.364  0.1904  0.3701 -0.2979
 4190W        W19321   6.517  15.885   3.149  0.0309 -0.0962  0.1550
 4191W        W19322  16.059  14.971   3.676  0.0866  0.1986 -0.2072
 4192W        W19323  10.142   2.232  11.450  0.0753  0.1699  0.2395
 4193W        W19324   4.058  11.346   3.833 -0.1259  0.0305  0.0511
 4194W        W19325  15.146   8.513   3.822  0.2967 -0.2010 -0.2213
 4195W        W19326   2.951   2.983   1.773 -0.1033  0.1134  0.0412
 4196W        W19327   1.100  18.476  14.796  0.1046  0.1410  0.0256
 4197W        W19328   9.604   9.586   4.762  0.3112  0.0408  0.0144
 4198W        W19329  13.112   3.158   3.473  0.0819  0.1660 -0.0112
 4199W        W19330   6.386  16.427  11.983 -0.0594  0.3338 -0.0470
 4200W        W19331  17.892  15.104   3.801  0.0695  0.1494  0.0209
 4201W        W19332   9.758   6.560  15.437  0.2045  0.0379  0.0174
 4202W        W19333   6.940   0.451   1.933 -0.0364 -0.0240 -0.3287
 4203W        W19334   1.876  14.029   2.193 -0.0188 -0.1585  0.0430
 4204W        W19335  14.002  11.354  15.217  0.0783  0.0709 -0.0144
 4205W        W19336   8.633   6.135   4.730 -0.2239  0.0193  0.0091
 4206W        W19337  11.873  12.280   4.317 -0.1990  0.1650  0.6326
 4207W        W19338   3.716   9.402  13.131  0.2447  0.0798  0.1328
 4208W        W19339  12.564   8.615  12.765  0.0173 -0.2172 -0.0271
 4209W        W19340   9.318  16.924   3.853 -0.2746  0.2440  0.0711
 4210W        W19341  14.324  15.282  10.840  0.3593  0.1291 -0.2518
 4211W        W19342   7.523   9.617   1.033  0.0696  0.0059  0.1039
 4212W        W19343  11.961   1.597  11.061  0.1569 -0.0360 -0.4319
 4213W        W19344   4.282  16.213  13.591 -0.2283  0.4371 -0.3971
 4214W        W19345   6.921   1.606  12.971  0.1336  0.0362  0.0350
 4215W        W19346   5.724   8.969  10.752  0.2121  0.1506  0.5021
 4216W        W19347  11.865  16.706   2.789 -0.0484  0.1739 -0.0840
 4217W        W19348   2.120   2.015  13.846  0.0239 -0.0202 -0.0945
 4218W        W19349  14.178  10.834  14.598 -0.1104 -0.2488  0.0339
 4219W        W19350  10.066   8.436  14.524 -0.0845 -0.3679  0.1443
 4220W        W19351   8.157  18.359   0.157  0.0065  0.1826  0.0283
 4221W        W19352   8.848   5.753   4.508  0.1081  0.2349 -0.1800
 4222W        W19353  18.417   5.857   0.824 -0.2072 -0.0464 -0.0125
 4223W        W19354   3.531  13.976  11.121 -0.1020  0.2527 -0.0352
 4224W        W19355  18.459   4.390   4.002  0.0245  0.2379 -0.1639
 4225W        W19356  11.767   3.989   0.260 -0.0888 -0.3157  0.1271
 4226W        W19357   5.117   8.459   4.106 -0.1234 -0.3337 -0.0412
 4227W        W19358   2.788   6.201   0.058  0.0466 -0.1815  0.1587
 4228W        W19359   6.207   1.801   0.894 -0.5652 -0.4370 -0.0435
 4229W        W19360  15.569  16.564   1.274  0.0716  0.2074  0.2775
 4230W        W19361   7.512  11.117  13.299 -0.0622 -0.2772 -0.0695
 4231W        W19362   4.248   6.021  12.415  0.1343  0.2347  0.1998
 4232W        W19363  18.303  14.681   3.268 -0.0100 -0.0240 -0.0127
 4233W        W19364   8.114  10.467  13.499  0.1697 -0.3397 -0.1912
 4234W        W19365  11.986   2.424  13.355 -0.0173 -0.0535  0.2961
 4235W        W19366   6.101  16.499   4.206  0.3392 -0.3513  0.0291
 4236W        W19367   7.865   4.671   4.217  0.3218  0.3322 -0.0863
 4237W        W19368  15.302  15.318   1.198  0.2458  0.2241  0.1786
 4238W        W19369   2.965  10.422  13.947 -0.1595  0.1884 -0.2657
 4239W        W19370   7.425  14.333   3.343  0.0739 -0.0153 -0.4935
 4240W        W19371  15.999   5.023   1.072 -0.2561  0.0037  0.0810
 4241W        W19372   8.630  12.658  10.854 -0.2034 -0.3422  0.0108
 4242W        W19373  15.588  16.253  11.292 -0.1617 -0.0155 -0.2517
 4243W        W19374   3.550   0.676   2.189  0.0626  0.0499 -0.0236
 4244W        W19375   5.191  16.358  14.263 -0.0075 -0.3527  0.4699
 4245W        W19376  10.806   9.555   1.114 -0.0418 -0.1528  0.1479
 4246W        W19377   3.155  15.330  15.434 -0.1868  0.0911  0.0262
 4247W        W19378   5.974   6.720   1.246 -0.2112 -0.0444 -0.1046
 4248W        W19379   3.205   4.945  12.493  0.2909  0.0372  0.1940
 4249W        W19380  10.565  18.303   2.219  0.1010  0.0827 -0.0065
 4250W        W19381   5.427   4.802   3.033 -0.0225 -0.0429  0.2044
 4251W        W19382   6.987   4.111  13.930 -0.1102 -0.1824  0.0553
 4252W        W19383   8.348   8.762  15.303 -0.0919  0.1182  0.2166
 4253W        W19384   7.507  11.999  10.684 -0.2951  0.4534  0.1568
 4254W        W19385   6.057  10.306   0.440  0.0859  0.0909 -0.4028
 4255W        W19386   0.800  13.388   3.025  0.0166 -0.1001  0.0555
 4256W        W19387   5.354   4.245   0.925 -0.3582 -0.0102 -0.0104
 4257W        W19388   3.757  16.164  15.346 -0.1909  0.3659  0.0675
 4258W        W19389  18.111   2.303   5.973 -0.2242  0.0832  0.1454
 4259W        W19390  10.256   3.529   0.665  0.0283  0.1155 -0.1172
 4260W        W19391  14.944  14.586   4.277 -0.1590 -0.1859  0.0499
 4261W        W19392   7.421   7.945  15.059  0.3179  0.1418 -0.0912
 4262W        W19393  13.955   1.586  11.772  0.2824 -0.1395 -0.1119
 4263W        W19394  16.315  13.305   4.728  0.0231 -0.1904  0.1327
 4264W        W19395   7.539   9.008  13.097  0.2430  0.1439  0.0365
 4265W        W19396  15.884  14.475  11.100  0.0778  0.0534  0.3168
 4266W        W19397  11.519  13.701   1.326  0.0754 -0.1244  0.1081
 4267W        W19398   7.731  12.174  12.906 -0.1613  0.0184  0.0283
 4268W        W19399  17.328  15.663   4.167  0.1623  0.3245  0.5027
 4269W        W19400  11.046   5.675   3.716 -0.0559 -0.0568 -0.0995
 4270W        W19401  17.086  10.920   3.146 -0.1556 -0.0304  0.1995
 4271W        W19402   4.974   9.519   4.950  0.1148 -0.1362 -0.0140
 4272W        W19403   8.783  15.084  13.883 -0.1484 -0.3270  0.1322
 4273W        W19404  12.493  12.014  11.847 -0.2046 -0.0707 -0.1643
 4274W        W19405  10.611   0.850  10.449 -0.2365 -0.1871 -0.0987
 4275W        W19406  15.956   4.179   1.026 -0.1242  0.2571  0.0687
 4276W        W19407  14.199   8.735  12.011  0.1521  0.1013 -0.0621
 4277W        W19408  14.962  10.505  14.082 -0.4277 -0.1545  0.3094
 4278W        W19409   4.714  13.154  12.443  0.1475 -0.1485 -0.3113
 4279W        W19410  10.922   3.992  14.552  0.0584  0.0308 -0.2740
 4280W        W19411  13.113  17.244  15.057  0.1711  0.1570  0.2536
 4281W        W19412  10.813   7.351   3.043  0.1809  0.3309  0.0907
 4282W        W19413  14.472   1.218   6.036  0.0127  0.1187  0.0930
 4283W        W19414   5.056   0.166   0.128  0.1758 -0.0990 -0.1532
 4284W        W19415   7.337  17.457  11.127 -0.4106  0.1727  0.1509
 4285W        W19416   1.234   6.171  14.152  0.1122  0.1272  0.0853
 4286W        W19417   8.773   2.102  10.900  0.0534  0.0363  0.2262
 4287W        W19418   3.804   6.961   6.244 -0.1523 -0.0101 -0.1444
 4288W        W19419   9.707   4.962   0.736 -0.2146 -0.3303 -0.2394
 4289W        W19420   7.213  11.708   0.419 -0.0144 -0.1454 -0.0081
 4290W        W19421   4.921   1.145  14.456 -0.4634 -0.1725  0.1343
 4291W        W19422  10.218   8.713  11.297 -0.0453 -0.0926  0.0027
 4292W        W19423   6.433   8.411   3.561  0.2344  0.0541 -0.1514
 4293W        W19424  18.308  12.657   6.048  0.3553 -0.3125 -0.2378
 4294W        W19425   7.477   7.866   1.090  0.0992 -0.1042 -0.1196
 4295W        W19426   4.206  14.825  13.251 -0.0133  0.0338 -0.0079
 4296W        W19427  17.680  16.737  10.276  0.1237 -0.2935  0.1210
 4297W        W19428   7.282   5.221   0.997 -0.2055  0.0457  0.1392
 4298W        W19429   5.697   3.453   5.212  0.3535  0.0177  0.1553
 4299W        W19430   5.054   2.633  12.406 -0.2139  0.0986  0.4136
 4300W        W19431  12.584   9.833   2.283 -0.2846 -0.1019  0.2306
 4301W        W19432   8.450  18.446   9.416  0.2994  0.1732  0.1340
 4302W        W19433  16.419   1.425   1.776 -0.0514 -0.1351 -0.3921
 4303W        W19434   0.751   8.671   3.845 -0.0501 -0.0499 -0.2904
 4304W        W19435  16.650   4.723  12.883 -0.3704 -0.0535  0.0880
 4305W        W19436  12.924  13.983   4.879 -0.2064 -0.1771  0.2800
 4306W        W19437   0.947   1.852   0.076  0.1065 -0.3340 -0.1556
 4307W        W19438  10.739   3.275  15.765 -0.3074  0.1872 -0.0342
 4308W        W19439   2.917   2.355  11.452  0.2743 -0.3816 -0.2527
 4309W        W19440   8.184   0.122   0.573 -0.3764  0.0921  0.1618
 4310W        W19441  14.274  15.044  13.793  0.2525 -0.1634  0.4204
 4311W        W19442  14.396   8.972   6.088 -0.1160  0.0947 -0.3040
 4312W        W19443  18.068  16.363   0.053  0.0707  0.2221 -0.2474
 4313W        W19444  10.380   6.341   4.252  0.0192  0.1085 -0.0604
 4314W        W19445  10.971   1.573  14.060  0.2868 -0.2827 -0.1991
 4315W        W19446  11.590   9.589  12.427 -0.2065  0.0093  0.2475
 4316W        W19447   1.833   1.183  15.313 -0.2226  0.0516 -0.1299
 4317W        W19448   2.646   0.202  11.476 -0.1941 -0.1245  0.0294
 4318W        W19449   7.592   6.748  15.615  0.3769 -0.0745  0.3538
 4319W        W19450  11.457   5.826   2.588  0.1199 -0.0215 -0.1085
 4320W        W19451   4.528   3.325  15.239  0.3002 -0.4565  0.1048
 4321W        W19452   3.734  13.124   0.123  0.0919 -0.3158  0.1323
 4322W        W19453  16.649   4.826   1.931 -0.2006  0.4230 -0.0036
 4323W        W19454  14.718  10.208   3.178 -0.1079 -0.1702  0.1324
 4324W        W19455   2.537  13.778  10.199  0.0948 -0.1358  0.1657
 4325W        W19456   6.253   5.533   5.018  0.1554 -0.3480  0.0813
 4326W        W19457  13.874   9.802  14.484 -0.1726 -0.1064 -0.0613
 4327W        W19458  13.746  13.095   4.908  0.0414 -0.0459 -0.0497
 4328W        W19459   2.710  17.278   2.596 -0.0762 -0.0715 -0.3526
 4329W        W19460  17.883  12.499  15.772  0.1131 -0.0156 -0.1075
 4330W        W19461  11.503  10.978  12.129 -0.4062 -0.0283 -0.1924
 4331W        W19462  10.941  17.707  11.038 -0.1416  0.0026 -0.0335
 4332W        W19463   7.936   2.766  14.955 -0.0143  0.1178  0.1658
 4333W        W19464  11.422  13.992   5.326  0.0474  0.1589  0.0398
 4334W        W19465   1.102   7.839   1.672  0.0926  0.2817 -0.0495
 4335W        W19466  15.775  11.102   2.257  0.0064 -0.1668 -0.3219
 4336W        W19467  13.759  16.963   9.795 -0.2130 -0.7789  0.0304
 4337W        W19468   2.090  14.749   3.870  0.1095 -0.3460  0.0740
 4338W        W19469  12.108   6.867   3.088 -0.1018 -0.0456  0.1002
 4339W        W19470   0.439   5.251   0.883  0.1329  0.0786  0.1177
 4340W        W19471   3.711  16.105   1.180  0.2291 -0.0187 -0.0498
 4341W        W19472  17.847   3.545  14.553 -0.2856 -0.4048 -0.1974
 4342W        W19473   0.744  10.047   2.199  0.1476 -0.3604  0.0377
 4343W        W19474   7.019   4.053  12.634  0.3315 -0.1056 -0.1431
 4344W        W19475   4.915  15.607  10.054 -0.2075  0.2182  0.4881
 4345W        W19476  18.118   3.411  11.106 -0.2292  0.2867  0.2472
 4346W        W19477   0.011  17.409   4.249 -0.0315  0.0845 -0.1690
 4347W        W19478   6.377   4.944   0.959  0.0096 -0.1105  0.0406
 4348W        W19479  12.928  17.542   5.024 -0.1362  0.0100 -0.2601
 4349W        W19480  10.736   3.679   4.650 -0.0452  0.1339 -0.0605
 4350W        W19481  12.085  13.202   3.772 -0.2455  0.2847  0.2006
 4351W        W19482   9.288  11.567   2.030  0.0787 -0.3437  0.2589
 4352W        W19483  15.896   7.616  15.446  0.0406 -0.1824  0.4282
 4353W        W19484   4.848   6.574  12.327 -0.2482  0.3170  0.0666
 4354W        W19485  11.535  10.037   2.372 -0.1630  0.1445  0.2130
 4355W        W19486   0.891   1.482  10.883  0.1714  0.1385  0.0172
 4356W        W19487   3.786   2.960   3.744 -0.1286 -0.0868 -0.0471
 4357W        W19488   7.544  13.658  13.865 -0.0934 -0.1090  0.0740
 4358W        W19489  11.264   6.949   2.279  0.1400 -0.2970 -0.0288
 4359W        W19490  15.262   0.665   0.468  0.2111 -0.2390 -0.1175
 4360W        W19491  12.323  15.549  11.385  0.3130  0.1853 -0.0646
 4361W        W19492  14.131   7.874   0.956 -0.4306 -0.1705 -0.1141
 4362W        W19493  17.145   4.821   0.425  0.0113 -0.0086  0.0386
 4363W        W19494  13.676   7.047   2.977  0.0915  0.0967  0.1804
 4364W        W19495  13.528  18.415   1.549  0.1590 -0.0851 -0.0815
 4365W        W19496  17.474   5.176  11.408  0.2798  0.0164 -0.2096
 4366W        W19497  15.109   6.584   3.141  0.2242 -0.2452  0.1746
 4367W        W19498  13.943   2.753   0.350  0.1112 -0.0248 -0.1740
 4368W        W19499   2.922   2.225   5.274  0.0245 -0.0116 -0.1311
 4369W        W19500  12.957  11.758   4.239  0.3591 -0.1981 -0.1267
 4370W        W19501   6.554  12.430   4.155  0.2423  0.0391 -0.0064
 4371W        W19502   6.969  11.051   4.619 -0.1430  0.1562  0.1539
 4372W        W19503   5.079   0.418   2.930 -0.0378  0.3645 -0.2844
 4373W        W19504   7.568  16.666  12.365 -0.0170  0.1889 -0.0264
 4374W        W19505  17.509  17.203   3.828  0.0152  0.0470  0.3476
 4375W        W19506   2.728   0.899   1.431  0.1852  0.3321  0.1867
 4376W        W19507  17.666   6.481  10.903  0.2846  0.2390 -0.1536
 4377W        W19508  12.751  13.373   1.492 -0.0623  0.1705  0.0101
 4378W        W19509   5.535   5.755  13.069 -0.1411 -0.0091 -0.2118
 4379W        W19510  16.996  11.039   4.629 -0.1599  0.2403  0.2489
 4380W        W19511  12.229   2.629   4.185  0.0821  0.5112 -0.3567
 4381W        W19512  13.470  10.006  14.515  0.0814 -0.0835 -0.2191
 4382W        W19513   4.248  14.094   1.868  0.1940 -0.0792 -0.0955
 4383W        W19514  17.534   9.406  10.907 -0.5334 -0.3206  0.2915
 4384W        W19515  12.791   0.212  14.209  0.0775 -0.1170 -0.2719
 4385W        W19516  10.017  16.170  15.264  0.1262 -0.0498  0.0595
 4386W        W19517  14.201   6.572   2.707  0.0362 -0.0619  0.0466
 4387W        W19518  11.070  14.326   3.790 -0.3242 -0.1178  0.0726
 4388W        W19519  16.621   9.084   0.268  0.0665  0.3933 -0.0382
 4389W        W19520   8.166  11.071   1.313  0.3664 -0.2611  0.3391
 4390W        W19521   1.075  12.733  14.478 -0.1051  0.0485 -0.1294
 4391W        W19522   2.182   2.265  12.006 -0.0213 -0.0677 -0.1553
 4392W        W19523   6.715   7.267   1.484  0.1415 -0.1471  0.1751
 4393W        W19524   9.488   2.363   2.831 -0.5782  0.5741 -0.2361
 4394W        W19525   6.359  17.024  13.548 -0.1655  0.3225  0.2365
 4395W        W19526   4.381  16.108   4.296  0.0710  0.1098 -0.1744
 4396W        W19527  15.167  12.240  12.972 -0.0375  0.1777 -0.1233
 4397W        W19528  17.964   2.574   4.981  0.1982 -0.2940  0.0796
 4398W        W19529   9.895   8.885  10.953  0.1000 -0.0692  0.1749
 4399W        W19530  14.146  17.624   2.708 -0.0831  0.0075  0.2267
 4400W        W19531   3.689   3.141   1.386 -0.0347 -0.0862 -0.0502
 4401W        W19532  13.963   6.149  10.985 -0.0235 -0.2667  0.0308
 4402W        W19533   6.622  16.459  15.492  0.3601 -0.2672 -0.0996
 4403W        W19534  10.190   3.544  15.626  0.1032  0.2216 -0.0073
 4404W        W19535   5.186   7.351  10.227 -0.3452 -0.0321 -0.1117
 4405W        W19536   0.028  11.157   4.896 -0.1598 -0.2628 -0.0523
 4406W        W19537   7.992   0.914   3.835 -0.1839 -0.2188  0.1102
 4407W        W19538  10.017  17.264  15.366 -0.1235  0.2485  0.1854
 4408W        W19539   2.303  11.857   4.699  0.1851  0.1405 -0.3233
 4409W        W19540   0.517  14.779  11.312  0.1900 -0.1704 -0.1542
 4410W        W19541   8.353   7.786   5.075 -0.2294  0.2070  0.0800
 4411W        W19542   1.255   5.838   5.361 -0.2306  0.2076  0.2422
 4412W        W19543  10.800   0.204   0.634  0.1412  0.2397  0.4427
 4413W        W19544   6.812  17.516  13.115 -0.1014  0.0472 -0.0446
 4414W        W19545   1.434   4.399   1.541 -0.1538  0.2213 -0.0797
 4415W        W19546  10.998  13.435   1.159 -0.3096  0.1650  0.0800
 4416W        W19547  15.314   8.693  11.386 -0.0916 -0.4341 -0.1361
 4417W        W19548  14.733   1.480  11.187 -0.4863  0.0910 -0.1807
 4418W        W19549   7.106  14.795   0.250 -0.1369 -0.3466  0.2739
 4419W        W19550  14.790   2.068  12.726 -0.1516 -0.0043 -0.0135
 4420W        W19551   4.400   5.848   1.224 -0.2033  0.0991  0.0333
 4421W        W19552   9.665  11.426  10.518 -0.1501  0.0774 -0.1769
 4422W        W19553  11.884  16.544  13.601 -0.1417  0.0986 -0.0597
 4423W        W19554   9.980   6.798   2.952 -0.1241 -0.0574  0.0088
 4424W        W19555   7.857  12.411  11.945  0.4176  0.1489  0.0402
 4425W        W19556  17.711   3.237  14.976  0.1643  0.2097 -0.0570
 4426W        W19557   3.835  12.126   3.080  0.0292  0.0249 -0.2758
 4427W        W19558  15.524   1.170  14.482 -0.1043 -0.2541  0.2251
 4428W        W19559  10.026  10.087  14.986  0.0981  0.1755  0.2103
 4429W        W19560  15.520  15.467  12.982 -0.1132  0.1631  0.1956
 4430W        W19561   3.139   1.668   3.664  0.0886  0.1838 -0.0966
 4431W        W19562  16.446  18.369   6.036  0.2317 -0.1317 -0.0642
 4432W        W19563  17.583   5.538  14.020 -0.3177 -0.1168 -0.0289
 4433W        W19564  17.006   4.553  10.720 -0.0640 -0.0666 -0.0761
 4434W        W19565   6.091  15.190  10.242  0.0616 -0.2177  0.0045
 4435W        W19566   2.574  14.238  12.505  0.0740 -0.0835 -0.1526
 4436W        W19567  14.381   0.126  11.122  0.0643  0.1463 -0.3793
 4437W        W19568   3.843   4.580  15.534  0.1986  0.1334 -0.0131
 4438W        W19569   1.727  15.143   3.881 -0.2100  0.0406  0.0724
 4439W        W19570  11.844  13.887  14.329 -0.0329 -0.1499  0.0478
 4440W        W19571  15.663   9.096  11.310 -0.0224 -0.1268 -0.0006
 4441W        W19572  12.116  16.751   2.316  0.0060  0.2716  0.0200
 4442W        W19573   8.555  11.092   2.758  0.0140  0.2038  0.0113
 4443W        W19574   0.303  15.076  13.155 -0.1470 -0.0385 -0.2256
 4444W        W19575   4.834   3.338   4.646  0.3010  0.0001 -0.0680
 4445W        W19576  16.896  11.566  12.244 -0.1868 -0.1279 -0.1886
 4446W        W19577  12.638   0.250   0.494  0.3388 -0.1580 -0.0873
 4447W        W19578   7.654   4.057   3.636 -0.0573  0.1311 -0.0082
 4448W        W19579  16.680   7.276   3.003 -0.2741  0.0012  0.2792
 4449W        W19580  10.305  10.387   1.147 -0.1050  0.3961 -0.1189
 4450W        W19581  14.224   0.609  15.080 -0.0522 -0.1447 -0.2387
 4451W        W19582  15.288  11.019  15.794 -0.0276 -0.1481  0.0016
 4452W        W19583  14.465  17.247   3.202  0.0358 -0.0292  0.0249
 4453W        W19584  14.523   5.577  15.025  0.0364  0.1388 -0.1716
 4454W        W19585   9.727  16.687   5.232  0.1942 -0.3071  0.1251
 4455W        W19586  14.497   3.641  13.020 -0.1730 -0.1292 -0.2115
 4456W        W19587   9.903  14.795  12.919  0.1703  0.0675 -0.0846
 4457W        W19588   3.638   7.701  15.529 -0.1499  0.1274  0.0795
 4458W        W19589  13.025   9.536   2.434 -0.2720 -0.2190 -0.2216
 4459W        W19590   8.872  12.530   2.326  0.0937  0.2416  0.1479
 4460W        W19591   0.902   3.022  15.797  0.1679  0.2081 -0.0934
 4461W        W19592   8.174   0.238  15.031  0.0981  0.4048 -0.1446
 4462W        W19593   1.959  15.928   1.222  0.0178  0.1625  0.1179
 4463W        W19594   8.436  12.885   1.279  0.3053 -0.0422  0.1399
 4464W        W19595  16.087   1.577  12.399  0.2724 -0.0517  0.3138
 4465W        W19596  10.912  13.731   3.977  0.2521 -0.1451 -0.5101
 4466W        W19597  14.882  12.217  15.468 -0.0476  0.0164 -0.0057
 4467W        W19598   2.716   4.893   1.273 -0.0572  0.5446  0.0373
 4468W        W19599   6.192  16.821  11.278 -0.0202  0.2297 -0.0891
 4469W        W19600  10.584   4.475  11.846 -0.0412  0.5510  0.2916
 4470W        W19601  10.523   6.241   5.192 -0.1219  0.2168  0.0779
 4471W        W19602   7.680  13.147  14.636 -0.0354  0.0404 -0.4232
 4472W        W19603   3.074  11.959  13.299 -0.0307  0.2816 -0.0764
 4473W        W19604   8.347  15.867   4.235  0.0224  0.1604  0.2022
 4474W        W19605   2.564   7.648   4.378  0.1705  0.1305  0.1714
 4475W        W19606  13.509   7.864   6.105  0.1302  0.1739  0.3603
 4476W        W19607  16.492  17.308   3.477  0.4494 -0.0486  0.2058
 4477W        W19608   1.462  12.246  13.020 -0.0118 -0.1035 -0.3751
 4478W        W19609   6.205   7.241  11.219  0.2357  0.0829 -0.1924
 4479W        W19610   8.102   2.129  12.150 -0.1913 -0.2210  0.2022
 4480W        W19611  14.597  11.415   3.672 -0.5541  0.1445 -0.1557
 4481W        W19612  15.112   5.624   4.240  0.1869  0.2223  0.0290
 4482W        W19613  14.140   7.706  11.894 -0.0642  0.0787  0.3161
 4483W        W19614  17.531  14.748   0.026 -0.0063 -0.1422 -0.1434
 4484W        W19615  14.179  18.401   0.881 -0.0971  0.2372  0.2034
 4485W        W19616  17.974  14.613   4.681 -0.2246  0.0899  0.1731
 4486W        W19617  13.028   9.859  14.299  0.0881 -0.0555  0.1919
 4487W        W19618   2.098   9.906  15.282  0.0695  0.0334 -0.0757
 4488W        W19619  14.830   1.563  12.721  0.0333  0.4072  0.0113
 4489W        W19620  11.846   2.126  10.218  0.2049  0.0913  0.0213
 4490W        W19621  11.905   6.027  15.576  0.0681 -0.3458 -0.1463
 4491W        W19622  11.532   2.906   2.403 -0.1355  0.4968  0.2335
 4492W        W19623  12.391   2.465   2.574 -0.0953 -0.2853  0.0907
 4493W        W19624   7.766   3.558   2.442 -0.3477 -0.1015 -0.1142
 4494W        W19625   6.006   6.165   3.111 -0.0950  0.0331 -0.1969
 4495W        W19626   4.488  14.670   5.521 -0.1817 -0.2438 -0.0332
 4496W        W19627  17.979  16.000   0.936 -0.3795 -0.2255  0.0480
 4497W        W19628   6.221  11.372  15.872  0.0831 -0.2657 -0.1327
 4498W        W19629  14.688  17.218  13.045 -0.0925  0.3343 -0.0124
 4499W        W19630   1.460   0.868   4.516  0.0489 -0.4628 -0.1887
 4500W        W19631   5.632  15.460  14.663  0.3907  0.0757  0.0726
 4501W        W19632   2.052  16.216  11.085  0.0513 -0.1986  0.0803
 4502W        W19633   8.149  18.299  10.996  0.0696 -0.1292  0.0026
 4503W        W19634  11.381   4.909   0.481  0.1243  0.3097 -0.1361
 4504W        W19635   9.954  17.592   2.295 -0.1087 -0.0753  0.0099
 4505W        W19636   8.388   1.703  14.798 -0.1737 -0.0123  0.1147
 4506W        W19637  10.037  17.216  12.857  0.0750  0.2690 -0.1580
 4507W        W19638   0.330   4.007   5.047 -0.0809 -0.4765 -0.0779
 4508W        W19639  15.372   3.804  13.978 -0.2818  0.0330  0.1834
 4509W        W19640   1.829  15.086  14.712 -0.3356  0.2703 -0.1483
 4510W        W19641   8.807  16.687   2.356  0.3948 -0.0851 -0.1137
 4511W        W19642  11.058  10.817  12.137  0.0220  0.3801  0.1732
 4512W        W19643  16.226  11.251  10.957 -0.1263  0.1380 -0.0736
 4513W        W19644   8.331  15.502  10.365  0.0932 -0.2570 -0.2398
 4514W        W19645  13.619  13.064  11.417 -0.0559 -0.2993  0.1881
 4515W        W19646  12.592   0.371  13.781 -0.0702 -0.1818 -0.0924
 4516W        W19647   6.409   7.261   1.874  0.0473 -0.0414 -0.1527
 4517W        W19648   1.893  15.785   1.767 -0.0791  0.2354 -0.0852
 4518W        W19649   1.093  17.602   3.686  0.0046 -0.2206 -0.4070
 4519W        W19650   9.721   0.130   4.291 -0.0903  0.0302  0.2296
 4520W        W19651  14.877  14.020  10.462 -0.4326 -0.0123 -0.1909
 4521W        W19652   7.486  11.129   2.633 -0.2120 -0.0870  0.0424
 4522W        W19653  15.238  13.972  15.641  0.1032 -0.2480 -0.0509
 4523W        W19654  10.889  13.771   2.024 -0.1839 -0.0415  0.1668
 4524W        W19655  14.058  13.607   5.466 -0.0490  0.0265 -0.0308
 4525W        W19656  15.835  14.248   2.185 -0.0586 -0.1082 -0.0392
 4526W        W19657  17.470   8.187   4.932  0.0588 -0.3853  0.1386
 4527W        W19658   7.406  18.236   3.759  0.2509  0.1288 -0.0154
 4528W        W19659   1.974  10.045  11.272 -0.0926 -0.2249 -0.0868
 4529W        W19660  11.870  17.074   4.510 -0.1736  0.2099  0.1024
 4530W        W19661   0.923   1.855   2.676  0.0819  0.3628 -0.0383
 4531W        W19662  11.357   7.080  13.221 -0.1570  0.0468 -0.2499
 4532W        W19663  11.819  12.503   5.795  0.2617  0.0890  0.1882
 4533W        W19664   8.949  10.802   1.030 -0.2220 -0.2820  0.0313
 4534W        W19665  17.475   2.142   3.886 -0.1650 -0.1357  0.1498
 4535W        W19666   8.959   4.066  14.836 -0.4518 -0.1763  0.1690
 4536W        W19667   6.058  15.238   2.123  0.1333 -0.0378  0.2375
 4537W        W19668   2.000  14.268   4.895 -0.0992 -0.5106 -0.0538
 4538W        W19669   5.310   5.736   5.363 -0.2806 -0.3790 -0.1693
 4539W        W19670  12.015  17.673   2.923  0.0151 -0.1248 -0.1082
 4540W        W19671   8.726   5.574  14.940  0.1239 -0.1167 -0.2319
 4541W        W19672  14.084   8.619   2.023  0.0645  0.1914  0.0329
 4542W        W19673   1.737  17.936   3.108 -0.2059 -0.1337  0.0928
 4543W        W19674  16.237   2.837   4.546 -0.0249 -0.1956 -0.2014
 4544W        W19675   0.975   6.524   3.594 -0.0241  0.1107  0.0049
 4545W        W19676   7.391  14.054   0.963 -0.1922  0.0291  0.1076
 4546W        W19677   3.615  15.349   0.248 -0.2185 -0.0583  0.2512
 4547W        W19678   3.167  16.918   4.669 -0.1841 -0.1137  0.0030
 4548W        W19679   2.201  12.869  11.350 -0.4117 -0.0437  0.0673
 4549W        W19680   6.137  15.900  12.636 -0.1820 -0.1137 -0.0911
 4550W        W19681   6.338  12.707   2.915  0.0580  0.1806  0.1003
 4551W        W19682   6.144  11.003  11.781  0.1033  0.0651  0.2567
 4552W        W19683  11.352  17.821  10.261 -0.0716  0.3401 -0.0302
 4553W        W19684  14.725  17.707   1.373  0.1769 -0.2124 -0.3662
 4554W        W19685   9.912   6.046  12.720  0.3164  0.1166 -0.0348
 4555W        W19686  12.201   2.234   0.580  0.1147  0.2198  0.4435
 4556W        W19687   5.238  13.846  13.071 -0.0370  0.0696  0.0970
 4557W        W19688  16.128   6.925  12.593 -0.2997  0.3165  0.1184
 4558W        W19689  11.775  16.674  14.831  0.0088 -0.2162  0.0767
 4559W        W19690   0.063  14.839  14.933 -0.0433  0.0643 -0.2505
 4560W        W19691   0.622  16.570   4.613 -0.1784 -0.0725 -0.0061
 4561W        W19692  15.017   2.220   1.241 -0.1732 -0.1402 -0.0418
 4562W        W19693  15.550   3.592   2.596  0.1052  0.0168 -0.0429
 4563W        W19694  17.659   1.874  12.743  0.2532 -0.0692  0.1103
 4564W        W19695   1.414  14.032  10.980  0.3071 -0.0890 -0.1387
 4565W        W19696  10.155  12.176   2.866 -0.1268  0.0728  0.1165
 4566W        W19697   0.107  11.721   5.151 -0.0402 -0.1187 -0.3261
 4567W        W19698  17.150  13.794   4.596 -0.1371 -0.2626  0.0132
 4568W        W19699  17.554  12.756   2.388 -0.2721  0.3587 -0.0064
 4569W        W19700  16.767  11.710  15.296  0.2289  0.0538 -0.0781
 4570W        W19701  11.950   4.934   4.736  0.3689  0.1046 -0.1676
 4571W        W19702  15.352   9.791   3.803  0.0440 -0.1970  0.1626
 4572W        W19703  15.275   2.993  14.605  0.0149 -0.0242  0.1274
 4573W        W19704   8.507  17.913   1.713  0.0673  0.0144 -0.0303
 4574W        W19705  14.033   5.489   2.400  0.1185  0.0718  0.4392
 4575W        W19706  16.443   0.333   0.640  0.1459 -0.1846  0.0945
 4576W        W19707  18.495  15.380   1.303 -0.0887 -0.1101 -0.0519
 4577W        W19708   5.861  14.912  10.970  0.0064  0.0874 -0.3041
 4578W        W19709   3.021   9.281   4.438  0.4832  0.1900  0.2897
 4579W        W19710   5.866  17.908   3.956 -0.0864 -0.2029 -0.1853
 4580W        W19711   0.377   6.187  14.312  0.1284  0.1204 -0.0439
 4581W        W19712  14.390   1.156   4.960 -0.1772  0.2327  0.1077
 4582W        W19713  16.054   9.405  14.814 -0.2648  0.1738  0.0216
 4583W        W19714   3.832   1.024  13.329 -0.3526  0.0746 -0.1219
 4584W        W19715   2.900   4.423  15.405 -0.0272 -0.1953  0.0048
 4585W        W19716   5.179  17.452   5.164 -0.1499  0.0955  0.2394
 4586W        W19717   2.604   2.148  14.042 -0.0770 -0.1275 -0.2618
 4587W        W19718  13.468   1.349   4.179  0.0005  0.1836 -0.0266
 4588W        W19719   5.089   5.053  11.062  0.0321  0.3351  0.5100
 4589W        W19720   7.649  14.834   0.280  0.0953  0.2196  0.1304
 4590W        W19721   8.272  16.021  10.886  0.2388 -0.0994 -0.0214
 4591W        W19722   8.078  15.628   0.670  0.2733  0.2536 -0.2542
 4592W        W19723   4.403   9.276  12.035 -0.2097  0.2266  0.0944
 4593W        W19724  16.684   4.406   2.288  0.1696  0.3252  0.2214
 4594W        W19725   5.854   6.799  10.823  0.2014  0.1489 -0.2427
 4595W        W19726  16.555   9.391   5.712  0.0803 -0.1209 -0.3751
 4596W        W19727  17.735   6.040   4.638  0.4100 -0.3200 -0.0431
 4597W        W19728   1.344   1.106   1.199  0.0741  0.3336 -0.2399
 4598W        W19729   0.396  16.589  13.960  0.0520 -0.0552  0.0274
 4599W        W19730   9.642   7.617  11.475 -0.3347 -0.0652 -0.0042
 4600W        W19731  17.211  11.876   6.126 -0.2162 -0.1192  0.0244
 4601W        W19732  10.235   8.835  13.083 -0.0258  0.0357  0.1343
 4602W        W19733   5.288   8.507  12.340  0.1123  0.2422 -0.0648
 4603W        W19734   8.035  10.286   2.383 -0.1556  0.2689  0.0927
 4604W        W19735  10.027   3.294   4.204  0.4701  0.0228  0.0989
 4605W        W19736   2.477  12.424  11.511  0.1078  0.0338  0.2654
 4606W        W19737  16.403   2.772   5.098 -0.0979  0.2574  0.1718
 4607W        W19738   5.755   4.576   3.962  0.2203 -0.1978 -0.1448
 4608W        W19739  15.551  11.943  13.291 -0.0478 -0.1178 -0.0029
 4609W        W19740  11.041   2.716  14.362  0.2657  0.1252  0.4016
 4610W        W19741   3.096  11.070   5.317  0.1535 -0.0175  0.1145
 4611W        W19742   9.136   7.070   1.475  0.1734  0.0715 -0.0900
 4612W        W19743   1.877   9.763  14.788  0.1647  0.4178 -0.2746
 4613W        W19744   6.431   9.834  12.053 -0.0247  0.1713 -0.1376
 4614W        W19745  13.658  16.513   5.546 -0.1045 -0.0602  0.0803
 4615W        W19746   6.466   7.782  14.616 -0.0486  0.1377 -0.0090
 4616W        W19747   7.944  10.257   4.978  0.1880 -0.0576 -0.4439
 4617W        W19748   3.201   0.601   0.431  0.1204 -0.1208 -0.0130
 4618W        W19749   7.964  13.765   4.286  0.3300 -0.0208 -0.0028
 4619W        W19750   4.082   9.515  14.647  0.2936  0.0835 -0.0627
 4620W        W19751   9.860   7.962  13.952 -0.0768 -0.2479 -0.2372
 4621W        W19752   6.063   8.771  13.137  0.0574  0.5226  0.3930
 4622W        W19753  16.873  16.252  11.230  0.0360  0.1592  0.2555
 4623W        W19754  16.739  17.046   1.919  0.0740 -0.2561 -0.0239
 4624W        W19755  15.049  14.279  14.728  0.0722  0.2650  0.1221
 4625W        W19756   5.278  17.762  10.786 -0.3886  0.2059  0.1532
 4626W        W19757  10.574   1.301  13.840  0.0591 -0.2174  0.0950
 4627W        W19758   3.656  15.950   4.885  0.0783  0.2075 -0.0724
 4628W        W19759   1.190  17.724   0.594 -0.1891  0.0746  0.0100
 4629W        W19760  17.477  18.023  14.122 -0.0956  0.1102  0.0992
 4630W        W19761   8.087  14.678   1.600  0.0251 -0.1453 -0.2139
 4631W        W19762  15.517  17.732   5.000 -0.1525  0.1182 -0.4043
 4632W        W19763   0.619  11.533   5.929 -0.0923  0.0777  0.2595
 4633W        W19764  11.916  17.416  10.549 -0.1008  0.0746  0.0362
 4634W        W19765   8.267   7.075   1.713  0.1358 -0.4728  0.0432
 4635W        W19766   1.779   7.854  14.109  0.1351 -0.0369  0.1655
 4636W        W19767  16.184   2.363   3.109  0.1940 -0.2644  0.0409
 4637W        W19768  14.158   8.225  15.624 -0.0399  0.1675 -0.2830
 4638W        W19769   6.079  16.612  13.783 -0.1189  0.2311 -0.0082
 4639W        W19770  11.480  10.162  11.562  0.0783  0.0584  0.0492
 4640W        W19771   3.167  14.791  12.162 -0.1774  0.2177 -0.0708
 4641W        W19772  15.001   7.169   1.511 -0.1186 -0.1123  0.1198
 4642W        W19773  10.452  12.075   3.627 -0.2024  0.1667 -0.0463
 4643W        W19774   8.472   4.097  14.758  0.2553 -0.4866 -0.0543
 4644W        W19775   0.146  13.268   3.551 -0.1058 -0.1907  0.1075
 4645W        W19776  13.347   3.623   0.719  0.1645  0.2919  0.2753
 4646W        W19777  11.440  13.588  12.357  0.0283  0.0194 -0.0059
 4647W        W19778   2.609   3.002  11.081  0.2103 -0.1475  0.1746
 4648W        W19779   8.741  10.049  14.028  0.0788  0.1112  0.3992
 4649W        W19780  15.687   3.142   5.365  0.0962  0.3031  0.0200
 4650W        W19781   4.641  12.536   5.366  0.2246 -0.4710 -0.0849
 4651W        W19782  10.461   2.506  10.472 -0.3036 -0.0046  0.1028
 4652W        W19783  15.045  14.104   0.258  0.1536 -0.1271  0.1127
 4653W        W19784  18.303  14.402   2.243  0.0722  0.0962 -0.3817
 4654W        W19785   4.783   4.189   5.606 -0.1665  0.3901 -0.1191
 4655W        W19786  14.138   5.741   3.938  0.0225  0.0605 -0.0699
 4656W        W19787  10.992   5.033  14.560 -0.3087  0.0044 -0.1122
 4657W        W19788  13.777   0.797   4.838  0.1285 -0.1136  0.0688
 4658W        W19789  12.655  14.658  11.792  0.0956  0.2931 -0.4435
 4659W        W19790   2.334  17.513  11.952 -0.0952 -0.1797  0.0514
 4660W        W19791  12.956   6.737   0.125  0.2589 -0.1749 -0.1707
 4661W        W19792   6.149   8.468  12.713  0.1865 -0.0417 -0.1664
 4662W        W19793   9.402   9.673  14.531  0.2316  0.0041  0.1575
 4663W        W19794  18.526   0.628   2.845 -0.3038  0.1832  0.0932
 4664W        W19795  11.330   4.353  12.662 -0.1009  0.1621 -0.3055
 4665W        W19796   2.163   9.134   2.494 -0.2507 -0.0395 -0.1205
 4666W        W19797  17.626   0.755   1.644 -0.1871 -0.0268 -0.3937
 4667W        W19798  12.640   5.002  14.738  0.0788 -0.1121  0.2394
 4668W        W19799   0.232   3.495  14.718  0.0672 -0.0460 -0.1703
 4669W        W19800   1.838   1.877   1.260 -0.3283  0.0571  0.0537
 4670W        W19801   0.540  14.897   5.025  0.4043  0.0637  0.0203
 4671W        W19802   7.430   0.649  15.201 -0.1965  0.2018 -0.1740
 4672W        W19803  15.851  12.968  12.142  0.4985  0.0767  0.2770
 4673W        W19804   8.654  18.190   3.306 -0.0381 -0.3118 -0.3699
 4674W        W19805   9.322  15.847  13.475  0.1033  0.0611  0.1006
 4675W        W19806  14.730  12.059   4.129  0.2168 -0.0884 -0.0198
 4676W        W19807  12.212   7.794   1.209  0.0795  0.0434  0.0744
 4677W        W19808  14.721  16.777   5.537 -0.1667 -0.1192 -0.0780
 4678W        W19809   5.895   4.460  13.101  0.1962 -0.0130  0.1525
 4679W        W19810  14.964   7.530   1.164  0.0627  0.2416 -0.2386
 4680W        W19811  14.211   5.401  14.360  0.1682  0.0260  0.3556
 4681W        W19812   4.434  15.715   1.103  0.3676 -0.2871 -0.0452
 4682W        W19813  14.484  12.133  13.324  0.0495  0.0122  0.1843
 4683W        W19814   7.769   3.129  15.852  0.0955  0.1932 -0.0340
 4684W        W19815  17.646   0.827  10.994 -0.1982 -0.1356  0.0033
 4685W        W19816  17.109  16.442   0.964  0.1399 -0.1507 -0.1202
 4686W        W19817   5.257   1.926  13.204  0.0683 -0.0052 -0.0090
 4687W        W19818   4.528   2.845   0.894 -0.1657 -0.2197  0.2069
 4688W        W19819   2.757  11.634   4.815 -0.2239 -0.2568 -0.1397
 4689W        W19820  13.727  10.250  11.702 -0.1079 -0.1640  0.0556
 4690W        W19821  13.522   9.121  13.368 -0.0024  0.0595  0.1705
 4691W        W19822   3.225  12.464   2.216  0.1418 -0.0175  0.1701
 4692W        W19823   1.918   0.982   3.380 -0.0981  0.0791 -0.1579
 4693W        W19824   4.525   1.328  12.031 -0.3001  0.2087  0.1563
 4694W        W19825  17.689  11.648   0.789  0.3463  0.1393  0.1389
 4695W        W19826   7.104   4.947   0.183 -0.0065  0.0021  0.0941
 4696W        W19827  16.603  13.197  15.892  0.1997  0.1742 -0.2422
 4697W        W19828   4.600  11.312  14.911 -0.1297 -0.1733 -0.0286
 4698W        W19829   8.744  14.989  15.686 -0.2755  0.0034  0.1674
 4699W        W19830   9.431   2.424  13.615 -0.4193 -0.3594  0.1089
 4700W        W19831  17.208  18.494   2.049  0.0710 -0.0474 -0.2163
 4701W        W19832  18.341   3.030  10.934  0.0307 -0.1879 -0.1209
 4702W        W19833  14.120  16.354  13.759  0.3463  0.2872 -0.1944
 4703W        W19834   4.462   3.667   1.115 -0.0804 -0.3245 -0.2932
 4704W        W19835  10.325   4.175  14.933 -0.1524  0.0544 -0.1888
 4705W        W19836  11.824  16.421  10.518  0.3866 -0.1720 -0.1460
 4706W        W19837   6.221  18.055   0.252 -0.1552  0.2388 -0.1985
 4707W        W19838  11.632   1.680   4.499  0.0654  0.0725 -0.2349
 4708W        W19839   7.477   0.057   2.598 -0.0619  0.0690  0.0833
 4709W        W19840   0.198   8.615   4.227 -0.0882  0.1955  0.3112
 4710W        W19841  14.219   0.829   3.293 -0.1943 -0.0777 -0.0186
 4711W        W19842   2.672  12.311   6.382  0.3157 -0.1279  0.0798
 4712W        W19843   2.636   0.976   2.156  0.1175  0.2438 -0.0491
 4713W        W19844  16.456   5.557  15.364 -0.0356 -0.0148 -0.0356
 4714W        W19845   8.174  17.239   2.493 -0.2188  0.1223  0.1010
 4715W        W19846   6.979  11.908   4.792 -0.4608 -0.1886  0.0719
 4716W        W19847  13.115   5.077  14.886 -0.1556 -0.1506  0.0590
 4717W        W19848  14.520   5.613   2.472  0.1908 -0.0979 -0.0153
 4718W        W19849  14.483   6.677  14.014 -0.1741  0.1821  0.0717
 4719W        W19850  15.749  16.224   3.539 -0.2490  0.1454 -0.0448
 4720W        W19851   0.258   3.663  12.460  0.0534 -0.1224  0.1011
 4721W        W19852   7.094  18.017   1.278 -0.2364 -0.0630  0.0999
 4722W        W19853  12.214  11.159  13.374 -0.3717  0.0160 -0.1271
 4723W        W19854  11.247  14.591   1.883  0.0801  0.0211  0.0301
 4724W        W19855  12.840   3.199  12.356  0.1169  0.1371 -0.1560
 4725W        W19856   3.113  15.411   0.062  0.0828  0.0944  0.2488
 4726W        W19857  17.051  10.261  11.551  0.0171  0.0062 -0.2213
 4727W        W19858  17.947   7.003   5.974  0.0945  0.1094 -0.2112
 4728W        W19859  12.575  10.868  13.611  0.1802 -0.0849 -0.2649
 4729W        W19860   3.221   2.130   2.163 -0.3338 -0.0991  0.1281
 4730W        W19861  11.573  17.736   0.748 -0.0765  0.0532 -0.0811
 4731W        W19862  12.344  13.949  13.934 -0.0457  0.0036  0.2580
 4732W        W19863   1.338  10.863  11.919  0.2553 -0.0487 -0.0919
 4733W        W19864  15.367  16.229   4.947 -0.2175  0.1742 -0.1603
 4734W        W19865  10.486   7.026   0.082 -0.0861 -0.4119  0.1017
 4735W        W19866  13.659  10.394   1.573  0.2573 -0.1431 -0.2762
 4736W        W19867  12.500  14.043  15.743 -0.0502  0.3935  0.1886
 4737W        W19868   4.244   1.482   0.439  0.0120 -0.0496 -0.0367
 4738W        W19869   7.789  14.960  11.948 -0.1886 -0.1710 -0.0097
 4739W        W19870  10.613  15.251  14.407  0.1661  0.0713  0.1453
 4740W        W19871   9.639   4.729  12.719 -0.0496  0.0889  0.0096
 4741W        W19872   4.531   0.173  10.992  0.2491  0.3240 -0.0495
 4742W        W19873  15.398   9.223  13.898 -0.3627 -0.1328 -0.2118
 4743W        W19874   8.307   4.742  13.746 -0.2579  0.0484 -0.0897
 4744W        W19875   1.702  10.194   1.402  0.0592 -0.1059 -0.0202
 4745W        W19876   2.158   7.704   1.434  0.1832  0.0519  0.3803
 4746W        W19877  10.761   6.715  13.111  0.2765  0.1647 -0.2837
 4747W        W19878  13.383   0.092   0.747  0.1392 -0.2640 -0.0006
 4748W        W19879  12.963  11.960   2.230  0.2912 -0.2857  0.0733
 4749W        W19880  17.339  13.762   2.875 -0.1173  0.1293  0.0545
 4750W        W19881   9.288   4.456   5.638 -0.1483 -0.1135 -0.3126
 4751W        W19882   5.987   8.103   0.835  0.0750 -0.0124  0.1592
 4752W        W19883   1.009   0.696   1.294 -0.1655 -0.1076  0.0386
 4753W        W19884   3.465   1.294  15.784  0.0295 -0.2186 -0.1521
 4754W        W19885   3.972   2.476   3.030 -0.1809 -0.2081 -0.2558
 4755W        W19886   8.280   3.632   5.081 -0.1949 -0.0590 -0.0893
 4756W        W19887   6.715  13.308   1.064 -0.1482  0.4126  0.0472
 4757W        W19888  13.337  16.449   0.504  0.1069  0.0116  0.1159
 4758W        W19889   1.340  18.424   2.211 -0.1229  0.2495 -0.1007
 4759W        W19890  17.599  17.989   0.208  0.0740 -0.1884 -0.0758
 4760W        W19891   1.181   9.313   0.301  0.1184  0.0223  0.3160
 4761W        W19892  12.042  15.460   1.349  0.2036  0.2342 -0.2313
 4762W        W19893  11.450  14.122   1.092  0.0596 -0.2023  0.1321
 4763W        W19894   8.584   1.223  11.108 -0.2859 -0.0891 -0.1013
 4764W        W19895   9.232  11.669  10.735  0.0922  0.1773 -0.2346
 4765W        W19896   4.829   0.799   0.798 -0.0314  0.0023  0.1684
 4766W        W19897   4.463   4.972  13.690 -0.2121  0.2457 -0.1770
 4767W        W19898   9.706   9.307  14.515 -0.3608 -0.0367  0.3823
 4768W        W19899   3.209   4.327   3.628  0.1187 -0.0604 -0.2364
 4769W        W19900  10.259   3.401   1.455  0.1952 -0.0555  0.2658
 4770W        W19901   6.036   1.536   2.173  0.1656  0.0333  0.1119
 4771W        W19902  13.255   6.967   0.752 -0.0853  0.1800  0.2040
 4772W        W19903   9.045   8.451   1.256  0.0902 -0.3886 -0.0775
 4773W        W19904   2.024   0.603   3.685  0.1131 -0.0884  0.4213
 4774W        W19905   5.276  18.124   5.592 -0.0374 -0.2222 -0.2575
 4775W        W19906  17.959  13.212  14.224 -0.0106 -0.0652 -0.0700
 4776W        W19907   3.926   0.491  13.055 -0.0646 -0.2023 -0.0583
 4777W        W19908   3.037  13.825   1.374  0.2268 -0.2742  0.1253
 4778W        W19909   7.154   7.468  11.857  0.0988 -0.2186 -0.0253
 4779W        W19910   2.448  14.397  15.392  0.2608  0.2645 -0.1152
 4780W        W19911  17.779   4.445  14.103 -0.1005  0.1557 -0.2523
 4781W        W19912  10.170  10.869  12.279  0.3114 -0.0739 -0.1353
 4782W        W19913   2.357   1.186  11.836  0.3020 -0.0144  0.0053
 4783W        W19914   4.812   9.568   9.964 -0.1796  0.2884 -0.1885
 4784W        W19915  16.079  17.612  15.278  0.2323 -0.1153  0.0899
 4785W        W19916   6.717  14.068   0.411 -0.1549  0.3196  0.3516
 4786W        W19917   9.613   9.583   3.425  0.0601  0.0576  0.0369
 4787W        W19918   2.218  13.698  11.983  0.0265 -0.1802 -0.1043
 4788W        W19919  15.501   3.309  15.679 -0.0743 -0.3249  0.0857
 4789W        W19920   7.795  16.801  15.008  0.1103 -0.0256  0.1163
 4790W        W19921   5.235   5.291  13.082  0.4244  0.2079 -0.1094
 4791W        W19922   3.218  10.810   3.607 -0.3176  0.0982 -0.0356
 4792W        W19923   2.378  11.778   2.595  0.0611 -0.5039 -0.0587
 4793W        W19924  17.084  12.554  15.272 -0.2054  0.2174 -0.1310
 4794W        W19925   2.396   4.557  15.323 -0.0507  0.0777 -0.0489
 4795W        W19926   0.945  14.289  14.256  0.1205 -0.0367 -0.0053
 4796W        W19927   8.730   0.414  14.103  0.0226 -0.0344 -0.0102
 4797W        W19928   8.650   3.223   3.915  0.0439 -0.0116  0.3870
 4798W        W19929   4.636  17.953  11.517 -0.1579  0.0211  0.1856
 4799W        W19930   0.185  17.932  13.835 -0.3864  0.2199 -0.1560
 4800W        W19931  12.264   5.750   0.950  0.3007 -0.1359  0.0668
 4801W        W19932   9.447   6.627  15.001  0.2491  0.3838  0.0163
 4802W        W19933  18.331   9.682   5.298 -0.2217  0.4889 -0.2529
 4803W        W19934   6.150  13.251  12.566  0.0445  0.0269  0.1381
 4804W        W19935   3.068  14.497  12.602  0.1399 -0.0361  0.2469
 4805W        W19936  13.810   7.930   5.003 -0.1678  0.1393  0.1375
 4806W        W19937  17.997  13.309   5.536  0.0406 -0.0002  0.0169
 4807W        W19938  10.650  17.211  10.369 -0.0383 -0.3135  0.0831
 4808W        W19939   2.370  13.561  14.062 -0.1787 -0.0920 -0.0567
 4809W        W19940  15.538  12.900  14.574  0.1098  0.0750  0.0618
 4810W        W19941   3.769   2.128  14.756 -0.0738 -0.1060 -0.0154
 4811W        W19942  13.585   2.602  15.225 -0.1450 -0.4372 -0.1541
 4812W        W19943  15.639  15.168  14.411  0.3747  0.2614  0.2411
 4813W        W19944  18.108   8.901  14.082 -0.0371 -0.3677  0.1473
 4814W        W19945  15.725  16.694  14.769 -0.1113  0.0830  0.0992
 4815W        W19946   8.687  12.362  13.940  0.0933  0.1818  0.0120
 4816W        W19947   5.062  13.976  14.124 -0.2588 -0.0602  0.0285
 4817W        W19948   2.599  10.880   2.899 -0.0465 -0.4071  0.0955
 4818W        W19949  11.347   4.141  13.505  0.2034  0.1822  0.1617
 4819W        W19950   8.490  14.838   3.505  0.0423  0.1004  0.0236
 4820W        W19951   7.047   3.225   2.114  0.0762  0.1128 -0.2288
 4821W        W19952  15.120  16.588  12.319 -0.2931  0.1935  0.1346
 4822W        W19953   3.221   6.042   1.986 -0.2121 -0.0265 -0.2657
 4823W        W19954   5.478   9.434  13.358  0.0657  0.0402  0.1921
 4824W        W19955   2.618  14.214  13.364 -0.0021 -0.2661  0.1349
 4825W        W19956   1.470   2.225  14.364 -0.0802 -0.3415  0.2311
 4826W        W19957   5.753  16.900   1.216 -0.1334  0.0127 -0.1698
 4827W        W19958   3.046   4.412  12.749  0.2333  0.1136  0.0710
 4828W        W19959   6.114   8.301   4.182 -0.0171  0.0975 -0.1327
 4829W        W19960  11.394   2.641   0.420  0.4476 -0.2420 -0.1222
 4830W        W19961  15.270   6.361  12.563 -0.0064  0.0548 -0.0485
 4831W        W19962   8.656   0.150   3.097 -0.1350 -0.2040  0.0366
 4832W        W19963  14.664  12.937   1.228 -0.2237  0.0895 -0.3493
 4833W        W19964  14.924   2.967   3.971  0.2318 -0.0391  0.0922
 4834W        W19965   3.037  15.842   1.853 -0.2348  0.1594  0.1126
 4835W        W19966  14.826  13.141   0.597  0.1416 -0.3938  0.1788
 4836W        W19967   0.931   6.528   1.493  0.2523 -0.0130  0.0978
 4837W        W19968  15.700  15.210   5.623 -0.1148  0.1279 -0.1708
 4838W        W19969   1.097  14.108   4.342 -0.0920 -0.0591  0.0741
 4839W        W19970   3.151   5.239  14.230  0.3206  0.2342 -0.2449
 4840W        W19971   7.178   5.704  13.342 -0.0918 -0.1696  0.1930
 4841W        W19972   5.546   8.830   5.876 -0.0031 -0.1864  0.0934
 4842W        W19973   3.914  14.171   3.282  0.4225 -0.0284 -0.1750
 4843W        W19974  13.802  12.665  15.456 -0.1557 -0.3410 -0.1004
 4844W        W19975   1.511  12.704  15.573 -0.3408 -0.0986 -0.2249
 4845W        W19976   4.117  12.540   4.506  0.0579 -0.2641 -0.1068
 4846W        W19977   7.966   8.850  14.331  0.2959  0.1116  0.0275
 4847W        W19978   3.846  15.302   3.795 -0.0800 -0.0371 -0.1819
 4848W        W19979  12.569   8.587  14.931  0.0521 -0.0969  0.2843
 4849W        W19980  13.125   9.249  14.130  0.1603  0.0769  0.0728
 4850W        W19981  16.317  16.290   0.199  0.0472  0.1112 -0.2689
 4851W        W19982   2.759  10.584  11.572  0.0267 -0.3119  0.1453
 4852W        W19983   2.920  15.787   3.674  0.0939  0.1401  0.0080
 4853W        W19984  14.169  13.621   0.557 -0.1637 -0.1372  0.1140
 4854W        W19985   6.861   6.521   5.222  0.0320  0.0820  0.0113
 4855W        W19986   0.835   2.671  11.081 -0.2371  0.1282  0.2482
 4856W        W19987   4.681   9.681  13.239  0.2277 -0.2252 -0.1476
 4857W        W19988   5.084  12.878  12.715 -0.0795 -0.0438 -0.0066
 4858W        W19989   2.859   4.543   3.292  0.0510  0.0922  0.0061
 4859W        W19990   1.418   6.283   5.433 -0.2635 -0.3730 -0.2264
 4860W        W19991  13.879  16.517   2.024 -0.1978  0.2028 -0.2423
 4861W        W19992   3.650  17.368   3.008  0.1283 -0.0046 -0.1550
 4862W        W19993   4.902  10.410  14.684 -0.0151 -0.1655 -0.1770
 4863W        W19994  16.800   2.959  13.267 -0.2708  0.1480  0.0480
 4864W        W19995  14.971   5.113   5.104  0.0511  0.0453 -0.1195
 4865W        W19996  18.531   8.794  14.703 -0.1248  0.0472  0.0078
 4866W        W19997   7.184   8.325  12.978 -0.3203  0.4714  0.2156
 4867W        W19998  17.440   4.225  12.217  0.3047  0.1473  0.1284
 4868W        W19999   8.836   9.667  13.670 -0.0280  0.0658 -0.0685
 4869W        W20000   6.811   0.609  11.794 -0.1104 -0.0038  0.0140
 4870W        W20001   2.506   2.412   9.976 -0.2049 -0.0846 -0.3254
 4871W        W20002   4.158   9.956   4.891  0.1286 -0.1990 -0.0217
 4872W        W20003  16.711  13.557  12.387 -0.0263 -0.2833  0.1283
 4873W        W20004  15.551  12.891  13.670 -0.2243  0.0339 -0.2067
 4874W        W20005  16.212  15.806  12.027  0.0452  0.0773 -0.1663
 4875W        W20006  16.523  16.048  12.347 -0.0378 -0.2340 -0.1483
 4876W        W20007   6.180  18.373   2.237 -0.0662  0.0329 -0.0796
 4877W        W20008  16.235  10.937  14.809 -0.3090 -0.0021  0.0005
 4878W        W20009   1.885   9.743  10.363 -0.3392 -0.1144  0.1392
 4879W        W20010   0.475  11.256   1.529  0.2128 -0.1355  0.2780
 4880W        W20011   6.371   9.993  14.811  0.0126  0.1303 -0.0816
 4881W        W20012   4.777   7.462   2.605  0.0826 -0.0764  0.1030
 4882W        W20013   5.687  16.546   0.219 -0.0212 -0.0363  0.0580
 4883W        W20014  13.884  13.018   4.290 -0.2237  0.2126  0.0190
 4884W        W20015   1.811  12.156  12.021  0.4750  0.1562 -0.0718
 4885W        W20016   4.044  14.729  14.485  0.0230 -0.1011 -0.1977
 4886W        W20017   4.553   5.917  14.607  0.0011  0.1217 -0.1653
 4887W        W20018   3.963   2.045  14.283  0.0533 -0.1576  0.2184
 4888W        W20019   6.475  12.761  13.933  0.3946 -0.0816  0.0670
 4889W        W20020   0.555   2.283  12.550 -0.0611 -0.0525  0.1380
 4890W        W20021  14.300   1.224  13.569 -0.0414 -0.0188 -0.2593
 4891W        W20022   0.552  17.863   3.441  0.1508  0.4793 -0.3620
 4892W        W20023  11.992   5.702   5.350  0.1345 -0.1430 -0.3104
 4893W        W20024   6.578  14.267   4.318 -0.2513 -0.2401  0.1731
 4894W        W20025  14.003   7.537  13.795 -0.2033  0.1574  0.1273
 4895W        W20026   5.885  17.132  13.453  0.2535 -0.0801  0.0205
 4896W        W20027   4.870   6.900  12.723 -0.1817  0.0134  0.0988
 4897W        W20028   5.666   3.720   6.024 -0.0617 -0.2960 -0.1731
 4898W        W20029   3.086   1.491  14.529 -0.2584 -0.0116  0.0884
 4899W        W20030   7.053  11.477  11.505 -0.3476 -0.2917  0.2277
 4900W        W20031   1.073   3.516   2.478  0.1785  0.5524 -0.5132
 4901W        W20032   7.555   2.946   3.065 -0.0406 -0.0003  0.1521
 4902W        W20033   5.531   4.790  12.306 -0.1390 -0.0293 -0.2940
 4903W        W20034   3.372  16.194  15.025  0.1466  0.3183  0.2953
 4904W        W20035   6.945  14.665   3.121 -0.1947 -0.2362 -0.2855
 4905W        W20036   8.334   8.353   3.374  0.0818 -0.1858  0.1317
 4906W        W20037   5.046   2.078  15.473  0.1223 -0.1524  0.0687
 4907W        W20038   8.224   6.913  14.582  0.1179 -0.2107  0.0819
 4908W        W20039  16.104  18.400  12.842  0.0210  0.1055  0.2790
 4909W        W20040  17.025   1.964  13.615  0.0092  0.0787 -0.2966
 4910W        W20041  17.489  17.191   5.667  0.1942  0.0892 -0.0046
 4911W        W20042   7.789   4.430  14.916  0.1798  0.1180 -0.2250
 4912W        W20043   5.420   1.014   3.300 -0.0390  0.2290 -0.1314
 4913W        W20044  12.067   7.673   0.278  0.1347  0.1605  0.0970
 4914W        W20045   8.827  14.622  13.618 -0.2589  0.2209  0.2010
 4915W        W20046  11.646   9.035  13.276  0.1920  0.2881 -0.0442
 4916W        W20047   7.462  11.130   4.767 -0.0073 -0.1349  0.0775
 4917W        W20048   0.656  12.491  11.396  0.0671  0.1414 -0.1764
 4918W        W20049   4.589   5.226  11.111 -0.3321 -0.0162  0.1227
 4919W        W20050  17.185   8.795   1.095  0.2404  0.0049 -0.2641
 4920W        W20051  14.729  13.498  13.642  0.0410 -0.0341 -0.0992
 4921W        W20052  11.892  10.822  14.198 -0.0023 -0.1493 -0.3055
 4922W        W20053   0.005  17.425   5.943 -0.0250  0.0188  0.0157
 4923W        W20054  18.054   8.722   1.616  0.0019 -0.0488 -0.0427
 4924W        W20055  10.212  13.180   4.485  0.3568 -0.2131 -0.1497
 4925W        W20056  12.852  12.468  11.599 -0.1505 -0.0134 -0.0029
 4926W        W20057   4.321   1.398   9.338 -0.1560  0.3748 -0.0783
 4927W        W20058  18.482  12.451  14.608  0.3008 -0.0572  0.1130
 4928W        W20059   4.590  15.338   1.348  0.0683  0.2106  0.0057
 4929W        W20060  10.501  11.190   5.991 -0.0565  0.0314 -0.0391
 4930W        W20061  11.233   2.577  15.298  0.1948 -0.0448 -0.4159
 4931W        W20062  17.380  12.643   0.726  0.2160 -0.2743 -0.0575
 4932W        W20063  15.962  11.386   0.038 -0.1818 -0.1882 -0.2008
 4933W        W20064   2.596  17.047  11.932 -0.2736  0.2720  0.2781
 4934W        W20065  12.675   2.029  11.749 -0.1332 -0.0449 -0.3352
 4935W        W20066   6.498  12.441   3.664 -0.2744  0.2072 -0.0243
 4936W        W20067   4.583   1.107  15.835 -0.2256  0.1744  0.0413
 4937W        W20068   4.591  10.927   1.921 -0.0118  0.1800  0.1737
 4938W        W20069   5.158   3.591   5.332  0.1987 -0.2546  0.1499
 4939W        W20070   6.474  10.002   5.840  0.4064 -0.1815  0.3294
 4940W        W20071   0.405   8.889   0.512 -0.2446  0.1028 -0.0358
 4941W        W20072   2.226   9.792   2.271  0.0365  0.3020  0.1405
 4942W        W20073  11.759  15.845   1.201 -0.0530  0.0880  0.0554
 4943W        W20074   2.243  16.512   3.742  0.2960 -0.1761  0.0954
 4944W        W20075   0.089   1.778   0.658  0.2785  0.2594  0.2362
 4945W        W20076   3.786   6.688  11.813 -0.0285 -0.0541  0.1662
 4946W        W20077   8.187  14.656  13.399 -0.3960 -0.1060 -0.0694
 4947W        W20078  17.596  11.396  15.767 -0.2415 -0.0666  0.1633
 4948W        W20079   0.215  11.046  15.824  0.1797 -0.3579  0.0214
 4949W        W20080  10.967   7.433   0.876  0.3055 -0.0460 -0.4204
 4950W        W20081  13.705   6.628  14.209 -0.0911 -0.0363 -0.2088
 4951W        W20082  17.953  12.980  14.767 -0.2417  0.1575  0.0029
 4952W        W20083   2.480  15.385  11.138  0.2170 -0.2215 -0.1932
 4953W        W20084  14.354  12.192   3.344 -0.2292  0.1987 -0.0337
 4954W        W20085   5.820   1.390  15.476 -0.0195  0.2042  0.0631
 4955W        W20086   1.902   2.350  14.205 -0.0834 -0.0274  0.0457
 4956W        W20087  15.501  10.682   0.283 -0.2667 -0.0503  0.3347
 4957W        W20088  15.099   2.668   1.042 -0.1438  0.1966  0.1408
 4958W        W20089   1.464  17.199   4.314 -0.0705 -0.2871  0.1328
 4959W        W20090  18.065  16.837  13.458 -0.0093  0.1026  0.1419
 4960W        W20091   9.091  16.463   2.706 -0.1298  0.2215  0.0451
 4961W        W20092   3.519   8.866   4.886 -0.2111  0.0713 -0.0559
 4962W        W20093   9.892  11.521  15.866 -0.1513 -0.2511 -0.0034
 4963W        W20094   6.018  18.158  11.017 -0.2844 -0.3590 -0.1036
 4964W        W20095   9.088  17.577   5.253 -0.0512  0.1666 -0.1476
 4965W        W20096   9.074   2.786   0.173  0.0030 -0.0517  0.2475
 4966W        W20097   2.614  17.480  11.046  0.2298  0.1482  0.2082
 4967W        W20098  14.319   5.488   2.916  0.0121  0.0346  0.1023
 4968W        W20099  14.282  16.696   0.190  0.0521  0.0934  0.1156
 4969W        W20100  15.178   9.803   2.814  0.2581 -0.1236  0.0793
 4970W        W20101   0.122   7.053   4.686 -0.1313  0.2699 -0.1102
 4971W        W20102   3.564   8.403   5.042 -0.0934  0.2461 -0.1863
 4972W        W20103   7.389   1.295   1.356  0.0752  0.1752 -0.1980
 4973W        W20104   9.418   9.342   1.300  0.1720 -0.0374  0.0686
 4974W        W20105   5.136  17.590   4.189 -0.2914 -0.0999 -0.0910
 4975W        W20106  13.778  10.400   2.083  0.1793  0.1841  0.1407
 4976W        W20107  10.664  12.125   0.728  0.1305 -0.3139 -0.1180
 4977W        W20108   1.571  13.968   3.931 -0.0532  0.4537 -0.0771
 4978W        W20109   8.958   6.528  12.423  0.1892  0.3684 -0.0600
 4979W        W20110   6.600  14.830   4.473  0.0828  0.0549 -0.1174
 4980W        W20111  12.432   5.625   2.227  0.0960  0.3737 -0.0407
 4981W        W20112   5.476   4.838   2.434 -0.1775 -0.0435 -0.1229
 4982W        W20113  15.110  18.078   5.105  0.1695  0.0052 -0.1024
 4983W        W20114   5.535  12.787  15.439 -0.1547 -0.0608  0.0922
 4984W        W20115   1.021   4.128  14.099 -0.0221 -0.1576 -0.1585
 4985W        W20116  14.346   6.004  11.737 -0.0050  0.6752 -0.0104
 4986W        W20117   6.815  11.400  15.574 -0.1215  0.5382  0.2206
 4987W        W20118  15.276   6.027  11.536  0.1645  0.1176 -0.3470
 4988W        W20119  16.270   7.309   1.777  0.1694  0.0068  0.2897
 4989W        W20120  13.662  12.698  13.256 -0.0753 -0.0940 -0.2791
 4990W        W20121  14.402  11.333  12.739  0.0055  0.0748  0.0707
 4991W        W20122   3.997  16.346  15.762  0.6172  0.3003 -0.1774
 4992W        W20123   5.683   0.040  13.304  0.2754  0.2622  0.0018
 4993W        W20124  16.809   2.699   1.785 -0.2564 -0.4198  0.3087
 4994W        W20125  13.887   1.533   3.978 -0.0454 -0.1553 -0.0413
 4995W        W20126   8.836   7.597  15.558 -0.4388 -0.1760  0.3787
 4996W        W20127  15.824   1.976   0.592 -0.1332  0.2334 -0.0691
 4997W        W20128  17.846  12.361  14.022 -0.1952  0.1152 -0.1139
 4998W        W20129  13.938   6.834   3.940  0.1055 -0.1814 -0.0417
 4999W        W20130   4.015   1.414   1.801  0.0078 -0.0228  0.0562
 5000W        W20131  11.730  16.230   4.775  0.2296  0.0026  0.2410
 5001W        W20132   5.412   1.778   5.152 -0.0311 -0.2113 -0.3902
 5002W        W20133   7.208  12.282  14.407 -0.0454  0.1267  0.1234
 5003W        W20134   2.736   8.219  14.551 -0.1657 -0.1009  0.2037
 5004W        W20135   7.135  17.890  12.851  0.0031  0.1037  0.3068
 5005W        W20136   9.077   3.260   3.318  0.0038  0.0588  0.0850
 5006W        W20137   2.345  15.287   2.350  0.3671  0.1427 -0.2988
 5007W        W20138  14.571  13.553  10.290 -0.0865 -0.1135  0.1663
 5008W        W20139   5.356  15.549   0.687 -0.0142 -0.3078  0.1388
 5009W        W20140   1.071  11.250  15.268  0.1368  0.1344  0.1243
 5010W        W20141   6.159  15.488   3.962  0.1957  0.3321  0.0438
 5011W        W20142   7.905  16.691   3.865  0.1795 -0.1429 -0.0845
 5012W        W20143   2.371   7.212  11.685 -0.2492 -0.0770 -0.2132
 5013W        W20144   6.855  17.368  13.668  0.2911 -0.1263  0.0889
 5014W        W20145  11.097  18.388   3.512  0.0702 -0.4447  0.1868
 5015W        W20146   2.907  12.174   5.841 -0.0984  0.1713 -0.2625
 5016W        W20147   4.626  17.167  12.207  0.0750 -0.2943  0.3180
 5017W        W20148   8.197  11.545  13.970 -0.0945 -0.0019 -0.1767
 5018W        W20149   8.731   5.599  15.727  0.1003  0.2040 -0.2697
 5019W        W20150   8.839  10.426   1.456 -0.0673 -0.1967 -0.1730
 5020W        W20151   8.186   9.011   1.616 -0.1175  0.0250  0.1579
 5021W        W20152   9.100   0.723  12.908 -0.3647 -0.1522  0.0367
 5022W        W20153   7.886   8.280  11.454 -0.1568  0.0754 -0.0821
 5023W        W20154  15.045   1.930   2.613  0.1930  0.2799 -0.1235
 5024W        W20155   9.948   7.829  15.794 -0.2091 -0.0344  0.2433
 5025W        W20156   1.515   6.505   0.049 -0.1123  0.1222  0.0655
 5026W        W20157   4.964  14.890   2.635 -0.0001 -0.0495 -0.0051
 5027W        W20158  10.554   2.913  14.370  0.0827  0.2350 -0.0642
 5028W        W20159   2.430   5.627  10.970  0.2203  0.5757 -0.0180
 5029W        W20160  14.701  11.506  14.240  0.0340 -0.1522  0.2322
 5030W        W20161  17.844  15.285   0.687  0.1538  0.0622 -0.1724
 5031W        W20162   6.608  12.275   2.330  0.0655 -0.0144 -0.2469
 5032W        W20163   4.882  10.849  15.040  0.2246 -0.2016 -0.0585
 5033W        W20164   1.798   6.547   3.059  0.0015 -0.2114 -0.1044
 5034W        W20165  18.186  14.635   5.401 -0.0964  0.0560  0.0560
 5035W        W20166  17.632   0.185   5.029 -0.3333  0.2185  0.0443
 5036W        W20167  18.000  11.056   1.526 -0.0156  0.2509  0.3530
 5037W        W20168  11.590  17.414  15.018  0.0383 -0.1620 -0.0538
 5038W        W20169   3.200   5.017   1.978 -0.1203  0.1762 -0.0407
 5039W        W20170  16.923  17.313   5.748  0.0910 -0.1711 -0.1870
 5040W        W20171  10.856   5.717   4.190 -0.0655  0.1444  0.0544
 5041W        W20172  14.840  16.674  15.434 -0.0818 -0.1089  0.0326
 5042W        W20173  13.644  16.100  12.897 -0.1657 -0.1204  0.0808
 5043W        W20174   4.018   4.045   1.130  0.0018 -0.1245 -0.1194
 5044W        W20175  10.874  14.505  14.943 -0.1290  0.0422  0.0453
 5045W        W20176   5.925   5.140   2.460  0.2717  0.0172 -0.2276
 5046W        W20177   1.573   0.942  11.622 -0.1998 -0.2946 -0.6666
 5047W        W20178  14.475   9.962  13.003 -0.0362  0.0865 -0.0129
 5048W        W20179  18.230   1.581  10.302  0.0477  0.1150  0.1426
 5049W        W20180  15.383   0.945   5.317 -0.2054  0.3085  0.1833
 5050W        W20181  11.300   3.357  12.719 -0.1932  0.0168 -0.0557
 5051W        W20182   9.601   1.303  11.490 -0.0536 -0.1153  0.1041
 5052W        W20183   7.922   7.700  12.704  0.2530  0.0373  0.1188
 5053W        W20184   9.158   5.152   5.389 -0.2213 -0.1499 -0.1868
 5054W        W20185  18.076   7.121  11.800  0.1579  0.2573 -0.0368
 5055W        W20186   3.152   5.630   0.865 -0.0143 -0.0125 -0.2878
 5056W        W20187  13.258   6.602  14.418  0.1463  0.0045 -0.2612
 5057W        W20188  11.400  15.620   0.733  0.3512  0.1365  0.1487
 5058W        W20189   5.332  16.890   4.304  0.1174  0.3533 -0.1389
 5059W        W20190   1.048  16.323  12.562 -0.1220  0.3598  0.4096
 5060W        W20191   4.416   4.325  14.391  0.0233 -0.3270  0.0359
 5061W        W20192   8.890  13.738  13.820 -0.1520  0.0029 -0.0062
 5062W        W20193   1.855   0.466  14.689  0.0736  0.0706 -0.2711
 5063W        W20194   4.982  13.112  15.310 -0.0583 -0.0076  0.1992
 5064W        W20195   5.288   6.248   5.243 -0.1567  0.3592 -0.2066
 5065W        W20196  18.420   1.737   2.136 -0.2544  0.0634  0.0856
 5066W        W20197   5.678  13.984   1.720  0.0366  0.3687  0.1391
 5067W        W20198  13.333   6.065   4.941  0.2807  0.4191 -0.0981
 5068W        W20199  15.974  10.293   3.871  0.1945  0.0534  0.0847
 5069W        W20200   2.365   1.721   3.278 -0.0043  0.3206 -0.1224
 5070W        W20201   2.372  16.239   2.497  0.1711  0.0425 -0.1818
 5071W        W20202   9.126  11.233   1.419 -0.3129  0.0081  0.2238
 5072W        W20203   9.228   8.829   0.179  0.0892  0.0669  0.2206
 5073W        W20204  17.868   5.874   3.174 -0.1978 -0.0697 -0.0629
 5074W        W20205  11.435  10.444  14.313  0.0743  0.0116 -0.1026
 5075W        W20206   6.032  17.627   5.297  0.1299 -0.2452  0.2753
 5076W        W20207   1.078   4.979  13.844 -0.1801  0.0226  0.0587
 5077W        W20208  18.234   7.196  13.614  0.0123 -0.1941 -0.1901
 5078W        W20209   6.155   7.292   2.890 -0.2996 -0.2852 -0.1442
 5079W        W20210  10.692  10.860   0.538 -0.1278  0.2559  0.0613
 5080W        W20211   5.637   7.132   5.667  0.0012  0.1871  0.2309
 5081W        W20212  16.189   8.898  14.121 -0.3220  0.0294  0.1179
 5082W        W20213  13.678   0.857  12.766  0.1093 -0.1225 -0.1226
 5083W        W20214   4.375   2.606   2.704  0.3545 -0.0987 -0.0887
 5084W        W20215   7.771  13.981   3.423 -0.0150 -0.0591  0.0721
 5085W        W20216   9.217   9.930  14.118 -0.0684  0.0339 -0.0538
 5086W        W20217   5.536  14.619  15.292  0.1233  0.2554 -0.2254
 5087W        W20218   6.134   1.333  14.917 -0.0921  0.3253  0.0476
 5088W        W20219  16.928   8.803  12.230  0.0152  0.0224  0.2223
 5089W        W20220   6.506   3.592  13.505  0.1386 -0.3930 -0.0109
 5090W        W20221  12.760  16.315  10.546  0.0120  0.0957  0.0215
 5091W        W20222   3.700   6.034   0.156 -0.0787 -0.0979 -0.0103
 5092W        W20223   0.359  10.883  15.266  0.2839 -0.0715  0.1047
 5093W        W20224   3.466   5.119  15.533 -0.0581  0.0351 -0.0175
 5094W        W20225   9.304  13.177  11.088 -0.1504  0.1676  0.0300
 5095W        W20226   7.948  12.145   1.584  0.1006 -0.1908 -0.2840
 5096W        W20227  13.593   1.726   5.294  0.1129 -0.2868  0.0325
 5097W        W20228  17.516  15.465   5.846 -0.4075  0.2361 -0.2084
 5098W        W20229  15.823  15.911  12.851  0.1052 -0.2081  0.0597
 5099W        W20230   4.737   5.745   1.985 -0.1398  0.0953  0.1651
 5100W        W20231  11.892  11.012   4.874 -0.1753 -0.1900 -0.1136
 5101W        W20232  11.825  18.520  10.497 -0.1494 -0.3010  0.0599
 5102W        W20233   3.663  15.663  11.599  0.3559 -0.0006  0.0544
 5103W        W20234   1.459  17.966  13.748 -0.2222  0.1236  0.0699
 5104W        W20235  16.927  16.712  10.910 -0.3241 -0.0101 -0.3398
 5105W        W20236  11.432   5.877  13.456 -0.0845  0.0258 -0.2679
 5106W        W20237  11.934  13.490  11.479  0.1724  0.2452  0.1028
 5107W        W20238  16.972  17.521  12.188  0.1176 -0.2721 -0.1276
 5108W        W20239   4.289  16.386   3.627  0.1735  0.0875 -0.1130
 5109W        W20240  12.624   9.560  11.591 -0.2173  0.1428 -0.1640
 5110W        W20241   6.751  12.109   5.859 -0.0849  0.2774  0.0965
 5111W        W20242   6.895   6.083   4.094 -0.0248 -0.0541  0.2644
 5112W        W20243  11.136   2.990  15.606 -0.4029 -0.1452  0.1826
 5113W        W20244   3.510   3.819  14.176  0.3419  0.1037 -0.1136
 5114W        W20245   2.412   5.575   4.037  0.3430 -0.2173  0.1720
 5115W        W20246  15.019  18.485  12.653 -0.1867  0.1903 -0.1562
 5116W        W20247   7.200  11.488  13.159 -0.1652 -0.1400  0.2407
 5117W        W20248   3.764   3.977   0.736 -0.1059 -0.2398 -0.0302
 5118W        W20249   6.102   2.753   3.437  0.0698  0.1389 -0.2256
 5119W        W20250  16.121   5.773  15.708  0.3472  0.0212  0.1170
 5120W        W20251   8.738   4.858   4.676  0.1126 -0.0079  0.2590
 5121W        W20252  16.887   4.956  15.887 -0.3078  0.0028  0.1484
 5122W        W20253   6.231   1.174   2.557 -0.1447 -0.1363 -0.0270
 5123W        W20254  11.367   6.262   2.930 -0.0103  0.0396 -0.0956
 5124W        W20255   0.874   8.377   1.324 -0.2599  0.0291 -0.0956
 5125W        W20256  15.397   5.266  12.694 -0.1274 -0.0623 -0.0644
 5126W        W20257  17.518   3.946   4.230  0.0101 -0.0705  0.3514
 5127W        W20258   1.044   8.937   1.218  0.1042  0.0200  0.1071
 5128W        W20259   1.445  14.879   5.507 -0.0468 -0.0729 -0.4593
 5129W        W20260  14.654   7.259   0.471  0.2566 -0.5909  0.0022
 5130W        W20261   5.541  14.579  10.674 -0.0129 -0.0923 -0.1315
 5131W        W20262  16.058   6.621   4.208  0.0293 -0.3042  0.2240
 5132W        W20263  15.583   2.439   3.283 -0.3289  0.0469 -0.0286
 5133W        W20264  16.318   7.937  12.753 -0.4023 -0.1379  0.3464
 5134W        W20265   3.412   5.813   2.446  0.3826 -0.2903 -0.0305
 5135W        W20266  11.405   0.034  11.334 -0.0084  0.0731 -0.1688
 5136W        W20267  14.899  13.114   5.589 -0.2252  0.3704  0.0619
 5137W        W20268  18.294  11.067  12.549 -0.0166 -0.0627 -0.2949
 5138W        W20269   1.452  13.018   6.087 -0.1071 -0.0097  0.1319
 5139W        W20270   8.545   3.828   1.626  0.1395  0.0100 -0.1303
 5140W        W20271   5.151   5.838  15.835  0.1492 -0.2035  0.1776
 5141W        W20272  14.227  11.869  10.486  0.0562 -0.0206 -0.1281
 5142W        W20273   1.239   8.143  13.242 -0.3508 -0.1420 -0.0969
 5143W        W20274  11.171  11.557  10.736 -0.2805 -0.2113  0.0972
 5144W        W20275   4.046  10.910  14.484  0.0814 -0.2019  0.1520
 5145W        W20276  17.921  15.177  12.739 -0.0655 -0.1826  0.0504
 5146W        W20277  12.500   3.116  11.266  0.0633  0.1472 -0.3205
 5147W        W20278   2.131  12.266  11.224  0.1377  0.1482 -0.1007
 5148W        W20279   6.525   9.584   6.064 -0.0990 -0.1346 -0.0488
 5149W        W20280  12.751   5.691  13.276 -0.0270  0.1656 -0.1964
 5150W        W20281   9.755  11.318  11.390 -0.0798  0.3933 -0.1403
 5151W        W20282   7.779   2.878   4.335  0.1612 -0.3021 -0.0604
 5152W        W20283  17.131  16.701  11.383 -0.1488 -0.0826 -0.1523
 5153W        W20284   3.520  14.620   0.756 -0.0820 -0.2446 -0.1224
 5154W        W20285   1.548   6.990   2.964  0.3100  0.0011 -0.0990
 5155W        W20286  13.341  15.690   4.140 -0.0712 -0.2717 -0.2897
 5156W        W20287   2.864   1.764  11.762 -0.1528  0.0947  0.3720
 5157W        W20288   3.061   0.458   2.724  0.1385 -0.1480 -0.0035
 5158W        W20289   4.003   9.146  15.617 -0.0398  0.0132  0.3449
 5159W        W20290   2.973   5.964   4.754  0.0516  0.0091 -0.3456
 5160W        W20291  16.772  17.154  14.996  0.1077 -0.2186  0.1776
 5161W        W20292  18.309   0.789   4.202  0.1116 -0.2306 -0.0288
 5162W        W20293   2.179   8.378   0.149  0.2293 -0.0219  0.1329
 5163W        W20294  16.073   7.582  13.992 -0.1764  0.2428 -0.3703
 5164W        W20295  15.780   9.586  11.121 -0.2196 -0.1169 -0.0577
 5165W        W20296   8.653  16.520   5.407 -0.0020  0.2179  0.0669
 5166W        W20297  11.674   8.668   3.481  0.4059  0.1667 -0.1120
 5167W        W20298   6.980  10.980  11.486  0.0042  0.2390  0.0259
 5168W        W20299  13.245   4.748  12.957  0.1040  0.0328  0.0596
 5169W        W20300  16.167   9.417   4.415  0.2845 -0.0678  0.0527
 5170W        W20301   7.729  14.788   4.073  0.1500 -0.1690 -0.3816
 5171W        W20302   4.742   3.584  13.331 -0.4253  0.0265 -0.3102
 5172W        W20303  16.911  17.662   0.701 -0.2635 -0.0560 -0.1672
 5173W        W20304   7.869   8.542  12.438  0.1642 -0.1888 -0.0114
 5174W        W20305   3.117  14.836  11.269  0.3429  0.1632  0.2862
 5175W        W20306  14.535  15.982  13.990  0.3194 -0.1567 -0.2390
 5176W        W20307   8.642  14.780  12.266  0.0697 -0.2346 -0.1591
 5177W        W20308  13.627  12.543  11.599  0.1021  0.0036  0.0548
 5178W        W20309   1.529   7.887   3.079 -0.2314  0.3509  0.1492
 5179W        W20310  15.871  12.177   1.385  0.4104  0.2574 -0.0790
 5180W        W20311   4.932   5.710  14.263 -0.1040 -0.2002 -0.0558
 5181W        W20312   9.409  12.484   1.462 -0.0271  0.1004 -0.1461
 5182W        W20313  18.452  13.957  13.857 -0.1255  0.1233  0.0619
 5183W        W20314   0.986   0.285   3.792  0.0506  0.0727 -0.0487
 5184W        W20315  10.998   2.710  11.316  0.0925 -0.3286  0.0359
 5185W        W20316  14.695  15.217   0.483 -0.0191  0.1542  0.0686
 5186W        W20317  13.448  17.506   3.227 -0.1923  0.0836 -0.4736
 5187W        W20318   6.457   3.984   5.238  0.1930 -0.1747  0.0657
 5188W        W20319   6.953  17.276  11.370 -0.0319  0.0510  0.0136
 5189W        W20320  11.872  11.749   2.065  0.0433  0.0885  0.0373
 5190W        W20321   4.961   1.955   0.880 -0.3256 -0.1922 -0.0973
 5191W        W20322   4.930  15.410  11.077 -0.1697 -0.1168 -0.0844
 5192W        W20323   4.076  18.039   1.987  0.0045  0.2895  0.4203
 5193W        W20324   7.597  11.742  15.781  0.0764 -0.3332  0.0156
 5194W        W20325   3.894  10.252   2.100  0.3581 -0.0187  0.2024
 5195W        W20326   0.065  13.775   3.702 -0.0697 -0.1960  0.1288
 5196W        W20327   3.587   1.878  15.865 -0.0299 -0.0283 -0.2866
 5197W        W20328  17.333   1.493  12.886  0.3782  0.1195 -0.2451
 5198W        W20329   6.084   5.982  15.836 -0.1818 -0.1823 -0.4278
 5199W        W20330   0.281   7.409   3.349 -0.0215 -0.2252 -0.1056
 5200W        W20331  11.747   9.784  10.153 -0.0758 -0.2721 -0.0823
 5201W        W20332   4.996   1.775   2.617 -0.0356 -0.2071 -0.0576
 5202W        W20333   3.643   6.177  13.814 -0.0988 -0.2511  0.2260
 5203W        W20334   6.914   0.225  15.597  0.1042 -0.1010 -0.0048
 5204W        W20335   6.060   5.617   3.262 -0.2473  0.2042  0.1306
 5205W        W20336  13.567   1.986   3.119  0.0386 -0.0739  0.1250
 5206W        W20337  11.857  11.925   5.069  0.0558  0.0601  0.0823
 5207W        W20338  12.994   6.940  10.842  0.1081  0.3818 -0.0036
 5208W        W20339  16.182  10.008   0.349 -0.0353  0.1071  0.4569
 5209W        W20340  12.558  17.972   1.563 -0.1550  0.1359  0.2022
 5210W        W20341   5.646  12.839   5.362 -0.1269  0.0127 -0.3070
 5211W        W20342  12.265  12.938   4.998  0.1284 -0.0077  0.0448
 5212W        W20343  10.750   6.463   0.399  0.2847 -0.1448  0.2476
 5213W        W20344  12.495   6.521   4.086  0.1904  0.0603  0.0181
 5214W        W20345   7.627   5.628  11.469  0.0025  0.1179 -0.1420
 5215W        W20346   7.167  14.244  14.479  0.0113  0.2617  0.0713
 5216W        W20347   8.632   1.116   0.170 -0.1480  0.0553 -0.0122
 5217W        W20348   3.408  18.357  13.653  0.2730 -0.2123  0.0693
 5218W        W20349  10.401  10.983   4.186  0.1623  0.0311  0.1285
 5219W        W20350  13.292   2.809   1.648  0.1025 -0.2704  0.2361
 5220W        W20351  14.803  15.974   1.464  0.0442 -0.2755 -0.0791
 5221W        W20352   5.935   4.779  15.483 -0.2488  0.3811  0.0763
 5222W        W20353  17.719   2.725  15.823 -0.2977 -0.2729 -0.1781
 5223W        W20354   0.092   1.563   2.989  0.1997  0.1579 -0.2967
 5224W        W20355  15.454   4.760  11.522 -0.1313 -0.4064  0.0672
 5225W        W20356  14.907  10.560  13.035  0.0222 -0.5676 -0.0075
 5226W        W20357  14.420   9.509  12.803  0.0813  0.3539  0.1369
 5227W        W20358   3.518  11.244   5.027  0.0357  0.1943 -0.1071
 5228W        W20359  12.378  12.056  10.895  0.1649  0.0638 -0.1716
 5229W        W20360   4.486   0.508   2.023 -0.1268  0.0959 -0.1561
 5230W        W20361  16.262  16.717  12.463 -0.0024  0.0968 -0.0060
 5231W        W20362  17.251   0.919  15.454 -0.1523  0.4225 -0.3156
 5232W        W20363   7.345   9.872   2.981  0.1088 -0.1287 -0.0486
 5233W        W20364  14.448  14.130   5.713 -0.1460 -0.2030 -0.4637
 5234W        W20365  17.098   1.861  15.005 -0.2463 -0.1273 -0.3457
 5235W        W20366   6.940   7.033   1.888 -0.4784 -0.0517 -0.3075
 5236W        W20367  11.729  10.544  12.061  0.2436 -0.1069  0.0006
 5237W        W20368   5.554   6.540   1.067 -0.0966  0.0318  0.1633
 5238W        W20369   1.097  10.874  13.976  0.1232  0.0538 -0.0034
 5239W        W20370   8.587  17.754   3.750  0.1169 -0.0135  0.0147
 5240W        W20371   1.585   1.967   3.856 -0.0021 -0.2882  0.0769
 5241W        W20372   9.330   2.717  11.008 -0.2939  0.1699 -0.1755
 5242W        W20373   7.143   0.733  15.635 -0.0877  0.0625 -0.0437
 5243W        W20374  10.066   4.373   3.725  0.3746  0.0600  0.1669
 5244W        W20375  16.941  17.713   3.296 -0.1809 -0.0149  0.2926
 5245W        W20376  11.363   9.253   2.735  0.1338  0.1712 -0.0768
 5246W        W20377  15.136   3.391  14.352 -0.1319 -0.0561  0.0297
 5247W        W20378  10.717   7.235  11.829  0.1989  0.0495  0.1262
 5248W        W20379  14.795  13.628   1.659  0.1592  0.1613  0.0715
 5249W        W20380  18.416   7.982   1.721  0.0781 -0.1279 -0.0541
 5250W        W20381   1.604  18.287   3.407  0.2414 -0.3823 -0.1976
 5251W        W20382   7.878   2.852   0.349 -0.0514  0.2382 -0.0187
 5252W        W20383  11.016   7.183   2.622 -0.0532 -0.0958 -0.0804
 5253W        W20384   8.885   7.889   0.047 -0.1561  0.0154 -0.0792
 5254W        W20385   2.670   3.205   3.075 -0.2496 -0.1286  0.0106
 5255W        W20386   5.684   0.037  14.735 -0.1538 -0.2362  0.1155
 5256W        W20387  13.445   0.649   3.864 -0.0910 -0.0705 -0.0868
 5257W        W20388  11.555   1.173  10.907 -0.3087  0.0338  0.2653
 5258W        W20389   4.420  12.816   1.683  0.0337  0.3129  0.0867
 5259W        W20390  10.019   5.443   1.607 -0.0052  0.0587 -0.1132
 5260W        W20391   7.842   3.891  15.450  0.1485  0.0423  0.1370
 5261W        W20392   2.078  16.146   2.046 -0.2907  0.0850  0.0737
 5262W        W20393   5.318   9.220   3.652  0.1797  0.1381  0.2767
 5263W        W20394  14.116  12.805  12.291  0.1346  0.2763 -0.2704
 5264W        W20395  15.991   9.411  15.380  0.2715  0.1745 -0.2480
 5265W        W20396   0.362   9.525  15.446  0.0671  0.0637  0.0246
 5266W        W20397  14.144  18.389  13.721  0.1977  0.0150  0.1136
 5267W        W20398   9.965   7.151  10.331  0.2031  0.2331 -0.0157
 5268W        W20399  13.735  17.205  12.882  0.1416 -0.0518 -0.0678
 5269W        W20400  17.604  15.202  10.897 -0.1189 -0.0825 -0.1200
 5270W        W20401  12.615  17.373   5.456  0.0381  0.0582 -0.0989
 5271W        W20402   0.629   1.582   0.665 -0.1396 -0.1677 -0.1119
 5272W        W20403  11.317   2.785  14.786  0.0669 -0.0678 -0.0993
 5273W        W20404   0.450  14.626  14.058 -0.1069 -0.1276  0.0688
 5274W        W20405   5.208   0.629   0.433  0.0237  0.2741 -0.1353
 5275W        W20406   9.229   3.664   4.646  0.1946  0.1392 -0.2632
 5276W        W20407  13.349   3.086   2.299 -0.0282  0.0616 -0.2192
 5277W        W20408   3.106   8.200   1.380 -0.0011 -0.2583  0.0701
 5278W        W20409  17.881  12.316  10.853  0.0435  0.0958  0.0548
 5279W        W20410  12.254  12.902  10.400 -0.0815  0.0676 -0.0119
 5280W        W20411   0.221   1.116   1.316 -0.0193  0.1582  0.2096
 5281W        W20412   6.504   7.266  12.320 -0.0951 -0.2045  0.1756
 5282W        W20413   0.879   2.786   4.728 -0.1454 -0.1301 -0.0291
 5283W        W20414   5.504  11.963   0.623 -0.2050 -0.3517 -0.1933
 5284W        W20415   3.841  10.249  12.747  0.0150 -0.1731  0.1720
 5285W        W20416   9.568   1.868   4.943 -0.0046 -0.0141 -0.0321
 5286W        W20417  11.856  13.947  13.683 -0.1876 -0.0150 -0.2515
 5287W        W20418  13.129  16.351  14.453 -0.0179  0.0069  0.2055
 5288W        W20419  14.800   3.433   0.705 -0.0151 -0.0162  0.1044
 5289W        W20420  11.329   9.990   0.854  0.2691  0.0588  0.0887
 5290W        W20421   6.357   0.935   3.447 -0.2713  0.2958 -0.0530
 5291W        W20422  12.395   7.705   4.142  0.1423 -0.0030  0.4093
 5292W        W20423   7.292   0.983   4.078 -0.3888 -0.0456  0.1214
 5293W        W20424   5.149  11.290  12.601 -0.1270 -0.0191 -0.3243
 5294W        W20425   4.624  18.299  15.005 -0.1254  0.3356 -0.2710
 5295W        W20426  16.932  17.305   2.722  0.0476  0.0091 -0.0037
 5296W        W20427  13.599  15.962   6.113  0.1794 -0.3531  0.1557
 5297W        W20428  11.148   3.262  14.601  0.0274  0.0079  0.1345
 5298W        W20429   3.745  15.525   1.268 -0.1369 -0.0361 -0.1435
 5299W        W20430  11.476  12.126  11.640 -0.1811  0.3124  0.0824
 5300W        W20431  16.304  16.157   2.009 -0.1591 -0.1638  0.1962
 5301W        W20432   7.831  11.524  10.367  0.0238 -0.1072 -0.1161
 5302W        W20433   3.100  10.106  12.146  0.0441  0.0172 -0.1858
 5303W        W20434  11.305  16.984  11.253  0.1120 -0.0002  0.1394
 5304W        W20435   6.383   3.464   2.384 -0.1801 -0.0180  0.1281
 5305W        W20436   8.125  14.196  10.553 -0.3542  0.1408 -0.0972
 5306W        W20437   3.484   7.466   3.028  0.0169 -0.0477 -0.3262
 5307W        W20438  14.941   2.785  14.998 -0.0916 -0.1474  0.3422
 5308W        W20439   8.169  10.635   4.668  0.2151 -0.2146 -0.3909
 5309W        W20440  14.632  18.497   5.776  0.1284 -0.1489 -0.1062
 5310W        W20441  17.752  10.199  13.392 -0.1062 -0.0047  0.1278
 5311W        W20442   7.760   5.312  13.621  0.0964  0.1364  0.3291
 5312W        W20443   5.171   6.961  11.907  0.3076  0.1019 -0.1325
 5313W        W20444  10.764  16.666   4.146  0.2781  0.1222 -0.4304
 5314W        W20445   7.360   8.090   3.444  0.0482  0.0053 -0.2490
 5315W        W20446   5.427  13.735   1.308 -0.0708  0.2478  0.3815
 5316W        W20447   0.633  10.613  14.254 -0.0746 -0.4982 -0.0364
 5317W        W20448   4.720   7.426  13.178 -0.0533 -0.3063  0.0231
 5318W        W20449   6.175  14.985   6.291 -0.1723  0.1729  0.0049
 5319W        W20450  17.920  16.001   9.710 -0.0453 -0.2336  0.3526
 5320W        W20451   0.409  14.446   4.862 -0.0275  0.2426  0.0494
 5321W        W20452   3.774  10.740  11.730  0.1927  0.1427 -0.0752
 5322W        W20453   3.790  14.810   3.990 -0.0659  0.2138 -0.0197
 5323W        W20454   9.902   8.390   5.064 -0.0627  0.0796 -0.0254
 5324W        W20455  16.673  17.277   0.351 -0.0080 -0.0907  0.0813
 5325W        W20456   2.116  17.638  14.162 -0.2122 -0.1183  0.0803
 5326W        W20457  13.216   9.601   1.899  0.4943 -0.0083  0.0897
 5327W        W20458  13.180  10.094   1.756  0.1319 -0.0134  0.0099
 5328W        W20459  18.357   7.642  11.574  0.1043 -0.4000 -0.0853
 5329W        W20460  15.742  12.103   0.444 -0.0307  0.0095 -0.1720
 5330W        W20461   2.759   6.057   1.733  0.1130  0.0585  0.0642
 5331W        W20462  15.405   5.484  15.027  0.1629 -0.4134 -0.1635
 5332W        W20463   4.869   9.511   2.306  0.1422  0.0734  0.1536
 5333W        W20464   4.940   0.162  15.123  0.1504 -0.0866  0.0771
 5334W        W20465   9.160   8.957  10.950 -0.0327 -0.0029 -0.2862
 5335W        W20466   8.873  16.706   0.259 -0.0438  0.2252 -0.1326
 5336W        W20467   6.295  14.029  10.922 -0.3478 -0.1758 -0.2780
 5337W        W20468   0.410   1.550   4.166  0.1093 -0.2515 -0.1506
 5338W        W20469  11.291  17.790  15.389 -0.2197  0.0850 -0.1315
 5339W        W20470   8.657   2.365   0.223  0.1140  0.1138  0.0587
 5340W        W20471   6.287   8.670  15.151  0.3166  0.1296  0.2389
 5341W        W20472   2.229  13.206  14.820 -0.0602  0.0830 -0.5722
 5342W        W20473   6.288  16.376  14.556 -0.1193 -0.0817 -0.0381
 5343W        W20474  10.541   3.363  13.988 -0.2546  0.0040 -0.0619
 5344W        W20475  11.182   0.826   0.233 -0.3698  0.0070  0.0288
 5345W        W20476   9.584  13.863   1.266 -0.1222  0.1187 -0.0079
 5346W        W20477  11.789   1.120  12.116 -0.4744  0.0306  0.0531
 5347W        W20478   7.231   2.938  11.701 -0.0789  0.0277 -0.2875
 5348W        W20479  16.584   9.777  14.673  0.1508 -0.1855  0.1245
 5349W        W20480  15.991   8.958  14.585  0.3322 -0.1266  0.0298
 5350W        W20481  14.468   1.090   1.758  0.1077 -0.2238  0.0369
 5351W        W20482  17.165   4.872  12.755  0.0342 -0.1520  0.1064
 5352W        W20483   2.779   8.622  14.798  0.2257 -0.0174  0.2240
 5353W        W20484  12.885   7.668  11.211  0.2345 -0.1184 -0.3135
 5354W        W20485  11.196  12.711  13.915  0.0417 -0.2779 -0.0395
 5355W        W20486  14.820  13.757   3.585 -0.0738  0.0175 -0.0017
 5356W        W20487   4.627   3.045  14.119 -0.2504  0.1112  0.0221
 5357W        W20488   3.636   3.263   0.085 -0.0459 -0.0567 -0.1780
 5358W        W20489  14.077  17.864  10.125  0.2903 -0.0476  0.2681
 5359W        W20490  11.551  16.649   2.000 -0.0066  0.1428 -0.2144
 5360W        W20491   6.637  11.395   4.756 -0.2801 -0.4089 -0.0225
 5361W        W20492   5.612  16.374  15.137 -0.1434  0.2637 -0.0964
 5362W        W20493  16.650   1.711   2.085 -0.3830  0.0449  0.1735
 5363W        W20494  15.870   0.121   2.126  0.2058 -0.1099 -0.2524
 5364W        W20495   0.215  12.742  14.264 -0.0470 -0.0616  0.2826
 5365W        W20496  10.402   8.323   0.696  0.0905 -0.0635  0.0947
 5366W        W20497   1.846   1.830  11.198 -0.3258 -0.2806 -0.1561
 5367W        W20498   3.139   6.047  15.032 -0.4403  0.0192 -0.3323
 5368W        W20499   7.711  16.033   2.768  0.0092 -0.0222 -0.3795
 5369W        W20500   5.081   1.001  11.160 -0.0925  0.0855  0.0513
 5370W        W20501   0.680   4.200   1.396 -0.1579 -0.0013 -0.0020
 5371W        W20502  10.217  11.768   2.055  0.0084  0.0874  0.0787
 5372W        W20503   0.802   6.657  10.830 -0.2144 -0.0314 -0.1425
 5373W        W20504   5.340  14.106   5.802 -0.2408  0.2633 -0.0868
 5374W        W20505   7.473   0.403   0.049 -0.0321 -0.3943 -0.1183
 5375W        W20506   9.195   6.768  11.226 -0.0454 -0.1029 -0.1153
 5376W        W20507   1.209  14.204   3.708 -0.2206 -0.0758 -0.0030
 5377W        W20508   2.922   0.662  12.147  0.2246 -0.0405 -0.0663
 5378W        W20509  15.266   5.994   0.229  0.1599  0.2130 -0.1968
 5379W        W20510  10.321   8.087   0.176  0.2116  0.0711  0.1701
 5380W        W20511   3.800   0.052   0.103 -0.2944  0.0809 -0.0788
 5381W        W20512  13.476  16.881   0.767  0.1312  0.0063  0.3477
 5382W        W20513   9.421   9.075   3.326 -0.1833 -0.3272  0.0836
 5383W        W20514   4.056  17.253  15.582  0.5049  0.0577  0.0890
 5384W        W20515   0.210   5.555  12.980  0.0345 -0.1472 -0.0725
 5385W        W20516   1.117   8.841   0.169 -0.3782  0.1441 -0.1463
 5386W        W20517  13.514  13.562  15.360  0.2456  0.3098  0.0613
 5387W        W20518   2.917   2.904  12.359 -0.0935 -0.1011  0.1652
 5388W        W20519  14.152  14.753  15.112 -0.2324  0.0458 -0.2370
 5389W        W20520   8.801   2.651   2.484 -0.0726  0.3016  0.0849
 5390W        W20521  10.674  15.152  13.068 -0.2718  0.1607 -0.0409
 5391W        W20522  10.304   1.348   4.742 -0.2849 -0.1093  0.1381
 5392W        W20523  13.853   5.276   5.158  0.0935 -0.0098 -0.0643
 5393W        W20524   1.181  17.102  11.447 -0.1960 -0.0178 -0.1565
 5394W        W20525  12.242   7.667   3.664 -0.0774  0.1463  0.2136
 5395W        W20526   0.991  13.728   5.186 -0.0571 -0.1515  0.0422
 5396W        W20527   7.137   8.646   2.967  0.2627 -0.0612 -0.0684
 5397W        W20528  15.936   4.001   3.282  0.2961 -0.0093  0.0212
 5398W        W20529   8.231  10.979   3.635  0.3496  0.1390  0.0384
 5399W        W20530   2.123   2.887   5.884 -0.0546  0.0200  0.1510
 5400W        W20531   1.994  15.672  10.854 -0.0693  0.0377  0.0940
 5401W        W20532  11.667  10.720   0.512  0.1173 -0.3848 -0.0090
 5402W        W20533   6.743   1.056  13.109  0.1744 -0.2494  0.0558
 5403W        W20534  10.204   7.767   1.094 -0.2755  0.3087  0.2687
 5404W        W20535   7.546   2.090  15.648 -0.2322  0.0910  0.2009
 5405W        W20536  16.810   1.049   3.814 -0.2374  0.1982  0.1924
 5406W        W20537   7.473   8.815  15.633 -0.1579  0.0626  0.6086
 5407W        W20538  17.787   0.732   4.089  0.1770  0.1759 -0.0544
 5408W        W20539  11.310  12.988   4.285  0.0943 -0.0249  0.2966
 5409W        W20540   2.045   9.605   6.104  0.0579 -0.0087  0.1129
 5410W        W20541  13.920   4.992  14.329 -0.0597 -0.1012  0.2177
 5411W        W20542  10.152  14.169   4.470 -0.0942  0.0175  0.0466
 5412W        W20543  11.948   9.434   0.248 -0.0885 -0.0053  0.0688
 5413W        W20544   2.164   1.502   4.918  0.0437  0.1491 -0.2005
 5414W        W20545   2.645   0.096   2.914  0.0432 -0.1234  0.1048
 5415W        W20546   2.225  16.374   4.287  0.0264 -0.1129  0.0581
 5416W        W20547   9.016   9.894   0.977  0.0336 -0.0799 -0.0632
 5417W        W20548  10.983   7.810   1.246 -0.0927  0.3116 -0.0835
 5418W        W20549  17.879   9.864   5.943  0.1227  0.1406  0.1890
 5419W        W20550   5.879   1.828   1.819  0.2242 -0.0728  0.0594
 5420W        W20551   8.446   2.773  13.292 -0.1360 -0.0569 -0.0534
 5421W        W20552   0.859   6.756   4.605 -0.0379 -0.1711  0.0290
 5422W        W20553  15.328   7.939   2.823 -0.3112 -0.2974 -0.2288
 5423W        W20554   9.690  10.263   1.460  0.0153 -0.2247  0.0286
 5424W        W20555  11.764   2.037  15.392 -0.0623 -0.1572 -0.4274
 5425W        W20556  17.488   4.773   3.319  0.0494  0.2590 -0.1455
 5426W        W20557   3.581   0.715  15.170  0.2242  0.1605 -0.0111
 5427W        W20558   6.253  15.831   2.190 -0.0954  0.1605 -0.0772
 5428W        W20559  13.686  16.315  10.839 -0.2318  0.1740  0.0711
 5429W        W20560   3.475  13.895  12.588  0.2534  0.1725 -0.1349
 5430W        W20561  16.547   4.734  13.376  0.0667 -0.7466  0.4172
 5431W        W20562   3.808  18.438   5.464  0.1270 -0.0102  0.1285
 5432W        W20563   4.364  15.448   5.999 -0.2460 -0.3633  0.0696
 5433W        W20564   0.913   5.932   2.786  0.2474 -0.1604  0.2399
 5434W        W20565   4.164  11.817  14.936 -0.1655 -0.0065  0.0559
 5435W        W20566  11.740  18.378   1.383 -0.0833 -0.0480 -0.1155
 5436W        W20567   0.281   9.280   1.938  0.0736 -0.0062 -0.1767
 5437W        W20568  12.031  18.218  13.424  0.2352 -0.0050 -0.0527
 5438W        W20569  17.392   3.773   0.701 -0.2451 -0.3669 -0.2362
 5439W        W20570   0.707   3.295  11.738  0.0226 -0.4265 -0.1108
 5440W        W20571   8.781   8.596  12.451 -0.2128  0.2960 -0.1640
 5441W        W20572  17.398   8.391  15.876  0.1368  0.0510 -0.0381
 5442W        W20573   2.718  18.517  12.439  0.0499  0.1636  0.1174
 5443W        W20574  10.151  12.294   3.955  0.0352 -0.1220 -0.1414
 5444W        W20575   7.235   2.673   2.730  0.2277  0.2380  0.0427
 5445W        W20576   3.380   5.673  13.687  0.0997  0.1034  0.2121
 5446W        W20577   0.051   2.083  12.827 -0.1635  0.0085 -0.0281
 5447W        W20578   3.545  12.434   3.730  0.0189  0.2881  0.1514
 5448W        W20579   9.905  11.006   1.742 -0.1982 -0.1622  0.0068
 5449W        W20580  14.435  15.335   1.361  0.1111 -0.3969 -0.2989
 5450W        W20581  17.366  13.860   1.485 -0.2748 -0.0583  0.0032
 5451W        W20582   0.458   8.092   4.490  0.0805  0.1330  0.0545
 5452W        W20583  12.065   7.530  10.240  0.1032  0.2327 -0.0819
 5453W        W20584   9.073   1.184  13.674  0.4194  0.1539 -0.1067
 5454W        W20585   5.141  17.797   0.364 -0.5441  0.0489  0.3266
 5455W        W20586   9.450   1.046  11.099  0.0210 -0.3244  0.0326
 5456W        W20587  11.652  15.870  10.511  0.0218 -0.1272 -0.0762
 5457W        W20588   0.282   8.360   1.689  0.0811  0.1930 -0.0278
 5458W        W20589  11.565   2.732   3.618  0.2399 -0.4835  0.0213
 5459W        W20590  13.611  15.689   4.869  0.0935  0.1808 -0.0468
 5460W        W20591   9.174  12.726  10.919  0.1801 -0.0290  0.0503
 5461W        W20592  17.065   0.398  15.271  0.1694 -0.1156  0.0936
 5462W        W20593   2.039  12.638  14.321  0.0635 -0.0375 -0.0645
 5463W        W20594   5.878  11.629   1.866 -0.0766  0.4093  0.1121
 5464W        W20595   9.177   4.886  11.814 -0.3594  0.0582  0.0735
 5465W        W20596   2.334   2.159   2.322  0.3929  0.2289  0.0235
 5466W        W20597  10.841  13.048  14.041 -0.2269  0.0981 -0.2966
 5467W        W20598   7.295  10.381  14.470  0.1629 -0.1350 -0.2801
 5468W        W20599  16.715  12.354   2.188 -0.0472  0.1177  0.0456
 5469W        W20600   6.113  12.569  11.215 -0.0215  0.3374  0.1466
 5470W        W20601  12.147   6.266   0.063 -0.1682  0.0685  0.0061
 5471W        W20602   3.461   3.568   2.577 -0.0164  0.0882 -0.1987
 5472W        W20603  12.859  11.027  15.258 -0.5034  0.0497  0.5554
 5473W        W20604   5.467  12.913  14.016  0.3123 -0.2112  0.2976
 5474W        W20605   1.514  10.117  14.719 -0.2266 -0.0873  0.1601
 5475W        W20606   8.097   5.705  14.988  0.1725  0.0815 -0.0464
 5476W        W20607   1.259   0.982  13.203 -0.2733 -0.2734  0.0025
 5477W        W20608   6.921   4.067   2.465  0.0191  0.3186 -0.0672
 5478W        W20609  11.343  13.052   5.276 -0.0731 -0.0782 -0.2936
 5479W        W20610  13.662   3.171   4.272  0.4578 -0.0770  0.2657
 5480W        W20611   4.836   2.204  11.132 -0.3495 -0.0210  0.1107
 5481W        W20612  10.345  13.325  15.316  0.1974 -0.0658 -0.0223
 5482W        W20613   5.414   5.354   2.875  0.0267 -0.1631 -0.0681
 5483W        W20614   4.011  13.743   3.127 -0.2311 -0.3196  0.2264
 5484W        W20615   5.432   7.532  15.051  0.2415  0.0949 -0.3047
 5485W        W20616   8.663  11.027   1.431  0.1272  0.0744  0.1507
 5486W        W20617   8.963  13.048  14.472 -0.3724 -0.2115 -0.3951
 5487W        W20618   9.813   0.583  10.774 -0.1077 -0.1750  0.1656
 5488W        W20619  16.097   4.331  14.222  0.0552 -0.0249 -0.2532
 5489W        W20620   7.586  14.941  12.484 -0.1544  0.0857  0.0202
 5490W        W20621  12.175   1.326   1.008 -0.1697 -0.1833  0.0141
 5491W        W20622   0.715  16.431  10.915  0.0209  0.1534 -0.0957
 5492W        W20623  13.515   0.050   3.141 -0.0178 -0.2187  0.1221
 5493W        W20624  17.245   0.019   5.319 -0.3657  0.0391  0.2023
 5494W        W20625   5.713   8.272   1.204  0.4728 -0.1842  0.0766
 5495W        W20626  10.760  13.481   3.464  0.0016 -0.1473  0.0053
 5496W        W20627   1.428  15.650   5.685 -0.0749 -0.0043 -0.1979
 5497W        W20628  12.691  16.297   4.730  0.3239  0.0348  0.1903
 5498W        W20629   6.905  13.425  14.490 -0.2564  0.0413 -0.0979
 5499W        W20630  12.428   7.737  11.202  0.1749  0.0026  0.0430
 5500W        W20631   5.212   4.396  15.291  0.3143 -0.1097 -0.0363
 5501W        W20632  14.458   8.666  11.627  0.1918  0.0698 -0.0074
 5502W        W20633   2.683   5.198   0.265  0.2029  0.0932  0.1000
 5503W        W20634   2.766  15.056  12.218 -0.4666 -0.2022  0.2593
 5504W        W20635   8.707   7.442   4.214  0.0401  0.0816  0.2811
 5505W        W20636   3.820   9.905  13.197  0.2379 -0.3921  0.0988
 5506W        W20637  11.977  15.434  15.026  0.1092  0.1965 -0.2923
 5507W        W20638  12.914   5.416  12.041  0.0295 -0.1071 -0.2453
 5508W        W20639   6.925   7.006   2.845 -0.2293  0.0116  0.0058
 5509W        W20640  18.123   8.410  14.200  0.2894 -0.1621  0.1685
 5510W        W20641   0.370   8.778  11.410 -0.1785  0.1237  0.3306
 5511W        W20642  14.085  16.373   4.262 -0.2660  0.1902  0.1032
 5512W        W20643  17.775  16.197   4.798 -0.2914 -0.1365 -0.1353
 5513W        W20644  11.420   5.942   1.253  0.0548 -0.2490 -0.2124
 5514W        W20645   7.498   7.922   4.521 -0.1425 -0.0399  0.1275
 5515W        W20646  15.114  16.959   5.234 -0.1022 -0.0130  0.1181
 5516W        W20647   5.581   9.451  10.938 -0.2389  0.1252  0.1667
 5517W        W20648   3.735   6.925   2.740  0.1186  0.2765  0.2421
 5518W        W20649  13.211   2.492  10.929  0.1257  0.1836 -0.1464
 5519W        W20650   2.727  16.240  15.886 -0.1294  0.0501 -0.1757
 5520W        W20651  15.745   9.436   1.588 -0.0329  0.0906  0.0393
 5521W        W20652   2.417  12.572  15.691 -0.0524  0.2315  0.3106
 5522W        W20653  12.229   0.277  15.656  0.2707 -0.2405 -0.1081
 5523W        W20654  13.212   4.098  12.627 -0.1981 -0.0213  0.2515
 5524W        W20655   9.874   9.778  14.501 -0.0075  0.0028 -0.1705
 5525W        W20656   8.225   9.970   3.098 -0.2705  0.1127  0.4103
 5526W        W20657  17.586   1.153  11.932  0.0631 -0.1598  0.1614
 5527W        W20658   0.521  13.718  12.999 -0.2232 -0.1287 -0.1584
 5528W        W20659  13.841   8.471   2.890  0.0292  0.2077  0.1144
 5529W        W20660  15.129   2.878   5.482 -0.3022  0.0761  0.2677
 5530W        W20661  17.387   7.019  14.167 -0.1090 -0.3747 -0.1171
 5531W        W20662   8.396   1.200  14.722  0.1112 -0.1921 -0.0516
 5532W        W20663  15.760  16.168   5.220  0.3713 -0.0117 -0.0613
 5533W        W20664   0.950   6.948   1.216  0.3071 -0.0975 -0.0605
 5534W        W20665  13.467   6.541   0.917  0.1196 -0.1333  0.0418
 5535W        W20666  15.521   5.784   2.511  0.1130 -0.0242  0.0681
 5536W        W20667   6.894   2.748   1.930 -0.2776 -0.0282  0.1127
 5537W        W20668   0.271   5.339   4.527  0.0546 -0.1091  0.1668
 5538W        W20669  16.946   7.373   4.000 -0.0484 -0.1949  0.1697
 5539W        W20670   7.185  13.856   3.221 -0.1930 -0.3547  0.2353
 5540W        W20671   3.421   8.658   1.891 -0.0765 -0.0452  0.3274
 5541W        W20672  15.465   3.449  13.110  0.0731  0.1388  0.1131
 5542W        W20673   9.185   3.957   3.047  0.0364 -0.3317 -0.1133
 5543W        W20674   6.711   2.083   0.338  0.1065  0.1229  0.2336
 5544W        W20675  10.281  15.514   0.419  0.1094 -0.4353  0.0985
 5545W        W20676  15.325  13.115  14.158  0.2385  0.0120 -0.1553
 5546W        W20677  11.905   7.710  15.095  0.0913  0.0686 -0.1073
 5547W        W20678   0.453  16.159   3.411 -0.3680 -0.3367 -0.0331
 5548W        W20679   4.959  11.213  13.019  0.1695 -0.1723 -0.3706
 5549W        W20680   3.037  17.064  14.251  0.3428 -0.0987 -0.4910
 5550W        W20681  12.686   9.996  13.479 -0.1125  0.0029  0.0152
 5551W        W20682   5.067  14.429   2.401  0.1966 -0.3226  0.1652
 5552W        W20683   8.975  10.643  11.616 -0.3023 -0.1879 -0.0935
 5553W        W20684   5.944   9.687  13.264  0.1286 -0.0589 -0.0672
 5554W        W20685  11.161  10.585  14.716  0.1901 -0.1898  0.0908
 5555W        W20686   7.103  11.523   1.495 -0.1011 -0.0325  0.0841
 5556W        W20687  16.397  12.943   1.938  0.1245 -0.1308 -0.2066
 5557W        W20688   0.595   6.241  13.413 -0.0307  0.2340 -0.0361
 5558W        W20689   1.024  17.484   4.668 -0.2250 -0.3229  0.2521
 5559W        W20690   6.235  13.235  15.074 -0.1060 -0.0978  0.1238
 5560W        W20691   5.326   7.673   2.589 -0.1469 -0.0764 -0.0104
 5561W        W20692   4.193   9.471  13.886 -0.2197 -0.3662  0.1073
 5562W        W20693  17.742   5.980  13.124  0.2540 -0.1534 -0.3279
 5563W        W20694  15.586   3.087   3.660 -0.1875  0.1728  0.0499
 5564W        W20695   1.391  17.244  15.256 -0.1389 -0.1813 -0.0270
 5565W        W20696  12.920  17.734  10.624 -0.1968  0.1460  0.0633
 5566W        W20697  16.685   6.744  12.666  0.3571 -0.0766 -0.0383
 5567W        W20698  17.307  10.085  15.819 -0.0912 -0.2615  0.0380
 5568W        W20699   8.371  17.041  12.743 -0.2196 -0.1083 -0.4288
 5569W        W20700  10.322   7.712  15.359 -0.2920 -0.0088 -0.1257
 5570W        W20701   9.701  16.953  15.025 -0.1913  0.1930 -0.0187
 5571W        W20702  16.432  10.635  11.347  0.1855  0.0432  0.0023
 5572W        W20703  12.530   0.221   2.409  0.0277  0.1270 -0.1154
 5573W        W20704  12.973  12.820   1.716 -0.2769 -0.0292 -0.1884
 5574W        W20705  18.395   4.289   4.980 -0.1673 -0.0769 -0.4225
 5575W        W20706   4.623   2.626   0.406  0.1372 -0.0453 -0.2205
 5576W        W20707  13.271  14.005   2.199  0.2492 -0.1925  0.3605
 5577W        W20708  11.528   3.247  11.062 -0.2154 -0.4369 -0.0160
 5578W        W20709  16.847   7.109  13.988  0.0909  0.0513 -0.1351
 5579W        W20710   4.989   7.311  14.095 -0.2311  0.2289 -0.0813
 5580W        W20711   8.677   2.315   3.328 -0.1723 -0.0116  0.0339
 5581W        W20712  12.815   7.334  14.563 -0.0240 -0.1284 -0.0683
 5582W        W20713  14.417   5.988  15.855 -0.0008 -0.0369 -0.1102
 5583W        W20714   1.451   2.298  13.360  0.0518 -0.2822  0.2316
 5584W        W20715   8.474   6.507   2.997 -0.0945 -0.1702 -0.1859
 5585W        W20716  16.316  15.410   3.453 -0.2545  0.0479  0.3571
 5586W        W20717   8.967   9.417  12.163 -0.0858  0.1393  0.0117
 5587W        W20718   5.142   8.596  14.009  0.0542  0.1105 -0.2045
 5588W        W20719   6.613  16.023   0.994 -0.2484  0.0469 -0.1035
 5589W        W20720   9.184  10.235  15.076  0.0860  0.2304  0.2248
 5590W        W20721  10.773  16.204  15.682 -0.0819 -0.0641  0.0479
 5591W        W20722   0.097   1.179   3.732  0.1595  0.0711 -0.0914
 5592W        W20723   8.262   0.062  13.311 -0.0263  0.1041  0.0969
 5593W        W20724   8.252  17.595   2.097  0.0667 -0.0891  0.0985
 5594W        W20725  10.782   4.949  15.586 -0.1169 -0.0415  0.0629
 5595W        W20726   2.869   8.388  14.087 -0.1623  0.1322 -0.0856
 5596W        W20727   5.922  16.382  11.340 -0.0918 -0.3314 -0.2283
 5597W        W20728   8.195   9.519   5.520  0.2624  0.0785 -0.3749
 5598W        W20729   1.579   8.598  15.251  0.0193 -0.0296 -0.0167
 5599W        W20730   0.942  13.539   5.673 -0.0166 -0.1666 -0.5081
 5600W        W20731   3.069  14.018  14.480  0.1269 -0.2176 -0.1416
 5601W        W20732   5.654  18.145   3.105 -0.0337  0.0516  0.0979
 5602W        W20733  13.206  12.562   1.389 -0.4794 -0.0338  0.2651
 5603W        W20734  12.439  17.307   1.353 -0.0421  0.0970 -0.0730
 5604W        W20735  13.620   5.706  15.011  0.3074 -0.1498  0.1618
 5605W        W20736  16.034  10.610   5.250 -0.0715  0.0620 -0.1525
 5606W        W20737  10.957   1.437   3.107 -0.0777  0.3082 -0.0632
 5607W        W20738  12.240   5.721  12.536 -0.1615  0.2392  0.0957
 5608W        W20739  11.391   4.792  11.885  0.0560 -0.0187 -0.3602
 5609W        W20740  14.106   8.320   0.580 -0.0049  0.0830  0.0129
 5610W        W20741   7.808  17.409   1.360 -0.1890 -0.1047 -0.1673
 5611W        W20742   9.002   6.555   2.978  0.1758 -0.1523  0.5467
 5612W        W20743   5.921  12.965   2.222 -0.2447  0.1163 -0.2781
 5613W        W20744   7.221   0.452   4.048 -0.0485 -0.2315 -0.0274
 5614W        W20745   0.887  15.093   5.991 -0.0544  0.2907 -0.1003
 5615W        W20746  15.889   6.948   1.902  0.1277  0.0113 -0.0396
 5616W        W20747  17.762   7.805  11.192 -0.1312 -0.2882 -0.1930
 5617W        W20748   6.872   8.458   9.930 -0.0347 -0.0419 -0.6104
 5618W        W20749  15.760   7.638  12.358 -0.1533 -0.0718  0.0454
 5619W        W20750   7.958  17.850  13.457  0.1085  0.0222 -0.3320
 5620W        W20751   0.385   2.624   4.719  0.1566 -0.0428 -0.0595
 5621W        W20752  11.912  12.820  15.272 -0.1806 -0.0209  0.0702
 5622W        W20753  17.338   5.301  14.428 -0.0522 -0.4234 -0.1673
 5623W        W20754  14.698  16.499   1.377 -0.0387  0.2692  0.5955
 5624W        W20755  10.678   3.661  10.011 -0.0254 -0.4448  0.1575
 5625W        W20756   8.401   5.765   1.468  0.0603  0.0472  0.0036
 5626W        W20757  10.615  11.097   4.649 -0.1147 -0.1745 -0.4029
 5627W        W20758   2.415   8.799  15.857 -0.0514  0.0816 -0.0254
 5628W        W20759   8.126   5.023  15.723  0.1802  0.2768 -0.6483
 5629W        W20760  11.764   5.045  14.957 -0.4543 -0.3837 -0.0447
 5630W        W20761  11.323  10.779  15.177 -0.1422  0.0697  0.1128
 5631W        W20762   7.317  13.268   2.894 -0.0822  0.0051  0.3216
 5632W        W20763  17.949  11.357   5.727 -0.0449  0.1357 -0.1028
 5633W        W20764  12.943  13.210  12.434 -0.1109  0.0913 -0.2241
 5634W        W20765   5.326  13.543  11.114  0.1869  0.2045  0.2819
 5635W        W20766  16.590   0.862   1.072 -0.1695  0.2910  0.0272
 5636W        W20767   5.722   9.572   1.500  0.2880  0.0826  0.1364
 5637W        W20768   0.219   2.540  12.953 -0.0741  0.0007  0.1997
 5638W        W20769  14.962   5.250  15.328  0.1788 -0.0588  0.0657
 5639W        W20770  11.744   0.523  11.516  0.0169  0.1011  0.0983
 5640W        W20771   8.254   3.251   0.113 -0.0100 -0.5089 -0.1257
 5641W        W20772   3.878   1.167   3.573  0.2798  0.0636  0.1777
 5642W        W20773   9.068  12.874  13.343  0.1501  0.2407 -0.0605
 5643W        W20774  18.362  14.184   4.928 -0.0917 -0.1312  0.0987
 5644W        W20775   7.405   1.241  12.072  0.1176 -0.2426 -0.2731
 5645W        W20776   4.956   2.705  11.222  0.0018  0.2898 -0.2866
 5646W        W20777   6.055   1.917  15.564  0.3726 -0.0147 -0.0316
 5647W        W20778  11.039   0.229   2.896  0.0968 -0.3695 -0.2626
 5648W        W20779   2.318   5.654   1.011 -0.0866  0.2888 -0.0258
 5649W        W20780   6.782   9.060  11.563 -0.1569  0.0778  0.0927
 5650W        W20781  14.251  17.968  11.413  0.1515  0.3704 -0.2113
 5651W        W20782   0.529   1.753   5.367 -0.2247  0.0133  0.1645
 5652W        W20783  16.283  12.803  12.355  0.1659 -0.3684  0.1564
 5653W        W20784  10.360  14.437  14.413  0.3284 -0.0322 -0.1667
 5654W        W20785  11.369   0.829  12.195 -0.1188  0.0105  0.1937
 5655W        W20786  18.126  11.957  14.012  0.0735  0.0484  0.0265
 5656W        W20787   7.093   8.160   1.345  0.2361  0.0640 -0.1856
 5657W        W20788  18.103   4.835  12.101 -0.1161  0.0127 -0.2035
 5658W        W20789   6.805  15.148  12.052  0.1921 -0.2318  0.0941
 5659W        W20790   1.429  17.199   2.366 -0.1472  0.3106 -0.3401
 5660W        W20791   9.286  15.311   3.986  0.2954 -0.2638  0.2959
 5661W        W20792   0.350  13.642  13.926 -0.0232 -0.0748 -0.2247
 5662W        W20793  15.483   5.307  13.264 -0.3851  0.1610 -0.1432
 5663W        W20794   2.075  13.584  10.343  0.1132 -0.0896  0.1534
 5664W        W20795  11.347  14.488   5.294  0.0738  0.1573  0.0164
 5665W        W20796   8.272   9.041   5.759  0.0066 -0.0551 -0.1985
 5666W        W20797   5.546  14.232   4.842 -0.0872 -0.0834  0.0453
 5667W        W20798  15.958  14.432  12.631  0.1712  0.2478 -0.1624
 5668W        W20799   8.191   6.659  13.422  0.3002  0.0699  0.1463
 5669W        W20800   4.515   6.185  15.078  0.2724  0.1665 -0.1394
 5670W        W20801  16.597  10.762   3.340 -0.3875  0.1005  0.3263
 5671W        W20802  18.013  16.387  13.669 -0.3491 -0.0481 -0.0451
 5672W        W20803   4.033  11.192   9.953 -0.2994 -0.0285 -0.1948
 5673W        W20804  11.643  14.435   2.877  0.4367  0.0817  0.1653
 5674W        W20805  14.694  16.526  14.647 -0.0454 -0.0530  0.0734
 5675W        W20806  13.576  11.837   0.554  0.2810 -0.1683 -0.1297
 5676W        W20807   5.769  13.213  11.838  0.1231  0.0900 -0.1723
 5677W        W20808   5.193   6.372   3.471 -0.2377  0.2874 -0.1758
 5678W        W20809  18.153   0.724   1.245  0.3246  0.2164 -0.1728
 5679W        W20810   1.114   9.907   3.750 -0.0107  0.0035  0.2688
 5680W        W20811   9.758   3.209   1.345  0.2391 -0.1836  0.1634
 5681W        W20812  10.867  12.943   2.070  0.0691  0.0633  0.0222
 5682W        W20813  15.514  10.558   4.584 -0.1826 -0.0762  0.1379
 5683W        W20814  17.828   6.758  14.946  0.0425 -0.5197  0.2231
 5684W        W20815  10.279  12.050  11.725  0.1456  0.1188  0.0509
 5685W        W20816   2.481   6.696   1.808 -0.0993  0.0247 -0.3536
 5686W        W20817   7.554  16.418   4.230  0.1090 -0.0690 -0.2472
 5687W        W20818  17.497   2.335   2.427 -0.0006  0.1639 -0.2987
 5688W        W20819  14.876  10.525   4.543 -0.1904 -0.0395 -0.1771
 5689W        W20820  14.056  15.654   0.738  0.2604 -0.0849  0.1743
 5690W        W20821   7.930  10.864   0.274  0.0129  0.0875  0.1338
 5691W        W20822  10.582  13.518  14.093  0.0433  0.3380 -0.1284
 5692W        W20823   7.872  10.838  13.034 -0.1013 -0.0650 -0.1244
 5693W        W20824  11.539   0.159   2.719 -0.1006  0.1094  0.1182
 5694W        W20825  16.692  11.667   6.117 -0.0647 -0.0465  0.0749
 5695W        W20826   6.167   6.917  15.393  0.1831  0.2382  0.0840
 5696W        W20827  12.074  11.666  14.027 -0.4122 -0.2322 -0.0599
 5697W        W20828  12.748  17.760  12.386  0.0692  0.1325  0.0152
 5698W        W20829  16.527   6.583   0.834 -0.0282 -0.0223 -0.1009
 5699W        W20830   6.840   6.021  13.625 -0.1730  0.0131 -0.0911
 5700W        W20831   5.635   4.953  13.251  0.1002  0.2465  0.2892
 5701W        W20832  18.093  18.313  12.767 -0.2842  0.1044  0.0750
 5702W        W20833   3.137   7.706  13.698  0.0156  0.1382  0.2326
 5703W        W20834  13.305  12.147   2.584  0.0837  0.0582 -0.3092
 5704W        W20835  10.900   5.230  15.107 -0.2074  0.0153 -0.0011
 5705W        W20836   6.999   7.882  12.906  0.1101 -0.1213  0.0451
 5706W        W20837  10.478   7.092  10.345 -0.0848 -0.3024 -0.0175
 5707W        W20838  10.855  15.970  11.864  0.2611 -0.3127  0.1559
 5708W        W20839  15.907   1.907   4.797  0.2054  0.1762  0.1210
 5709W        W20840  11.196   8.152  12.359 -0.1058 -0.0112 -0.0988
 5710W        W20841  16.335  14.029  12.113 -0.2666  0.0529 -0.0948
 5711W        W20842   3.374  15.303  11.445  0.0768 -0.2477  0.0167
 5712W        W20843  14.564   4.080  11.588 -0.1452  0.2261 -0.1755
 5713W        W20844   5.066  12.631  15.363  0.4874  0.0260  0.0496
 5714W        W20845   1.760   2.738   5.358  0.1148  0.3990  0.3268
 5715W        W20846   4.126   8.575   4.337 -0.0829 -0.1025  0.0306
 5716W        W20847   2.961  12.747   5.193 -0.2171  0.1784  0.0978
 5717W        W20848  10.302   0.285   1.824  0.4174  0.0821 -0.0990
 5718W        W20849   9.632  14.129   4.490  0.0283 -0.2950 -0.0554
 5719W        W20850  18.458   3.472   4.447  0.0078 -0.4138 -0.2479
 5720W        W20851  13.820  14.080   0.184  0.2242 -0.1040  0.0264
 5721W        W20852  10.448   8.287  15.649 -0.1781 -0.2440  0.0495
 5722W        W20853  16.594  14.677   2.187  0.0060 -0.0543 -0.2383
 5723W        W20854   5.423   2.449   5.748 -0.1639  0.0428 -0.1431
 5724W        W20855   4.840  13.893  15.657 -0.1486 -0.2844 -0.1760
 5725W        W20856  14.186   0.248   1.136 -0.1952 -0.0548 -0.2528
 5726W        W20857  10.889  11.328   0.386  0.1230 -0.0078  0.0883
 5727W        W20858  15.962   2.342   0.923 -0.0713 -0.5281 -0.1117
 5728W        W20859  18.213   4.609   0.016  0.1759 -0.0930  0.4700
 5729W        W20860   4.110  15.250   5.655  0.1560 -0.2435  0.0456
 5730W        W20861  12.629  17.467   3.016  0.3669 -0.1797  0.3186
 5731W        W20862  10.627   3.429  12.002 -0.0130 -0.0207 -0.2128
 5732W        W20863  12.702  10.412   5.342 -0.2647  0.2457  0.1126
 5733W        W20864   7.035  14.082   4.277 -0.3828 -0.1334 -0.0597
 5734W        W20865   2.725   0.329  13.800  0.2782 -0.4396 -0.2349
 5735W        W20866   9.433  15.573   0.880 -0.1485  0.0807  0.1498
 5736W        W20867  13.173  11.853  11.871 -0.3903 -0.1187 -0.1533
 5737W        W20868  16.776   1.138  15.456 -0.0946 -0.1151 -0.4231
 5738W        W20869   4.442  14.219   0.115 -0.0503  0.0389 -0.1121
 5739W        W20870   3.042  10.182  11.587 -0.2853 -0.4438  0.1767
 5740W        W20871   1.078  10.030  11.608 -0.1966 -0.0091 -0.0734
 5741W        W20872   1.841   9.710   1.963 -0.0922  0.0829 -0.1990
 5742W        W20873  14.792  11.462   4.771  0.5848 -0.1826 -0.0131
 5743W        W20874  10.371   4.912  12.315  0.0627 -0.3369 -0.2768
 5744W        W20875   2.571   7.014   5.344  0.0800 -0.2023 -0.3432
 5745W        W20876   5.102   2.346   9.958  0.1827  0.4272  0.1999
 5746W        W20877   9.297  17.253  14.845  0.0165  0.0626 -0.0760
 5747W        W20878   7.228  12.467  10.590 -0.1095 -0.0671 -0.3194
 5748W        W20879   8.197  10.489   1.427 -0.0718  0.0406  0.1073
 5749W        W20880   7.881  18.420  12.337  0.1995 -0.0524  0.1325
 5750W        W20881  18.091  14.293   4.213 -0.0589  0.1046  0.1821
 5751W        W20882   6.784   8.947   4.465 -0.0510  0.2643  0.2878
 5752W        W20883   7.950  17.948  11.904 -0.0254  0.2189  0.1472
 5753W        W20884   2.333   3.469  12.124  0.2455 -0.3474 -0.3552
 5754W        W20885  10.502   3.324  12.476 -0.0390  0.1336  0.0588
 5755W        W20886  18.073  17.139   0.958 -0.0782  0.1609  0.0367
 5756W        W20887  11.188  11.391   4.938  0.3604  0.1491 -0.0676
 5757W        W20888   1.453   0.962   5.066 -0.3887  0.1239 -0.0325
 5758W        W20889  18.280   5.983  10.921 -0.0474  0.0766 -0.0517
 5759W        W20890   1.700   1.842  14.018  0.3282  0.2850 -0.0647
 5760W        W20891  11.008   0.112   4.388 -0.0491  0.3868 -0.3920
 5761W        W20892   0.775   4.615  13.453  0.0320  0.3508  0.4511
 5762W        W20893   7.356   6.762  14.531 -0.0832 -0.1608 -0.2842
 5763W        W20894   2.449   9.151  15.153  0.0700 -0.1067 -0.1586
 5764W        W20895  14.588   4.848  10.085 -0.2219 -0.3107  0.5418
 5765W        W20896   0.626  11.844   3.943 -0.0167  0.2644  0.0496
 5766W        W20897  15.290   3.166   5.037 -0.0667 -0.5336 -0.2621
 5767W        W20898   1.730  17.500   2.873  0.0933  0.1291 -0.0914
 5768W        W20899  11.031   4.565  12.227 -0.3556 -0.3687  0.1241
 5769W        W20900   1.632  14.552  12.383 -0.0083 -0.0280 -0.0521
 5770W        W20901  15.786   6.156   0.166  0.0461 -0.3573 -0.0341
 5771W        W20902  14.009  15.692   9.837 -0.0343  0.3859 -0.3314
 5772W        W20903  12.510   6.980   2.824  0.1649 -0.4007 -0.1070
 5773W        W20904  16.744  15.752   5.381  0.2174 -0.0139 -0.0557
 5774W        W20905  13.975   7.972   3.473  0.1726 -0.0523  0.0875
 5775W        W20906  15.465  14.810   4.440  0.0390 -0.0821 -0.2475
 5776W        W20907   9.900   2.109  10.995 -0.2601  0.1184  0.1295
 5777W        W20908  17.281   6.237  15.468 -0.3012  0.2479  0.0595
 5778W        W20909   4.537  14.565   0.506  0.0161 -0.1972  0.1768
 5779W        W20910   5.643   6.372  10.674  0.1176  0.0241  0.0279
 5780W        W20911  10.536  15.907   1.162  0.1167 -0.1823  0.1217
 5781W        W20912   9.173  15.090   5.353  0.1896  0.1070  0.4569
 5782W        W20913  15.671   2.577   2.418 -0.2949  0.1539  0.1827
 5783W        W20914   5.183  16.126   1.966  0.0358 -0.2661 -0.1961
 5784W        W20915  18.226  11.381  11.598  0.0822  0.2292 -0.0686
 5785W        W20916   6.495   2.544  14.154  0.1671  0.1352  0.2303
 5786W        W20917  17.529   4.156   2.259  0.0449  0.1167  0.3846
 5787W        W20918   1.028  14.532   2.521 -0.0097 -0.1878 -0.0271
 5788W        W20919   9.098   7.819   3.385  0.0746 -0.4410  0.1141
 5789W        W20920   8.290   9.069  13.012 -0.1254  0.0629  0.1189
 5790W        W20921  10.717  14.242  13.457  0.0230 -0.0369  0.0728
 5791W        W20922  12.308  17.604  14.619 -0.1365 -0.0516 -0.1920
 5792W        W20923   3.906  10.345   0.128 -0.0093 -0.0812  0.2129
 5793W        W20924  10.087  18.357   4.491  0.1483  0.0306 -0.3797
 5794W        W20925  18.177   7.118   4.614 -0.0045  0.0975  0.1408
 5795W        W20926  13.866   6.116   1.795  0.0400  0.0461  0.0032
 5796W        W20927  10.879  10.977   1.412 -0.0120 -0.0807  0.2956
 5797W        W20928   5.373  18.355  13.663  0.1149 -0.0431 -0.0518
 5798W        W20929  16.825   8.289   6.136  0.0361  0.0185  0.1860
 5799W        W20930  11.017  16.489  13.670  0.1196 -0.0274  0.3213
 5800W        W20931   8.204   0.902  15.789 -0.0837 -0.1754  0.1374
 5801W        W20932  14.258  16.156   0.768  0.0508  0.0840  0.0639
 5802W        W20933   7.747   1.821   1.283  0.0877  0.0993  0.0156
 5803W        W20934  17.269   5.754   3.635  0.2897  0.1822  0.2134
 5804W        W20935   8.787   0.128  14.648 -0.2522 -0.3498  0.1608
 5805W        W20936  11.330   5.795   1.711  0.0116 -0.1795 -0.1630
 5806W        W20937   1.642   0.874   2.118  0.1515 -0.1597 -0.1567
 5807W        W20938  12.107  15.241   2.664 -0.3979  0.1507 -0.1217
 5808W        W20939  17.486   4.682   2.404 -0.3010 -0.0783 -0.0243
 5809W        W20940   4.982   4.460  12.348  0.0309 -0.1205  0.3193
 5810W        W20941   9.032  15.542   2.969  0.2208 -0.0992  0.1815
 5811W        W20942  14.434   8.501   4.943 -0.3436 -0.0104 -0.3110
 5812W        W20943  15.012  11.471  10.826  0.0412 -0.1590 -0.2402
 5813W        W20944   3.027   9.377   2.537  0.3032 -0.1884 -0.0747
 5814W        W20945   6.344  14.724   4.056  0.0402  0.0153  0.1864
 5815W        W20946  16.645   4.135   2.699 -0.2468  0.0145 -0.1539
 5816W        W20947   2.391   4.270   1.916  0.1906 -0.1434  0.0042
 5817W        W20948  10.796   2.371  15.509  0.3264 -0.2639 -0.1498
 5818W        W20949  16.092  14.816  10.805  0.2766  0.0491  0.1397
 5819W        W20950   5.176  12.459  10.195  0.0525  0.0741 -0.0565
 5820W        W20951  10.429   0.326  11.721 -0.3788 -0.0562  0.2238
 5821W        W20952   5.345  11.592  13.754 -0.3493  0.0484  0.0076
 5822W        W20953   0.933  14.253  11.984  0.2526  0.1112 -0.0184
 5823W        W20954   4.602  14.443   3.581  0.3312  0.1629  0.1498
 5824W        W20955   0.101   8.894   2.249  0.2778 -0.2387 -0.1781
 5825W        W20956   0.685  15.544  11.873  0.2010 -0.0650  0.0372
 5826W        W20957   9.408  12.817  12.952  0.0291 -0.0030 -0.1440
 5827W        W20958  14.343  13.807  12.089  0.1528 -0.0328  0.0372
 5828W        W20959  16.285  18.371   2.732 -0.0680  0.1361  0.1339
 5829W        W20960   7.292   3.228   0.801  0.0423  0.1651  0.1525
 5830W        W20961   9.555   4.131   3.472  0.0327 -0.0151 -0.1224
 5831W        W20962   5.717  14.489   9.742 -0.2756  0.0498 -0.2230
 5832W        W20963   9.700  14.112  15.086  0.1073  0.1202 -0.1898
 5833W        W20964   8.459   8.964   2.214 -0.1624 -0.1380 -0.0708
 5834W        W20965  10.486   8.968  12.604 -0.0697  0.2869  0.0286
 5835W        W20966   9.093  15.401  14.886  0.2101  0.2731  0.1077
 5836W        W20967   4.162  18.099  12.544 -0.0198 -0.0133  0.3039
 5837W        W20968   8.567  14.611   2.293  0.1760  0.1809  0.1104
 5838W        W20969   1.281  17.770   5.576  0.3297  0.0839 -0.1986
 5839W        W20970  10.260  16.036   5.407 -0.2491  0.1442 -0.0412
 5840W        W20971  10.321  18.514   2.731  0.1597 -0.3151 -0.0810
 5841W        W20972   0.332  11.448  13.825 -0.1401 -0.2978  0.3719
 5842W        W20973  10.718  10.480  11.897 -0.0217  0.1453  0.4232
 5843W        W20974  10.569   1.306   0.465  0.2082 -0.3193 -0.3744
 5844W        W20975  14.630   3.132  13.227  0.0355  0.1273  0.1967
 5845W        W20976   9.653   5.550  10.744 -0.3654  0.1929 -0.0314
 5846W        W20977   2.729  13.208   0.375 -0.2980  0.0215 -0.1311
 5847W        W20978   5.147  15.182   0.478 -0.1071  0.1474 -0.4185
 5848W        W20979  13.864   0.647  10.722 -0.0808  0.4250  0.1116
 5849W        W20980  12.678  16.128  15.855 -0.1110 -0.0612  0.2499
 5850W        W20981   6.806  13.912  14.470 -0.0464  0.1528 -0.0612
 5851W        W20982  11.624  11.057  13.820 -0.0304  0.1812  0.0533
 5852W        W20983  13.068  13.461  14.555  0.0639 -0.1055  0.1401
 5853W        W20984   1.128   5.371   0.418 -0.2370  0.0066 -0.3810
 5854W        W20985  14.800   5.217   5.676  0.0799  0.0411  0.1401
 5855W        W20986  17.647   5.237   4.727  0.0090  0.1383 -0.1225
 5856W        W20987   8.345  10.949   4.132 -0.0028  0.5119 -0.2119
 5857W        W20988   4.128  14.962   0.496  0.0412  0.1669 -0.0521
 5858W        W20989  13.283  18.444  11.858  0.1684  0.0320 -0.1193
 5859W        W20990   6.028   4.784   0.634 -0.1649 -0.4294 -0.1161
 5860W        W20991  18.187  18.164   0.047  0.1650  0.1480 -0.0992
 5861W        W20992   8.226  15.982   2.819  0.3060 -0.2491 -0.3667
 5862W        W20993  12.317  14.653   0.200  0.2685  0.3245 -0.0614
 5863W        W20994  12.371  15.088   1.557 -0.0245  0.0812  0.1785
 5864W        W20995   9.867  15.909   1.835  0.0151 -0.0943 -0.0447
 5865W        W20996  11.464  17.500  10.885 -0.1390  0.2944  0.0128
 5866W        W20997   2.566  13.829   9.664 -0.0789  0.2149  0.0040
 5867W        W20998   9.151   0.381  13.823 -0.1297  0.0848 -0.2687
 5868W        W20999   8.057  15.675   3.830  0.1448  0.1279  0.1856
 5869W        W21000   8.831   4.577   3.224  0.0124 -0.3220 -0.1115
 5870W        W21001  11.970  17.848  12.765 -0.0287  0.0182 -0.2235
 5871W        W21002   0.644  12.402  13.453 -0.1350 -0.3125  0.1894
 5872W        W21003   4.663  11.707   0.274 -0.0080 -0.0581 -0.0448
 5873W        W21004  12.034  14.613   4.178 -0.1394  0.0090  0.0573
 5874W        W21005   0.486   8.555   5.270  0.2923  0.0279  0.0579
 5875W        W21006   6.386  12.193   2.762  0.1934  0.1387  0.0046
 5876W        W21007   4.107  17.664  10.850  0.0789 -0.2023  0.0634
 5877W        W21008   0.371   1.321   0.310 -0.0439 -0.2336 -0.0736
 5878W        W21009   7.562   6.202   1.557 -0.1677  0.2789  0.1155
 5879W        W21010  10.398  11.375  14.607 -0.0268 -0.1428 -0.0897
 5880W        W21011   6.716   3.554   0.171 -0.0579  0.0415  0.0320
 5881W        W21012   2.694   0.669   0.369 -0.0437 -0.2147 -0.1693
 5882W        W21013  16.070   5.267  15.504 -0.0721  0.0818 -0.3878
 5883W        W21014   6.419  18.136   4.608  0.1915 -0.4164 -0.0319
 5884W        W21015   2.398   1.102   5.229  0.2675  0.2659  0.3095
 5885W        W21016   3.561  11.899   1.582  0.3534  0.0298  0.1451
 5886W        W21017  16.263   8.581   5.350  0.1720 -0.0585  0.1999
 5887W        W21018  12.015   5.453   0.613 -0.0568  0.1088  0.1504
 5888W        W21019  17.487   4.384  14.767  0.0060  0.1506  0.1655
 5889W        W21020  17.140   1.689  12.117 -0.1716 -0.1868  0.2387
 5890W        W21021   1.200  14.306   0.978  0.2173  0.2293 -0.1104
 5891W        W21022   4.954  14.379  11.648  0.1959 -0.1049  0.2340
 5892W        W21023   6.046   6.318  13.044 -0.4980 -0.1179  0.3100
 5893W        W21024  17.317   9.037  10.255 -0.0903  0.3413 -0.1099
 5894W        W21025   6.619  12.508   0.340  0.2299  0.2892  0.1736
 5895W        W21026  13.276  15.358  12.538 -0.1843  0.3417  0.0484
 5896W        W21027  12.685   1.265   2.022  0.0466  0.0132  0.1332
 5897W        W21028   3.716   7.632  13.526  0.0917  0.0375  0.2147
 5898W        W21029  16.511  15.258   0.127 -0.0005 -0.0135 -0.3052
 5899W        W21030  17.721   2.069   4.739 -0.1166  0.2887  0.0703
 5900W        W21031   9.240  10.256   1.690 -0.1712 -0.0716 -0.2470
 5901W        W21032   4.027   5.788  14.419  0.3232  0.1846 -0.2338
 5902W        W21033   4.360   4.226  13.033  0.1501  0.1740 -0.0147
 5903W        W21034   9.781   2.016  12.647  0.4112  0.3536  0.0424
 5904W        W21035  11.136   9.412  12.685 -0.0637 -0.2508  0.0164
 5905W        W21036  11.923   3.328  10.424  0.2016 -0.1508 -0.1224
 5906W        W21037  16.430   8.696  14.559  0.2049 -0.1084  0.1337
 5907W        W21038  12.891  15.430   9.547 -0.0671  0.0054 -0.0723
 5908W        W21039  11.689  12.896  13.309 -0.0101 -0.1518 -0.1779
 5909W        W21040  12.104   2.113  13.009 -0.1000 -0.0781  0.0343
 5910W        W21041   6.130  17.679  14.256  0.0171 -0.0709 -0.0697
 5911W        W21042  11.022  16.953  14.612 -0.4301 -0.3933 -0.2064
 5912W        W21043   0.005  14.373  14.142  0.1095 -0.2027 -0.0435
 5913W        W21044   5.876   4.742   2.762  0.2479  0.2551 -0.2471
 5914W        W21045  17.142  12.421  15.750  0.2253 -0.1172  0.1051
 5915W        W21046  10.783  14.932   3.168 -0.0233 -0.1394  0.0990
 5916W        W21047   9.971   8.374   2.478 -0.1647  0.1294 -0.0070
 5917W        W21048  10.325  15.036  12.736  0.1324 -0.0595  0.4080
 5918W        W21049   9.563   9.108  11.170  0.1530  0.2113  0.0080
 5919W        W21050   3.787  14.660   3.041 -0.0502  0.0365 -0.1750
 5920W        W21051   1.607   2.756   1.478 -0.0770 -0.2375  0.0299
 5921W        W21052  12.411  15.570   0.288  0.1887 -0.2131 -0.0707
 5922W        W21053  18.325   6.128   4.289 -0.2779  0.3164 -0.0602
 5923W        W21054  12.440  13.928   3.892 -0.2375  0.1251  0.2086
 5924W        W21055  15.468  16.549  15.637 -0.0510 -0.1048  0.3065
 5925W        W21056   6.657  15.901  13.801 -0.0439  0.0386  0.3943
 5926W        W21057   9.358   7.990  13.243  0.4572  0.1064  0.0275
 5927W        W21058   6.743  16.580   3.013 -0.0252 -0.0103 -0.0499
 5928W        W21059   9.626   0.584   1.047 -0.2047 -0.1108  0.0012
 5929W        W21060  15.545   8.909   3.209  0.0385  0.0667  0.1879
 5930W        W21061  13.851   5.144  11.378 -0.2279  0.0265  0.0644
 5931W        W21062  15.458   4.718   4.271  0.0088 -0.1637  0.2825
 5932W        W21063   3.622   6.179  11.145  0.0816 -0.1476 -0.1358
 5933W        W21064   3.863   8.698   5.395  0.0266  0.0583  0.1273
 5934W        W21065   0.657  10.585   4.295 -0.0873 -0.3256 -0.5166
 5935W        W21066  11.648  10.345  10.817 -0.1745  0.1984 -0.1000
 5936W        W21067   6.699   9.193   3.336  0.3460 -0.0857 -0.3768
 5937W        W21068   8.452   9.923   0.632 -0.1373 -0.1494  0.1060
 5938W        W21069   3.510   4.983   4.362 -0.2931 -0.2130  0.0418
 5939W        W21070   2.833  12.351   1.885  0.1881 -0.0417 -0.2110
 5940W        W21071   0.736  13.739   4.412 -0.0259  0.0875  0.0266
 5941W        W21072   7.385   4.164   4.985 -0.0060  0.0766  0.2199
 5942W        W21073  12.010   9.532  15.549  0.2736  0.0924  0.0123
 5943W        W21074  10.276   9.468  12.815 -0.0102  0.0893  0.0530
 5944W        W21075  11.408   7.444   2.464 -0.0166 -0.4732 -0.2067
 5945W        W21076  13.161  13.595   5.664  0.1565  0.0701  0.2138
 5946W        W21077  12.495  17.238   3.802 -0.0322 -0.1983  0.1650
 5947W        W21078  10.213  15.804  15.595 -0.3289 -0.2901 -0.3232
 5948W        W21079   5.945   3.178   3.676  0.0914 -0.3577 -0.1939
 5949W        W21080   4.563  10.446  15.163  0.0841 -0.1393  0.3047
 5950W        W21081   1.968   9.409  11.934  0.0567  0.5241  0.1833
 5951W        W21082  10.149  17.250  10.509 -0.1812  0.0948  0.2406
 5952W        W21083  16.961  14.533  10.906  0.5409 -0.1624  0.0571
 5953W        W21084  17.443  13.181  14.468  0.0329 -0.1279 -0.3194
 5954W        W21085   8.032   7.334   1.375 -0.2047 -0.1767  0.0223
 5955W        W21086  16.225   4.385   4.966 -0.0310 -0.1990 -0.0091
 5956W        W21087   3.639   2.588  12.051 -0.0833  0.0480  0.1024
 5957W        W21088   1.640   7.058   2.076  0.1342  0.1098  0.3327
 5958W        W21089   7.285  14.933   4.396  0.1499  0.0194  0.3656
 5959W        W21090   2.551   2.756  12.836 -0.0367  0.1643 -0.0099
 5960W        W21091  10.650   0.459  11.264  0.1506  0.1621  0.0243
 5961W        W21092   0.313   7.754  15.360 -0.0304 -0.0211  0.2133
 5962W        W21093  16.114   4.763  12.715  0.3838  0.0428  0.4924
 5963W        W21094  10.350   7.425   0.765  0.0878  0.3007 -0.0422
 5964W        W21095  15.013  10.745  10.281  0.3369 -0.0872  0.4621
 5965W        W21096  11.225   9.707   3.965 -0.2999  0.2831 -0.0231
 5966W        W21097  17.520   6.806   5.183 -0.3354  0.4237 -0.2872
 5967W        W21098  15.003  18.267  13.082  0.4366  0.5941  0.1724
 5968W        W21099  14.807   0.318   5.033 -0.0311  0.1317 -0.2385
 5969W        W21100   8.442   2.543  10.898  0.5349 -0.2562  0.1856
 5970W        W21101  16.096  11.322  13.806 -0.0292 -0.0855  0.0708
 5971W        W21102   2.544   6.695  15.119 -0.0011  0.1548 -0.0078
 5972W        W21103  11.686  15.762   3.963 -0.1466  0.1996  0.0033
 5973W        W21104   1.253   4.638   2.037  0.3203  0.1812 -0.1093
 5974W        W21105   1.703   4.633   0.223 -0.0968  0.1235  0.0754
 5975W        W21106   7.301   4.215   4.056 -0.1494  0.1563 -0.0596
 5976W        W21107  11.434   3.724  12.020  0.1614  0.1948 -0.1953
 5977W        W21108   6.601   9.093  10.684 -0.2761  0.0188  0.0022
 5978W        W21109   8.349   7.867   0.756 -0.3535  0.0322 -0.1498
 5979W        W21110   3.521   6.714   4.835  0.2722 -0.1035  0.0883
 5980W        W21111   9.998  10.855   2.693  0.0552 -0.1092 -0.0377
 5981W        W21112   4.783  16.346   1.759 -0.1364  0.1472  0.2966
 5982W        W21113  14.040  13.690  12.480  0.0399  0.4047  0.0130
 5983W        W21114  14.183  17.660   0.157 -0.1110 -0.0332 -0.2011
 5984W        W21115   0.630   2.284   3.666  0.0800 -0.0705  0.2411
 5985W        W21116  15.283   9.543   4.549  0.0712  0.0060  0.2473
 5986W        W21117   3.161  16.059  13.513 -0.0776 -0.0403 -0.1434
 5987W        W21118  11.215  12.733   0.309  0.0310 -0.1803  0.2043
 5988W        W21119   9.551   5.489   3.999 -0.1613  0.1198 -0.0039
 5989W        W21120  13.456  14.828  12.399 -0.1482 -0.0169  0.0349
 5990W        W21121  18.068  13.113   0.264  0.2300  0.1196  0.1068
 5991W        W21122   8.796   9.805  11.336  0.0798  0.1194  0.1526
 5992W        W21123   9.096  11.260   0.882  0.0090 -0.0028 -0.1514
 5993W        W21124   0.640  13.919  13.512 -0.0250  0.0442 -0.0430
 5994W        W21125   4.282  16.145  15.377  0.1851 -0.0555  0.0787
 5995W        W21126   1.910   2.934  14.883  0.2194  0.2674  0.0878
 5996W        W21127   4.829   0.999  10.540  0.2414 -0.0865 -0.0540
 5997W        W21128   1.245   6.870  11.030  0.2232 -0.0121 -0.2393
 5998W        W21129  14.676   8.339   5.361  0.2585  0.2959 -0.0699
 5999W        W21130  17.042   2.779  11.859  0.1095  0.2104 -0.1544
 6000W        W21131  18.327  17.165  13.746  0.0503 -0.2862 -0.1224
 6001W        W21132   7.700   7.016   3.243 -0.2337  0.2179 -0.2663
 6002W        W21133   8.611  10.811  12.936  0.0102 -0.2088  0.2990
 6003W        W21134   0.696  14.497  12.415 -0.3495 -0.4143 -0.1208
 6004W        W21135  13.183   5.915  13.423 -0.1070  0.4660  0.0106
 6005W        W21136  11.821  13.701  13.183 -0.0871 -0.1589 -0.0564
 6006W        W21137   3.732   2.958   3.219  0.0684  0.1009  0.0954
 6007W        W21138   9.321   6.675   6.147  0.1100 -0.0542 -0.3609
 6008W        W21139   3.876  13.196  13.063 -0.2968 -0.1136 -0.1504
 6009W        W21140   4.388  18.020   0.369  0.0399 -0.0633 -0.1554
 6010W        W21141   5.502   5.334  11.610  0.0858 -0.1685  0.2787
 6011W        W21142   1.044  15.921   3.562  0.0764 -0.1190  0.0006
 6012W        W21143   9.510   5.517  13.430 -0.1316  0.5098 -0.2504
 6013W        W21144  12.898   6.409  14.140  0.0355 -0.2363 -0.1211
 6014W        W21145   6.687   9.232   3.986 -0.0994 -0.3174  0.1600
 6015W        W21146  16.489  16.233  14.356 -0.0563  0.2451  0.2304
 6016W        W21147   2.853  17.589   2.253  0.2343  0.2700  0.1147
 6017W        W21148  18.309   7.746   0.618 -0.0730 -0.0558 -0.1041
 6018W        W21149  18.514  13.425  13.595  0.0482 -0.1351  0.0885
 6019W        W21150  18.302  18.023  11.754  0.2092  0.2816 -0.1366
 6020W        W21151  13.350   3.660  10.844 -0.0800 -0.2790 -0.0515
 6021W        W21152   1.180   3.763  15.115 -0.3230 -0.1337 -0.0869
 6022W        W21153   5.759  10.247  12.860  0.0958 -0.2837  0.1239
 6023W        W21154  15.967   2.079  12.520 -0.0981 -0.0616  0.1599
 6024W        W21155  10.691   5.590  11.187  0.0248 -0.2766  0.4293
 6025W        W21156   6.753  15.444   4.927  0.1449  0.0893 -0.2667
 6026W        W21157   4.601  15.608   4.280  0.2221 -0.2002  0.2163
 6027W        W21158  10.208   0.656  15.102  0.0398 -0.1306 -0.2008
 6028W        W21159  15.843   2.608   4.317 -0.0183  0.0467 -0.3413
 6029W        W21160   2.046  13.474  13.597  0.1189  0.1528 -0.2464
 6030W        W21161   0.416  14.021  15.879 -0.0223 -0.0175  0.0360
 6031W        W21162   4.229  17.519   0.551  0.0073 -0.0418 -0.0167
 6032W        W21163   1.216   4.412  11.735 -0.1014  0.0445  0.1567
 6033W        W21164  10.191  11.086  15.590 -0.3558  0.0316 -0.0551
 6034W        W21165   0.179  15.877   4.304  0.1203 -0.1239  0.0458
 6035W        W21166   2.088  11.285   1.771  0.0044 -0.0926  0.0246
 6036W        W21167   1.648  16.231  11.445  0.4444 -0.0820 -0.2734
 6037W        W21168  15.958  15.730   3.418 -0.2090  0.1210 -0.4462
 6038W        W21169  16.623   3.130   1.112  0.0652 -0.1265 -0.1685
 6039W        W21170   2.376   4.675   3.615  0.2261 -0.2237  0.2964
 6040W        W21171   9.151   6.821   5.227  0.2964 -0.2325  0.1873
 6041W        W21172  12.456  11.006   0.393  0.0404  0.2967  0.1420
 6042W        W21173   2.006  15.742  15.156  0.3342 -0.0073 -0.2235
 6043W        W21174  14.099   9.198   3.751 -0.0937  0.2251  0.1008
 6044W        W21175   6.994  10.681   3.431  0.0261 -0.0124 -0.4226
 6045W        W21176  14.266  12.483  12.865  0.1201  0.0864  0.3237
 6046W        W21177  13.187  12.430  13.397  0.1577 -0.2063  0.0362
 6047W        W21178   8.265  10.019   4.108  0.4948  0.0313 -0.3748
 6048W        W21179  13.578  13.645  14.615 -0.0210  0.1117 -0.3219
 6049W        W21180   3.457  12.925  12.963 -0.0679 -0.1800 -0.2235
 6050W        W21181   5.165   3.238  10.439  0.4605 -0.0348 -0.0643
 6051W        W21182  12.398  11.921  11.361 -0.1229  0.0486 -0.1778
 6052W        W21183   8.167   8.766   3.154  0.0494 -0.0416 -0.1287
 6053W        W21184  16.017   1.283  14.424  0.0542  0.3050  0.0168
 6054W        W21185  13.991  11.874  11.139 -0.1477 -0.1493  0.2215
 6055W        W21186  10.482   6.614   3.863  0.2253  0.0901 -0.1323
 6056W        W21187   1.428  12.150  15.334  0.1531  0.1765 -0.0981
 6057W        W21188   1.195  10.368  10.221 -0.2794  0.3258 -0.3490
 6058W        W21189   2.897   5.574   3.924  0.1492  0.1657  0.0621
 6059W        W21190   1.684  15.771   0.302 -0.0137  0.1721  0.1581
 6060W        W21191   9.851   2.660   1.340  0.1745  0.0308  0.0177
 6061W        W21192   3.773   2.829   2.134 -0.3050 -0.2323 -0.1082
 6062W        W21193  12.315  15.654  12.735  0.2084  0.2827  0.0372
 6063W        W21194   3.013   2.374  15.242 -0.3391  0.0288  0.3940
 6064W        W21195   3.351   9.161  11.739  0.0286 -0.2630 -0.1849
 6065W        W21196  15.531  17.419   4.571  0.1512  0.1898  0.1163
 6066W        W21197  11.798   9.436   1.795  0.0365  0.2477  0.0329
 6067W        W21198  16.815  10.828   2.203  0.2233 -0.2519  0.1287
 6068W        W21199  13.067  11.924  14.971  0.0154  0.0328  0.0726
 6069W        W21200   6.315   0.437  11.648  0.2683  0.0685 -0.0487
 6070W        W21201  16.933   6.077  13.486 -0.0329  0.0387  0.0171
 6071W        W21202  17.332   3.257   3.047 -0.1009  0.2083  0.0961
 6072W        W21203  15.487  12.355   2.704  0.0329 -0.0949  0.1544
 6073W        W21204   6.966   9.602   4.277 -0.0796  0.1878 -0.1264
 6074W        W21205  15.755  18.339  11.880  0.1748 -0.0801 -0.1936
 6075W        W21206   9.326   2.563   3.792 -0.0410  0.0279 -0.1611
 6076W        W21207  10.338  10.014   3.077 -0.3521 -0.0549 -0.2747
 6077W        W21208   5.175  10.897   1.910 -0.0004 -0.1939  0.1497
 6078W        W21209   5.219  15.480  10.716 -0.2252 -0.1541 -0.3179
 6079W        W21210  12.673  12.735  15.571  0.2284 -0.1619 -0.0250
 6080W        W21211  11.538  13.022   0.823 -0.0576 -0.1575 -0.1442
 6081W        W21212  10.067   4.922   1.690  0.1552 -0.0966 -0.2955
 6082W        W21213  12.781   6.863   5.035 -0.0773 -0.3038  0.0622
 6083W        W21214   0.292   4.779  11.763  0.2311 -0.2190 -0.1694
 6084W        W21215   3.546   3.725   3.844  0.0964  0.3073  0.1114
 6085W        W21216  17.246  16.451   3.058  0.0609 -0.1871 -0.0511
 6086W        W21217   7.695   0.217   2.125 -0.2173 -0.0751  0.0477
 6087W        W21218   9.434   5.022  14.204 -0.2968  0.2846 -0.3477
 6088W        W21219   4.780  11.380   2.196  0.2743  0.1613  0.2784
 6089W        W21220   8.459  11.391   4.376 -0.0907  0.0945  0.0658
 6090W        W21221   4.995   4.909  13.193  0.2359  0.1597  0.0658
 6091W        W21222   0.338   8.402   0.650 -0.0920  0.0777  0.0548
 6092W        W21223   5.319  10.435   5.973 -0.1156  0.0085 -0.3547
 6093W        W21224  10.526   2.685   3.215 -0.1058 -0.2940  0.2172
 6094W        W21225   3.438  12.838   5.449 -0.2641  0.0311  0.3101
 6095W        W21226   2.347   0.061  14.613 -0.3340 -0.2094  0.2083
 6096W        W21227  14.948   7.048  12.916  0.1120  0.3113 -0.2105
 6097W        W21228   8.374  11.668  15.408  0.0444  0.2766 -0.0325
 6098W        W21229   5.525  12.789  11.818  0.2596  0.2741  0.0606
 6099W        W21230  17.908   0.704  11.633  0.0915 -0.1370  0.0921
 6100W        W21231   3.661  11.426   1.808  0.4329 -0.0024 -0.1862
 6101W        W21232   4.030  16.904  14.008  0.1298  0.1064 -0.1183
 6102W        W21233  13.857   9.393   0.389  0.0546  0.1485  0.3614
 6103W        W21234  10.455  15.731  12.233 -0.0429  0.2981  0.0903
 6104W        W21235  11.329  12.237  15.224 -0.0587  0.0554 -0.1054
 6105W        W21236   8.374  12.516   0.371  0.0056  0.2524 -0.1554
 6106W        W21237  10.122  14.473  13.300  0.1215 -0.1581  0.0799
 6107W        W21238   4.031   9.344   3.595 -0.0491  0.1024 -0.1843
 6108W        W21239   2.023  17.233   0.211  0.0957 -0.1885 -0.1539
 6109W        W21240  15.411   6.412  14.110 -0.3214  0.2157 -0.3609
 6110W        W21241   9.575  13.683  12.265  0.0400 -0.1017  0.1513
 6111W        W21242  16.898  11.563  12.785  0.0660  0.2745  0.2441
 6112W        W21243  16.541  11.189   5.980 -0.2244 -0.1651 -0.1177
 6113W        W21244   5.833  11.035   1.298 -0.0422  0.0040  0.0553
 6114W        W21245   4.647   9.616   4.359 -0.1840  0.0292 -0.2740
 6115W        W21246   0.179  17.938   1.735  0.3518  0.0123  0.0230
 6116W        W21247   2.439  15.765  12.348 -0.3886 -0.1045 -0.0338
 6117W        W21248   4.634   0.316   5.520  0.2292  0.0475 -0.3166
 6118W        W21249  13.325  10.912  11.284 -0.1206 -0.2229 -0.1978
 6119W        W21250   7.971   2.643  13.709  0.1038 -0.0139 -0.0969
 6120W        W21251   7.094  17.771   1.698  0.1880 -0.1385 -0.2677
 6121W        W21252   9.574   9.442   5.792 -0.1807  0.1241 -0.1315
 6122W        W21253   1.724  16.445   3.617  0.3907  0.0083 -0.1540
 6123W        W21254   4.232  10.070   0.443 -0.0179 -0.1506 -0.4080
 6124W        W21255   9.624   8.075  15.442 -0.1406 -0.1297  0.4290
 6125W        W21256  11.347  12.674   5.628 -0.0283 -0.2440 -0.2718
 6126W        W21257   4.596  11.529  12.847  0.1910  0.0688  0.2164
 6127W        W21258   7.336   0.833  14.330  0.3197 -0.3476 -0.1664
 6128W        W21259  17.079  17.496  12.658 -0.0249 -0.2446  0.0545
 6129W        W21260   5.319   4.141  10.769 -0.2786  0.3067 -0.0432
 6130W        W21261   8.029  10.427  11.669  0.2246 -0.0118  0.0644
 6131W        W21262   0.442  15.419   1.400 -0.1401  0.1542 -0.1547
 6132W        W21263  10.778  14.466   3.404  0.3581 -0.1727 -0.1654
 6133W        W21264   1.573  11.038   1.715 -0.1282 -0.2225 -0.0478
 6134W        W21265   8.026  18.256   0.931  0.0625 -0.2862 -0.0885
 6135W        W21266  10.697  18.396  12.708  0.0351 -0.0953 -0.0598
 6136W        W21267  14.528   6.714  13.121  0.3328 -0.0230 -0.1066
 6137W        W21268   3.184  11.508   4.600 -0.1862  0.1151 -0.2010
 6138W        W21269   7.912   8.604  10.393 -0.2625 -0.0334 -0.0425
 6139W        W21270  15.272  16.329  11.752  0.2841 -0.0918 -0.2106
 6140W        W21271   2.551   6.979  15.521 -0.2329 -0.2195  0.0163
 6141W        W21272   8.990   0.326   1.590  0.0351 -0.5202 -0.0287
 6142W        W21273  14.807   6.844  13.642 -0.0032 -0.0457 -0.2222
 6143W        W21274  13.495   0.420   0.413  0.0855  0.0406 -0.1384
 6144W        W21275   6.722  17.098  12.109 -0.1856 -0.3457 -0.0284
 6145W        W21276   3.811  14.610   1.157  0.2215 -0.1396  0.3355
 6146W        W21277   8.330  13.002  13.629  0.0615 -0.0869 -0.1121
 6147W        W21278  12.072   0.709  12.230  0.1935 -0.1233 -0.1239
 6148W        W21279  12.991   0.887   3.563  0.1362 -0.0536 -0.0468
 6149W        W21280   9.806   6.383   9.766 -0.0199  0.0228  0.1352
 6150W        W21281  11.197  12.441  14.813 -0.0318 -0.0027  0.0070
 6151W        W21282   9.276  11.978  12.962 -0.0959 -0.0350 -0.0305
 6152W        W21283  14.623  11.357  12.296 -0.0912  0.0492  0.1010
 6153W        W21284  14.431  14.596  15.466  0.1173  0.2055 -0.0527
 6154W        W21285  17.434   5.828  12.711  0.0750 -0.0782 -0.0340
 6155W        W21286   9.202  14.326  13.376  0.0773 -0.2827 -0.1111
 6156W        W21287  16.604   5.681  12.597 -0.1415 -0.1203 -0.2054
 6157W        W21288  10.845  17.072   3.807  0.0509 -0.0327  0.0190
 6158W        W21289   1.987   3.861  14.675  0.2940  0.1475  0.1466
 6159W        W21290  14.400  14.893  14.673 -0.2933  0.0479 -0.1091
 6160W        W21291   6.774  13.137  11.877  0.0551 -0.1706  0.0023
 6161W        W21292  10.966   1.321  12.615  0.1232 -0.2477  0.0159
 6162W        W21293   9.807  16.303  12.740  0.4690 -0.1089 -0.2207
 6163W        W21294  15.165  10.514  11.682  0.2187 -0.0933  0.0612
 6164W        W21295   0.019  10.735  12.792  0.3907  0.0205  0.5956
 6165W        W21296  11.449  10.059  13.832  0.1642  0.2585  0.0472
 6166W        W21297  15.675   5.104  15.808  0.2924  0.1669 -0.2256
 6167W        W21298  14.461   4.513  13.530 -0.1229  0.0170 -0.1397
 6168W        W21299   0.781   4.064   4.118  0.1593  0.1436 -0.1094
 6169W        W21300   1.315   8.296   4.442 -0.3604  0.0784  0.0288
 6170W        W21301  12.519  14.052   1.068 -0.1883  0.0305 -0.2981
 6171W        W21302  16.164  15.481   1.006 -0.1360  0.1471 -0.3141
 6172W        W21303  14.538   6.772   2.374 -0.3192 -0.2208 -0.1984
 6173W        W21304   9.421   6.726   5.669 -0.3526  0.2249  0.0439
 6174W        W21305   1.846  16.279   0.260  0.2707  0.3188 -0.1661
 6175W        W21306   0.007  10.561   1.980 -0.2474  0.1830  0.1354
 6176W        W21307  10.587   3.281   1.018 -0.3908 -0.0978  0.0277
 6177W        W21308  10.586   9.640   3.244  0.1451  0.1471  0.0883
 6178W        W21309   5.989   8.250  14.940 -0.0706 -0.2233  0.0189
 6179W        W21310   6.367   3.240  12.514  0.0038 -0.0212  0.0680
 6180W        W21311   1.973   3.966   2.080 -0.0496  0.1047  0.0859
 6181W        W21312   6.335   4.972  15.095  0.0714  0.3180  0.1757
 6182W        W21313   2.205   3.381   2.004  0.0129 -0.0613 -0.0498
 6183W        W21314  12.876  10.924  13.215  0.1848  0.0629 -0.2461
 6184W        W21315  11.977   2.029   1.451  0.0173  0.0517  0.0310
 6185W        W21316  14.960  12.263  11.446  0.1775 -0.0439 -0.1586
 6186W        W21317  12.326  15.360   4.883  0.1153  0.3796 -0.1346
 6187W        W21318  11.424   0.693  15.188 -0.0789  0.2008  0.3579
 6188W        W21319   5.351  14.311  14.484  0.2301  0.0629 -0.1297
 6189W        W21320  17.896   9.910   5.446 -0.0557  0.0475 -0.0516
 6190W        W21321   3.228   7.737  11.703  0.0892  0.0666 -0.0191
 6191W        W21322   2.523   3.087   5.042  0.1090  0.2608  0.0142
 6192W        W21323   6.881   2.078  10.251 -0.0724 -0.1540  0.3489
 6193W        W21324   7.136  15.697  11.500  0.0003  0.0542  0.0656
 6194W        W21325  16.665  10.058   2.186 -0.1088 -0.1622 -0.1064
 6195W        W21326  16.439  17.087   3.919  0.2100 -0.1993 -0.0282
 6196W        W21327   1.584  10.675   4.582 -0.2955  0.0665  0.2033
 6197W        W21328  10.407   6.826  12.214  0.0292 -0.0901  0.1921
 6198W        W21329   5.601  15.171  14.260  0.2733 -0.1564  0.0001
 6199W        W21330  13.876   3.003   3.062 -0.0356  0.0960  0.4733
 6200W        W21331  17.141  16.646   6.287 -0.3984 -0.1777  0.1519
 6201W        W21332   9.818   9.487   0.548  0.0366 -0.2096 -0.1640
 6202W        W21333   0.493   8.903  13.982  0.1258 -0.0621 -0.6081
 6203W        W21334  13.478  15.251  14.663 -0.1676 -0.0451  0.0061
 6204W        W21335   4.993   2.055   2.184  0.0261  0.0365 -0.1451
 6205W        W21336   4.988   6.844   2.286 -0.1957 -0.0128 -0.0199
 6206W        W21337  15.098   4.992   3.074 -0.2277 -0.0201 -0.2091
 6207W        W21338   3.762  11.753   3.951  0.3445 -0.1762  0.2207
 6208W        W21339   7.311   5.292   3.641  0.1803  0.0353 -0.0660
 6209W        W21340   6.171  17.402   1.273 -0.2195  0.1725  0.0328
 6210W        W21341   5.150  10.578   4.165 -0.1485  0.1836 -0.2926
 6211W        W21342  16.731   9.551  14.211  0.0521 -0.0360 -0.0953
 6212W        W21343  18.283  17.364   2.510 -0.2785  0.1422  0.0167
 6213W        W21344   2.236  16.021   0.110 -0.0006 -0.2616 -0.1795
 6214W        W21345   2.298  18.114  14.526 -0.0669 -0.2764  0.0620
 6215W        W21346  16.092   0.037   5.721 -0.1376 -0.2820 -0.0285
 6216W        W21347   8.815  11.726  13.079 -0.1718  0.1286  0.0376
 6217W        W21348   5.136  17.562  10.357 -0.1977  0.2133  0.1077
 6218W        W21349   8.119   2.250  13.287 -0.1563 -0.1562 -0.0558
 6219W        W21350  11.531   2.331   3.959 -0.0832 -0.2166 -0.1185
 6220W        W21351  18.507  13.941   4.531  0.0090  0.1461 -0.0550
 6221W        W21352   7.321   1.542  14.986 -0.2073 -0.0352 -0.1905
 6222W        W21353  13.826  18.072  15.889  0.0081  0.1223  0.0848
 6223W        W21354   3.520   3.664  12.578 -0.2421 -0.0587  0.1846
 6224W        W21355   0.128  10.515   3.719  0.2097  0.0315  0.2802
 6225W        W21356  12.296  12.679   1.132 -0.0548  0.1149  0.0102
 6226W        W21357  17.851  13.782   3.427  0.3202  0.0306  0.0491
 6227W        W21358   8.584  17.546  15.657 -0.0124 -0.0657 -0.6141
 6228W        W21359  14.426   7.880   3.245  0.0989 -0.4679  0.3180
 6229W        W21360  10.810   9.485   2.115  0.1333 -0.0051  0.0273
 6230W        W21361   2.463   3.146  15.720  0.2132  0.1751 -0.0228
 6231W        W21362   4.822  18.372  11.210 -0.3177 -0.0246  0.2493
 6232W        W21363   6.302   3.182  15.417 -0.1383  0.0726 -0.0053
 6233W        W21364  17.482  16.678   1.216  0.2821 -0.2586  0.0632
 6234W        W21365   6.956  15.593  10.917 -0.0720  0.2736  0.1080
 6235W        W21366  14.696   2.359  11.053  0.0792 -0.0399  0.2488
 6236W        W21367  16.093  17.628   6.226  0.0380 -0.2203  0.1423
 6237W        W21368  14.880   7.865  15.204  0.1162  0.1218 -0.2556
 6238W        W21369  13.180   7.291  15.438  0.2299 -0.0144 -0.1740
 6239W        W21370  17.300   0.579   4.980  0.2499  0.1542  0.1308
 6240W        W21371   5.873   9.114  11.333  0.3200  0.0061 -0.0616
 6241W        W21372   3.504   1.409   3.799 -0.3258 -0.0472  0.1163
 6242W        W21373   5.626  13.172   0.558 -0.0771  0.4038 -0.0008
 6243W        W21374   1.113   1.257  11.397  0.0372  0.3540  0.1142
 6244W        W21375   5.335   7.572   4.455 -0.1505  0.2302 -0.0061
 6245W        W21376  10.258   0.852   2.970 -0.0589 -0.1984  0.0474
 6246W        W21377   1.990   1.043   1.776  0.1539 -0.1837  0.0262
 6247W        W21378   1.670   2.295  13.784  0.3136  0.0631 -0.1713
 6248W        W21379   4.700  15.708  10.752 -0.2294  0.0077 -0.0380
 6249W        W21380  14.448   2.601   0.712 -0.1642  0.3836  0.1872
 6250W        W21381   7.268   5.541  15.041 -0.1556  0.1821  0.0995
 6251W        W21382  15.383   6.806  15.391 -0.0385  0.2413  0.3840
 6252W        W21383   5.566  11.099   3.845 -0.1317 -0.1363 -0.1395
 6253W        W21384  11.771   0.174  15.882  0.3558 -0.1335 -0.0119
 6254W        W21385   1.501   5.800   4.815 -0.0801  0.0230  0.1636
 6255W        W21386   7.863   5.642  14.440 -0.2293  0.1132 -0.2300
 6256W        W21387   6.740  12.803   2.675 -0.0681 -0.1839 -0.1003
 6257W        W21388  10.682  15.793   0.088  0.0519  0.3461  0.2774
 6258W        W21389  16.720  10.611   0.964  0.3237 -0.0419 -0.0066
 6259W        W21390   8.997   7.173   4.631 -0.4755  0.1770 -0.0121
 6260W        W21391   7.458  13.028  12.397 -0.1744  0.0608  0.0715
 6261W        W21392  14.900  15.290  11.709 -0.0381  0.4122  0.0275
 6262W        W21393  17.251   3.959  12.818  0.3202  0.0977 -0.3041
 6263W        W21394   5.662   1.677  10.509 -0.0731  0.1571  0.0130
 6264W        W21395   2.250   2.181   0.238 -0.1371 -0.2289 -0.0873
 6265W        W21396  12.647   6.881   1.986  0.0027  0.2555 -0.1848
 6266W        W21397  14.478   2.855  14.132  0.5814  0.3408 -0.2794
 6267W        W21398  18.123   4.657   1.157  0.1070  0.2746  0.0354
 6268W        W21399   1.598   8.440   2.018  0.2517 -0.0311 -0.1691
 6269W        W21400  17.481   4.089   4.755  0.0448  0.1321  0.0582
 6270W        W21401  15.080   8.226  10.467  0.0390 -0.2283  0.1758
 6271W        W21402   3.641  12.650   3.021 -0.1110  0.3730 -0.2010
 6272W        W21403   9.645   1.122   3.359  0.0355  0.0628  0.0195
 6273W        W21404  15.998  15.958   2.328  0.4221 -0.1760  0.2797
 6274W        W21405  14.423  16.130  14.774  0.1881  0.0080  0.1362
 6275W        W21406   5.734  11.518   1.354 -0.0585 -0.0526  0.1121
 6276W        W21407  15.961  16.920   5.398  0.1390 -0.0700  0.1744
 6277W        W21408   4.561   3.772   2.921 -0.1748 -0.2918  0.1842
 6278W        W21409   3.769  12.304  12.673  0.0110 -0.2285 -0.1085
 6279W        W21410  13.917   3.490   3.119  0.1669  0.2126 -0.0682
 6280W        W21411   8.704   8.227  12.764 -0.0505  0.0929  0.0309
 6281W        W21412   6.265   1.617   4.885  0.1813  0.0573 -0.0445
 6282W        W21413   2.803  10.628   3.882  0.2962  0.0025 -0.1106
 6283W        W21414  12.492   2.414   1.179 -0.1763  0.3714  0.2371
 6284W        W21415  18.247   2.217  11.926  0.1479  0.1833  0.0300
 6285W        W21416   7.788   4.933   1.137  0.1673 -0.2408 -0.4770
 6286W        W21417   8.108  18.087  13.027  0.2226 -0.0454 -0.0871
 6287W        W21418  17.440   9.551   5.233 -0.2026 -0.0365 -0.1831
 6288W        W21419   6.135   9.554  15.180  0.0048 -0.3841  0.0190
 6289W        W21420  11.888   0.271  12.729  0.1937 -0.0195 -0.1966
 6290W        W21421  15.681   6.643  14.512  0.4510 -0.2814 -0.1826
 6291W        W21422   6.711  16.520   2.510 -0.2387  0.0268 -0.1362
 6292W        W21423   4.861   1.598  15.130 -0.1573  0.2625 -0.0756
 6293W        W21424  10.791   0.915  11.490 -0.0216 -0.0117 -0.0081
 6294W        W21425  14.789   7.251   2.427 -0.0807  0.1583  0.1730
 6295W        W21426   8.246  10.876   3.106  0.2185 -0.1490  0.1256
 6296W        W21427   3.650   0.814  15.668  0.0891 -0.3616  0.0562
 6297W        W21428  12.132  16.631  14.484 -0.0813 -0.1113 -0.1192
 6298W        W21429  11.740   4.731  15.400  0.1125  0.3058 -0.1985
 6299W        W21430   3.690   8.987   1.620 -0.1934 -0.1721 -0.0316
 6300W        W21431   1.918  15.005   2.346 -0.0422  0.1017  0.4033
 6301W        W21432  18.391  14.140  12.339 -0.0533  0.4162  0.0698
 6302W        W21433   5.621  14.735   1.009  0.0921 -0.3889  0.0546
 6303W        W21434  14.306   0.315   1.598 -0.0002 -0.2075 -0.0877
 6304W        W21435  10.028  18.477  13.397 -0.2434 -0.0429  0.1410
 6305W        W21436  12.045   7.155  12.831  0.1418 -0.1598 -0.2017
 6306W        W21437  10.373  10.123  12.820  0.0675 -0.2841  0.3283
 6307W        W21438   9.312  13.515  13.255 -0.0249  0.0004 -0.1716
 6308W        W21439   7.276  13.499  14.904  0.0591  0.0394 -0.1185
 6309W        W21440  18.270  16.111   2.288 -0.0420  0.1845  0.2853
 6310W        W21441  10.988   2.380   2.019 -0.2007 -0.0517  0.1541
 6311W        W21442  18.429   5.088   5.301  0.1553  0.1553  0.1524
 6312W        W21443   6.018   9.478   5.139  0.2457  0.1440  0.2608
 6313W        W21444  10.794   6.761   2.508  0.1453 -0.0525 -0.0523
 6314W        W21445   0.097  17.638   2.096  0.0392  0.0155 -0.1666
 6315W        W21446   1.633   1.351  13.212  0.1863  0.2454  0.0994
 6316W        W21447   4.172  10.848   0.624  0.2095 -0.3335 -0.1155
 6317W        W21448   6.413   3.175   3.496 -0.0550 -0.0660 -0.1197
 6318W        W21449   7.516   7.824   0.201  0.0036 -0.0897 -0.0465
 6319W        W21450   7.616  10.987   5.360  0.0377 -0.1299  0.0760
 6320W        W21451  15.330   7.842  15.366  0.2189  0.0978 -0.1576
 6321W        W21452   2.793   0.383  14.334  0.2121 -0.0169  0.1111
 6322W        W21453   9.955  16.409  10.388  0.2638 -0.2953  0.5386
 6323W        W21454  12.475   0.581   0.134 -0.0951  0.0566  0.0181
 6324W        W21455   6.227  10.808  15.215  0.0199  0.0422  0.0394
 6325W        W21456  12.705  12.018  10.535  0.1024  0.0301 -0.0292
 6326W        W21457   1.045   9.738  10.971  0.0579 -0.3886 -0.1498
 6327W        W21458   9.863   5.769   9.832 -0.2194  0.1265 -0.2405
 6328W        W21459  10.881   4.557  14.837  0.1240  0.0370 -0.1801
 6329W        W21460   4.584  14.940   4.755 -0.2542  0.1674 -0.4410
 6330W        W21461  11.239  15.295   0.337  0.0878  0.0219  0.0811
 6331W        W21462  15.598  12.395   3.709 -0.0422  0.1337  0.0037
 6332W        W21463   4.588   6.603  13.766 -0.0994  0.2448  0.0425
 6333W        W21464   5.450  13.227   1.094  0.1716  0.0329 -0.2874
 6334W        W21465  13.692  14.947   1.269 -0.1996  0.1174  0.1354
 6335W        W21466   3.921   8.549  15.486  0.0113 -0.1981 -0.1366
 6336W        W21467   6.061   9.027  14.447 -0.1382 -0.3043 -0.0152
 6337W        W21468   1.130   7.258  14.793  0.1905 -0.0347 -0.0599
 6338W        W21469  12.623   8.586   4.472 -0.0042  0.1608 -0.0143
 6339W        W21470  18.275  15.376  12.328  0.3655  0.1761  0.1842
 6340W        W21471   6.823  14.143  14.912  0.2087 -0.3040  0.3174
 6341W        W21472   3.015   9.615  13.774 -0.0529  0.1903 -0.2560
 6342W        W21473   8.581   3.866  12.808 -0.1167 -0.0498 -0.0317
 6343W        W21474   8.821   8.823  14.396 -0.0933  0.2082  0.0323
 6344W        W21475   9.515  15.461  12.481  0.1769 -0.0261  0.2974
 6345W        W21476   2.312   9.050  13.290  0.0659  0.0345  0.0140
 6346W        W21477  14.979  16.524   1.882 -0.0923  0.1156 -0.0182
 6347W        W21478   9.705   3.732   3.154  0.1379 -0.1883 -0.2722
 6348W        W21479  13.912   1.020  13.221  0.1818  0.1013  0.0747
 6349W        W21480  13.309  10.543   2.032 -0.0095 -0.0811  0.1222
 6350W        W21481   5.154  10.644  12.628  0.0013  0.3563 -0.2345
 6351W        W21482  18.394  10.207  12.726  0.3266  0.1410 -0.1342
 6352W        W21483   5.502  10.363  11.326  0.3661 -0.0886 -0.0765
 6353W        W21484   9.191   8.033  10.842  0.1536  0.3049  0.0094
 6354W        W21485   7.531   4.293  15.309  0.1831  0.1423  0.1536
 6355W        W21486  12.054   9.551  12.823  0.1078 -0.2544 -0.1882
 6356W        W21487   7.561  18.082   3.256  0.0318  0.1020  0.2480
 6357W        W21488  13.724   1.352  15.804  0.0430  0.0873  0.0838
 6358W        W21489  11.271  17.619  13.746 -0.0077  0.0612 -0.2077
 6359W        W21490  16.274  14.068   4.503  0.1274 -0.0260 -0.2812
 6360W        W21491   6.140  10.056  14.353  0.2218  0.0143 -0.0103
 6361W        W21492   7.892   5.776  12.485 -0.2069  0.1111  0.1112
 6362W        W21493  11.395  11.238   3.360  0.1421 -0.3143  0.2545
 6363W        W21494   1.878  12.682   2.081 -0.0230 -0.0600  0.2753
 6364W        W21495   0.643   8.227   2.221 -0.2142  0.3159  0.1555
 6365W        W21496   5.469   6.754   3.261 -0.2477  0.0528 -0.1604
 6366W        W21497  13.311   2.252  14.971  0.2569  0.1380 -0.1885
 6367W        W21498   1.472  17.702   4.581 -0.1300 -0.2548 -0.2474
 6368W        W21499   9.799   6.380   5.630 -0.1589  0.0171 -0.1125
 6369W        W21500  12.809  13.987   9.394  0.2848  0.0234 -0.2463
 6370W        W21501   8.967   1.946   0.152 -0.2237  0.0326 -0.1184
 6371W        W21502   3.267  16.462  13.001  0.1070  0.1119 -0.3079
 6372W        W21503   2.505  16.759   3.371 -0.2889 -0.2227  0.1132
 6373W        W21504   4.424   5.229   1.167 -0.2739 -0.1489  0.1421
 6374W        W21505  15.428   8.460  13.668 -0.2392  0.0868 -0.0990
 6375W        W21506  17.848   8.004  15.697  0.0998 -0.2124 -0.0814
 6376W        W21507  16.862  16.741   2.664  0.1674 -0.1058 -0.2253
 6377W        W21508   0.335   2.364  14.599 -0.2351  0.4100  0.0848
 6378W        W21509  12.186   7.096   1.850  0.2297  0.0080  0.0014
 6379W        W21510   8.919  10.607  14.633 -0.2539  0.0883  0.2273
 6380W        W21511  15.337   7.122   4.506  0.1217  0.0586  0.0569
 6381W        W21512   2.408  10.874   1.880 -0.2476  0.3523  0.1570
 6382W        W21513  16.248   9.267   2.471  0.0674 -0.0846  0.3010
 6383W        W21514  11.602   6.272   4.091  0.1727  0.0494 -0.2223
 6384W        W21515  12.055   0.548  13.668  0.1181  0.0173 -0.0276
 6385W        W21516   4.595  14.408   4.719 -0.1185 -0.1508  0.0413
 6386W        W21517  13.969   9.074  14.950 -0.1088  0.0886  0.2705
 6387W        W21518   9.198   7.368  12.509 -0.0134 -0.0983 -0.2703
 6388W        W21519  18.302  18.186  15.464  0.0525 -0.1650  0.0120
 6389W        W21520   4.842   0.850   2.757  0.3485 -0.0785  0.1562
 6390W        W21521   8.080   8.935   1.022 -0.2194  0.0644 -0.1202
 6391W        W21522   3.875  14.446  14.823 -0.1938 -0.1406  0.0870
 6392W        W21523   8.734   0.173  15.464 -0.2561  0.0476  0.0864
 6393W        W21524   1.502   3.634   4.271  0.2611 -0.0669 -0.0927
 6394W        W21525   8.711   7.544  12.707  0.1218 -0.0081 -0.5155
 6395W        W21526   4.584  14.369  13.620  0.1500 -0.0163 -0.0067
 6396W        W21527   7.245   3.747  14.397 -0.2193 -0.2255  0.0314
 6397W        W21528   5.743   3.354   4.673 -0.3178  0.0174  0.1961
 6398W        W21529   6.197   3.609   3.636 -0.2709 -0.0296 -0.1904
 6399W        W21530   1.027  15.164  12.184  0.0752  0.2155  0.0817
 6400W        W21531  17.106   0.216   1.641  0.0078 -0.2518 -0.0047
 6401W        W21532  11.835  15.381  10.466 -0.0846  0.1497  0.2352
 6402W        W21533  17.015   9.760  10.019 -0.3445  0.0332 -0.0780
 6403W        W21534   3.909  18.009  10.521  0.1191 -0.2806 -0.1864
 6404W        W21535  12.104   5.579   6.031  0.0981  0.0733 -0.1933
 6405W        W21536  10.193  11.098  11.183 -0.0936  0.0536  0.2195
 6406W        W21537  11.657  18.213  14.610 -0.1984 -0.0658 -0.1380
 6407W        W21538   0.743  12.966   5.240  0.1179  0.3701  0.3701
 6408W        W21539  11.457   0.986  14.248  0.0119 -0.1710 -0.0786
 6409W        W21540   5.536   3.156  13.753  0.0604  0.2299  0.1947
 6410W        W21541  10.721   9.811  12.809  0.0356 -0.1708  0.0924
 6411W        W21542  18.316  12.107   5.409  0.4015 -0.0268  0.1746
 6412W        W21543   8.263   5.404  10.965 -0.0700 -0.0891  0.2063
 6413W        W21544   6.274  16.840   4.548  0.2496 -0.0614  0.0614
 6414W        W21545   2.407  12.536   3.388 -0.0817  0.0052 -0.0988
 6415W        W21546   6.701   1.203  12.283 -0.0552 -0.0217  0.0659
 6416W        W21547  18.258   5.169   1.644 -0.1380  0.2524  0.0594
 6417W        W21548  16.557  14.835  14.692 -0.2189  0.1069  0.2453
 6418W        W21549   3.025  12.692   1.617  0.2120 -0.0577  0.0964
 6419W        W21550   3.883  17.765  15.553  0.0428  0.2897 -0.0511
 6420W        W21551  12.665  16.726   2.345 -0.1663 -0.2447 -0.1519
 6421W        W21552  13.177  17.994  10.990 -0.1375  0.1983  0.1992
 6422W        W21553  15.209  10.374   4.899  0.1406 -0.0489  0.1305
 6423W        W21554   7.087  15.800  13.619  0.2278  0.1332  0.0978
 6424W        W21555  16.294  11.955   2.960  0.3107  0.0439  0.2483
 6425W        W21556  11.063  16.913   3.319  0.2367  0.2792 -0.2722
 6426W        W21557   2.623   3.606   2.678 -0.2218 -0.0253 -0.1761
 6427W        W21558   8.135  15.644  11.267  0.0251 -0.0417  0.1820
 6428W        W21559  13.101   8.282   3.231 -0.0706  0.1867  0.0217
 6429W        W21560   8.927   9.018   1.185  0.2934 -0.0028 -0.1259
 6430W        W21561  12.992  16.825  15.782  0.0778  0.0940 -0.1103
 6431W        W21562  11.586   5.450   0.166  0.1470  0.2784 -0.2939
 6432W        W21563  10.666  17.836  11.974  0.1560 -0.2017 -0.1393
 6433W        W21564   1.061  18.028   2.170 -0.0540  0.0711 -0.1522
 6434W        W21565   7.656   8.800   0.832 -0.0121 -0.0859  0.0542
 6435W        W21566   4.270  10.895  14.979  0.0691  0.1912 -0.3688
 6436W        W21567  14.815  11.533   0.579  0.1156  0.1612  0.0336
 6437W        W21568   6.756   4.236   1.753 -0.0253  0.0538  0.2786
 6438W        W21569   9.567  10.470   1.980 -0.1832 -0.0714  0.0242
 6439W        W21570   2.776   3.812  14.974 -0.0906 -0.1427 -0.3783
 6440W        W21571   9.935  14.891   2.779  0.3006 -0.2450  0.1427
 6441W        W21572   4.035   2.541  14.531 -0.0840  0.1627 -0.3096
 6442W        W21573   2.904   8.717   4.642  0.1601 -0.0480  0.1182
 6443W        W21574  12.506  11.681  10.128  0.2852 -0.0077 -0.1218
 6444W        W21575   5.897   0.325  12.952 -0.0760  0.1105 -0.1076
 6445W        W21576   8.704  16.858  10.774  0.1189 -0.0838 -0.0868
 6446W        W21577  13.115   0.260   2.849  0.2541 -0.4225 -0.4511
 6447W        W21578   1.011   0.251  12.988 -0.3271  0.2542  0.2014
 6448W        W21579  14.015  11.871   3.545  0.0453 -0.3473  0.1704
 6449W        W21580   8.082  16.115  10.381 -0.1439  0.1771 -0.1076
 6450W        W21581   3.905   8.229  13.494 -0.0227  0.2222  0.1066
 6451W        W21582   8.597   5.376   4.316  0.1772 -0.3495  0.0978
 6452W        W21583   7.574  16.875   1.925 -0.0848  0.3522 -0.1205
 6453W        W21584   8.734  14.385  11.544 -0.1077  0.1982  0.2457
 6454W        W21585   3.550  16.259   0.706 -0.1902 -0.2837 -0.2641
 6455W        W21586  10.970  13.642  14.424 -0.0607 -0.1321  0.3295
 6456W        W21587  16.044  14.892  12.471 -0.0452  0.1169 -0.0334
 6457W        W21588   0.235   3.362  13.722  0.3168 -0.2509  0.0720
 6458W        W21589  10.928  18.025  15.050 -0.1505 -0.2342  0.0188
 6459W        W21590   8.646   6.546  11.117 -0.2133 -0.3204  0.0271
 6460W        W21591  14.391  16.438   3.235 -0.1716 -0.0578 -0.0695
 6461W        W21592   2.604  13.178   1.425 -0.0119 -0.3701  0.0626
 6462W        W21593  11.941   9.973   3.895  0.0648  0.1113  0.1969
 6463W        W21594   3.592  13.017   3.873 -0.0996  0.0152  0.3088
 6464W        W21595   6.272  14.439  14.507 -0.3436  0.0314  0.1923
 6465W        W21596   5.211  13.066  13.551 -0.1732 -0.1571 -0.1838
 6466W        W21597   7.590   6.939   0.602 -0.1249 -0.1130 -0.0469
 6467W        W21598   8.704  17.356  10.790 -0.0792  0.1804  0.1886
 6468W        W21599   5.702  10.258   2.284 -0.2828 -0.0505 -0.1199
 6469W        W21600   1.483   9.528   3.673  0.1526 -0.1452  0.1710
 6470W        W21601  10.582   2.524   2.724  0.1961 -0.2718  0.0663
 6471W        W21602   8.364  17.358  11.166  0.0999  0.0984 -0.1821
 6472W        W21603   5.991  14.365  14.041  0.0610 -0.0203  0.0385
 6473W        W21604   4.460   6.966   3.248 -0.1493  0.3013  0.1531
 6474W        W21605   3.913  16.042   3.414 -0.0644  0.1452 -0.2283
 6475W        W21606   1.961  14.154  15.169  0.1989 -0.1413  0.3086
 6476W        W21607  17.933   5.218   4.284  0.1388 -0.1550  0.1970
 6477W        W21608   6.947   5.523  13.813  0.1216  0.2087  0.1201
 6478W        W21609  12.261  14.068  14.811 -0.0205  0.0054 -0.3623
 6479W        W21610   3.580  10.643   4.994 -0.0821 -0.1745  0.0199
 6480W        W21611   8.555  16.869  11.262 -0.1111 -0.2176 -0.3302
 6481W        W21612   3.630   4.682   0.099 -0.0292 -0.3194  0.1857
 6482W        W21613   3.937  15.523   2.130  0.0988  0.0428  0.0046
 6483W        W21614  16.832   4.447   0.138  0.1872 -0.1834 -0.1132
 6484W        W21615  12.351   0.403   4.637 -0.4722 -0.3821  0.4033
 6485W        W21616   0.639   4.345  15.712 -0.1568  0.4203  0.4207
 6486W        W21617  17.680   2.945   4.059 -0.0846  0.1015 -0.0796
 6487W        W21618   4.651   2.935   5.904 -0.1564  0.0089  0.0170
 6488W        W21619   1.750  10.779   0.573  0.1413 -0.1016 -0.1522
 6489W        W21620  12.362   3.696  14.921 -0.0186  0.2362 -0.3527
 6490W        W21621  10.533  14.508   0.359  0.1671  0.3180  0.2406
 6491W        W21622   9.239   3.984   1.090  0.0894  0.2752 -0.1983
 6492W        W21623   5.425   4.739   4.418  0.2484 -0.0728 -0.1600
 6493W        W21624   1.952  16.295  15.638  0.2854 -0.2141  0.4421
 6494W        W21625   8.809   3.224  15.853 -0.0581 -0.0251 -0.0370
 6495W        W21626   0.209   3.994   3.648  0.0453 -0.1061  0.1767
 6496W        W21627  12.330   1.318  15.716 -0.0877 -0.0535  0.2205
 6497W        W21628   0.754  13.092   1.046 -0.0860  0.0771  0.2622
 6498W        W21629  14.292  15.499  14.035  0.2822 -0.1994  0.1051
 6499W        W21630   7.691  15.547   4.727  0.0589 -0.1695  0.1829
 6500W        W21631   4.514  16.164   0.862  0.1684  0.2845 -0.1861
 6501W        W21632  12.542  14.419   9.460  0.1546  0.0713  0.2319
 6502W        W21633  11.256  13.113  14.213 -0.3667  0.2083 -0.2802
 6503W        W21634  15.122   3.777   2.833 -0.1232  0.0246  0.2093
 6504W        W21635   1.926   1.789   4.590 -0.3204  0.0390  0.1527
 6505W        W21636  15.712  14.758   3.994  0.2107  0.0250  0.2417
 6506W        W21637  17.660   3.665  12.993 -0.5517  0.3191 -0.3044
 6507W        W21638  14.758  12.975   9.397 -0.0596 -0.1531  0.2781
 6508W        W21639   1.701   3.544  12.650  0.0755  0.2004  0.1530
 6509W        W21640  18.010  11.901   3.782 -0.0188  0.0120  0.1623
 6510W        W21641  16.558  10.226  14.811  0.5329  0.2232  0.0161
 6511W        W21642   6.187  13.066  11.199 -0.0509  0.2234  0.0086
 6512W        W21643  15.711   1.310  12.035 -0.1381 -0.1818  0.0812
 6513W        W21644   0.677   8.312   2.869  0.2399  0.2010 -0.0379
 6514W        W21645   0.385  11.445   4.797 -0.2446 -0.1755 -0.0297
 6515W        W21646  14.333   0.363   3.569 -0.2331 -0.3125 -0.0022
 6516W        W21647  15.460   2.864   1.510  0.1478 -0.0989 -0.0447
 6517W        W21648   6.985  16.770  15.652  0.0069 -0.0490 -0.1316
 6518W        W21649   1.833  15.081   3.304  0.0851  0.2038  0.1169
 6519W        W21650   1.071  13.654   0.256 -0.2701 -0.0333  0.1668
 6520W        W21651   1.668   9.587  15.531  0.2719  0.1731 -0.0212
 6521W        W21652  17.124  15.523  15.454  0.0433  0.0663  0.1382
 6522W        W21653   4.462  15.994   3.293  0.3045 -0.1174  0.1904
 6523W        W21654   4.754   5.526   0.955 -0.1039 -0.2537 -0.1262
 6524W        W21655  11.561   5.640  15.583  0.2933  0.0211  0.0024
 6525W        W21656  13.738   8.400   5.477  0.1321 -0.1149 -0.2242
 6526W        W21657   1.272   3.977   5.567 -0.1023  0.0471  0.1807
 6527W        W21658  14.184   5.131   4.776  0.1595  0.1527 -0.1130
 6528W        W21659   1.913   1.655  12.927  0.1530  0.0544  0.1977
 6529W        W21660   0.567   0.800   3.705 -0.2900  0.1115 -0.0477
 6530W        W21661   0.811   4.569   1.032  0.0369 -0.0095  0.2157
 6531W        W21662  15.291   7.390  12.614  0.0323  0.2881  0.0395
 6532W        W21663   2.702  15.245  15.618 -0.3867  0.0673 -0.2162
 6533W        W21664   0.197  11.360  12.529  0.1791  0.2873  0.0573
 6534W        W21665  14.600   9.001   0.652  0.0646  0.1003 -0.0509
 6535W        W21666  10.636   2.536   4.091  0.2078  0.1574  0.0417
 6536W        W21667   1.957   7.482   1.056 -0.2978 -0.1099  0.1020
 6537W        W21668  17.955   0.617   4.542  0.0083 -0.0700  0.1142
 6538W        W21669  11.674   4.781  14.414  0.0250  0.2297 -0.1496
 6539W        W21670  17.604  11.105  11.180 -0.3185 -0.0587  0.1970
 6540W        W21671  11.177  14.571  14.116 -0.0575  0.0132 -0.3335
 6541W        W21672   1.809   8.320  14.374 -0.0789  0.1630 -0.1929
 6542W        W21673   0.902  12.910  14.956 -0.4495 -0.0545  0.0009
 6543W        W21674   9.881   4.796  14.434 -0.1214  0.0196  0.0863
 6544W        W21675  14.850   6.899  15.478  0.0416  0.1712  0.1881
 6545W        W21676   2.758   3.895  11.581 -0.2763  0.1847 -0.1213
 6546W        W21677   2.362   5.177   5.064  0.0547 -0.0697 -0.2740
 6547W        W21678   1.686   8.990  13.701 -0.2774 -0.0091  0.0480
 6548W        W21679   1.117   1.443  13.465  0.0726 -0.2351  0.0870
 6549W        W21680  14.350   0.175   5.376  0.1828 -0.0460 -0.1959
 6550W        W21681   7.018   8.964   0.008 -0.1145 -0.0470  0.0529
 6551W        W21682   1.580  12.269  15.823  0.3693  0.1367 -0.2664
 6552W        W21683   7.022   9.771   2.142 -0.0163  0.1683  0.0161
 6553W        W21684  10.298  16.636   9.817 -0.1224  0.0126  0.0448
 6554W        W21685  13.184  10.688   2.701  0.1928  0.0144  0.1440
 6555W        W21686  10.664   6.281  13.395 -0.0256  0.1901  0.2153
 6556W        W21687  10.833   3.073   5.861  0.2536 -0.1054  0.0287
 6557W        W21688  12.334   4.692  11.869 -0.0091 -0.0973 -0.0864
 6558W        W21689  15.674  17.601   1.220  0.0097 -0.1525  0.0973
 6559W        W21690   7.698   0.296   4.551 -0.1016  0.0554  0.1262
 6560W        W21691   3.542  10.910   5.447 -0.3425 -0.0746 -0.2303
 6561W        W21692  11.783   8.096  13.147  0.1392 -0.0143 -0.1722
 6562W        W21693   8.274   1.603   2.048  0.2968  0.1501  0.0538
 6563W        W21694  14.992  17.427  12.693 -0.1941  0.2294  0.0693
 6564W        W21695  18.503  15.295   2.663  0.1228  0.0966 -0.1299
 6565W        W21696   5.042   5.720   0.526 -0.1043  0.0098 -0.0963
 6566W        W21697   4.524   2.967  11.334 -0.1156  0.0041  0.1413
 6567W        W21698  12.070  12.926  12.643  0.0863  0.0077 -0.5123
 6568W        W21699   6.194  12.065  12.166  0.1460  0.0055 -0.0780
 6569W        W21700   8.795  12.710   2.833 -0.4761  0.0355  0.3381
 6570W        W21701   9.558   9.839  10.805  0.2276 -0.0001  0.0389
 6571W        W21702   5.644   9.176  14.699 -0.0261  0.0079  0.1713
 6572W        W21703   0.180   8.432   2.183  0.3184  0.1934 -0.0560
 6573W        W21704   8.787   7.398  11.391  0.1877  0.3646  0.1762
 6574W        W21705  14.904  17.654   2.457 -0.0171 -0.0245 -0.0068
 6575W        W21706  16.451  18.195   5.603  0.0904  0.1630 -0.0499
 6576W        W21707   4.738   5.893   2.708  0.2370  0.0649 -0.0995
 6577W        W21708  16.098  17.786  12.916  0.1045 -0.1891  0.1628
 6578W        W21709   6.217   1.068  12.994  0.1741  0.2221  0.0360
 6579W        W21710  11.946   4.619   1.570 -0.0361  0.4052 -0.1507
 6580W        W21711  15.554   6.260  12.946 -0.2128 -0.1009  0.1011
 6581W        W21712   8.700   0.976   0.647  0.2109  0.2716  0.2518
 6582W        W21713   8.283   8.557   4.180  0.0073  0.0711 -0.0807
 6583W        W21714   6.289  15.226   1.265 -0.1082  0.0152 -0.3896
 6584W        W21715   2.509   5.480   3.172 -0.1237 -0.1242  0.0042
 6585W        W21716  10.770  15.941   4.307  0.2178  0.0376  0.1150
 6586W        W21717   6.600  13.445  10.450 -0.0684  0.1136  0.3360
 6587W        W21718   3.570   2.213   3.048  0.0642 -0.0204  0.0132
 6588W        W21719  16.753   5.076   0.950 -0.2952  0.0138  0.0503
 6589W        W21720  10.662   1.482   1.076  0.2258  0.3354 -0.0660
 6590W        W21721   3.695  16.947  15.335 -0.0537  0.0527  0.5030
 6591W        W21722   6.218   3.206   4.767 -0.2550 -0.2961 -0.1710
 6592W        W21723   4.956   7.606   5.294  0.0526 -0.2251 -0.2177
 6593W        W21724  17.162   5.482   0.158  0.0192 -0.2046 -0.2062
 6594W        W21725  13.527  13.497   1.381  0.1941 -0.2055  0.2896
 6595W        W21726  16.370   0.122  13.217 -0.2127  0.3713  0.0149
 6596W        W21727  10.631   4.030   4.986  0.0444  0.0669  0.1985
 6597W        W21728  17.635  11.133  13.150 -0.1950  0.1022  0.1209
 6598W        W21729  14.107   2.302   0.006 -0.3883  0.1453 -0.0421
 6599W        W21730   3.228   9.335  13.028 -0.1613 -0.3721  0.0773
 6600W        W21731  17.111   7.320  12.024 -0.0212  0.4238  0.2144
 6601W        W21732  12.577  15.655  15.739  0.4733 -0.3372 -0.1512
 6602W        W21733   0.409   3.908  15.818  0.2143  0.0515 -0.0498
 6603W        W21734  15.098  17.035   1.851 -0.0831  0.0422 -0.0131
 6604W        W21735  14.903   8.401  12.624 -0.1163 -0.2675  0.2479
 6605W        W21736  10.579   2.530  11.610  0.0795  0.2320 -0.1262
 6606W        W21737   7.435   9.351  10.096  0.0509  0.0383 -0.0140
 6607W        W21738   7.725  15.543   3.105  0.1037  0.5053  0.0488
 6608W        W21739  14.003   9.645  15.350  0.0186 -0.2791  0.1712
 6609W        W21740   8.536   6.507  14.543  0.4129  0.1401  0.3333
 6610W        W21741   6.179   3.492  14.995  0.1417  0.0626 -0.1516
 6611W        W21742   9.869  15.300  15.544 -0.0349 -0.2153 -0.2186
 6612W        W21743  11.547  10.817   1.438  0.3623  0.3586 -0.0660
 6613W        W21744  12.351  12.048  12.516  0.0645 -0.0853 -0.0404
 6614W        W21745  13.128  12.392  12.001 -0.1576  0.1524 -0.2808
 6615W        W21746   3.346   0.852  11.149  0.3578 -0.1825  0.0419
 6616W        W21747   7.712  14.669   2.264 -0.1902  0.0693  0.0883
 6617W        W21748  12.191   2.866   0.063 -0.2930 -0.0953 -0.1003
 6618W        W21749  15.004   4.519  15.734 -0.0107 -0.2026 -0.1035
 6619W        W21750  15.639   0.042  15.610 -0.0889 -0.0092 -0.0500
 6620W        W21751  11.577   7.782  10.842  0.1823  0.4360  0.0178
 6621W        W21752  12.375  11.130   0.923 -0.0242 -0.0780  0.0207
 6622W        W21753   8.329  17.564  12.613  0.1180  0.1766 -0.1118
 6623W        W21754   3.631  14.212   0.310 -0.1299  0.0983  0.2758
 6624W        W21755  18.052   7.893  14.318 -0.0265 -0.4256  0.2141
 6625W        W21756  10.696  16.862  12.898 -0.0956  0.2435 -0.0790
 6626W        W21757   2.032   5.237   1.915 -0.1639 -0.0245  0.1757
 6627W        W21758   1.528  12.027   1.686 -0.0551 -0.0911  0.0273
 6628W        W21759   1.328   4.917   0.410 -0.1907 -0.1979 -0.1853
 6629W        W21760   9.246  16.806  15.212 -0.2843  0.1713  0.3044
 6630W        W21761   8.307   6.472  15.404 -0.0907 -0.1699 -0.2380
 6631W        W21762   4.369  14.962   2.909 -0.0371  0.0102  0.1141
 6632W        W21763  13.788  12.709  12.744  0.2562 -0.0844  0.1072
 6633W        W21764   9.130   9.939   4.575  0.0519  0.1037  0.0440
 6634W        W21765  12.585  17.149  15.847  0.0446 -0.2553 -0.1026
 6635W        W21766   1.531   4.093  14.801  0.1795 -0.0583 -0.1868
 6636W        W21767   3.755  13.874   1.513  0.1249  0.0850 -0.0240
 6637W        W21768  12.091  17.897   4.318 -0.1679  0.1405  0.1791
 6638W        W21769   0.279   4.879  14.284 -0.0482  0.0415  0.2167
 6639W        W21770  12.945   7.887  12.382 -0.0835 -0.1740  0.2862
 6640W        W21771   9.674  13.179  12.291  0.0958 -0.2780 -0.1542
 6641W        W21772   3.679   1.587  14.501  0.0469  0.0021  0.4415
 6642W        W21773   6.181   6.148   0.399  0.0942 -0.0894 -0.1921
 6643W        W21774   6.299  13.571   1.572  0.3951  0.1055 -0.1802
 6644W        W21775   1.969   1.042   1.130  0.2106  0.0939 -0.0412
 6645W        W21776  13.545  15.552   5.851  0.0732 -0.0312  0.1372
 6646W        W21777  11.435   0.291   2.247  0.3392  0.0669 -0.0660
 6647W        W21778   9.931  10.500   0.261 -0.2547  0.2611 -0.0023
 6648W        W21779   2.374   9.593  14.949  0.0153 -0.0450  0.0232
 6649W        W21780  12.944   4.339   5.834 -0.1999  0.2297  0.1073
 6650W        W21781   0.561   4.093   0.840  0.1986 -0.1525 -0.1976
 6651W        W21782   7.701   8.486  11.886  0.4397  0.0757 -0.1039
 6652W        W21783   5.598   7.171  13.653 -0.1524  0.2922 -0.0940
 6653W        W21784   1.867  16.957  12.897 -0.3992 -0.2428  0.1536
 6654W        W21785   5.654  11.086   4.658  0.3421 -0.0545  0.2483
 6655W        W21786  12.890  16.969  12.373  0.2783  0.1068  0.1121
 6656W        W21787  14.550   7.228  11.641  0.0726  0.0774  0.0849
 6657W        W21788   5.688  15.245  10.614  0.0952  0.0345  0.2013
 6658W        W21789  11.271  17.999  12.601  0.2740  0.2472  0.2322
 6659W        W21790   8.086   2.515  11.781 -0.1208  0.0514  0.0503
 6660W        W21791   3.482   7.263  14.716 -0.1292 -0.1671 -0.0418
 6661W        W21792   2.057   4.488   2.772 -0.0396  0.6679  0.2796
 6662W        W21793  15.374   7.304  11.346 -0.1428 -0.0290 -0.3393
 6663W        W21794   9.389   8.494   1.660 -0.4723  0.2930  0.0694
 6664W        W21795   9.446   6.030   0.487  0.0252  0.1416 -0.2885
 6665W        W21796   7.654  11.901  13.880 -0.0997 -0.2002  0.4230
 6666W        W21797   4.581  14.265   5.214 -0.2100  0.3335 -0.2694
 6667W        W21798   9.311   9.441  10.895 -0.0858  0.2551  0.2087
 6668W        W21799   1.858   7.279   5.984  0.4739  0.2200 -0.3632
 6669W        W21800   3.303  17.948   3.130 -0.2615 -0.0783  0.2004
 6670W        W21801  10.613   6.023  14.059  0.0582  0.1793 -0.1717
 6671W        W21802   2.193  11.140   2.249  0.0391  0.1516 -0.3167
 6672W        W21803  14.479   5.463   4.545  0.1752  0.0403 -0.2118
 6673W        W21804   0.134   2.986   2.809  0.1296  0.0664 -0.0825
 6674W        W21805   1.548   9.105  14.274 -0.1466  0.0601 -0.0700
 6675W        W21806   9.176   6.982   0.057  0.0489 -0.3358  0.2242
 6676W        W21807   6.149   9.819   0.649  0.0196 -0.1016  0.1691
 6677W        W21808  11.311   7.509   3.995  0.0320 -0.1529  0.0469
 6678W        W21809  15.069  17.836   3.769  0.2738 -0.2857  0.1018
 6679W        W21810   5.257   1.009  12.708  0.1473  0.2580  0.0244
 6680W        W21811  13.140  17.939   1.597 -0.1379 -0.1404  0.2316
 6681W        W21812   8.562   0.952   3.356  0.2678  0.3224 -0.1216
 6682W        W21813   4.705   1.247  12.860  0.2086  0.0873  0.0734
 6683W        W21814  15.825  13.666   6.012 -0.3259 -0.0724  0.2703
 6684W        W21815  18.139   0.087  12.372 -0.0703 -0.1300 -0.1119
 6685W        W21816   7.581  11.448   0.760  0.1447 -0.0902  0.0485
 6686W        W21817  14.043  15.943  10.792  0.0827  0.0325  0.2027
 6687W        W21818  11.907   0.491  10.577  0.3601  0.0904  0.1116
 6688W        W21819   7.399  14.811   3.138 -0.3795 -0.0449  0.0503
 6689W        W21820   8.760  16.629  11.683  0.2491  0.0168  0.1154
 6690W        W21821   5.558  17.076   3.109 -0.0825 -0.0785  0.2088
 6691W        W21822   2.965   2.613   5.675  0.0004 -0.1577  0.0881
 6692W        W21823   7.108   4.013  11.049 -0.1205 -0.0453  0.4306
 6693W        W21824  16.783  15.383   2.052 -0.1263 -0.2419 -0.0454
 6694W        W21825  13.567  11.515   2.093  0.0574 -0.0490 -0.2141
 6695W        W21826  10.269   9.063   1.500  0.2312  0.0974  0.0067
 6696W        W21827  14.914   8.388   4.960 -0.0402  0.0801  0.0467
 6697W        W21828   3.655   6.640  10.874  0.0013  0.0534 -0.0344
 6698W        W21829  18.406   3.142   3.613 -0.1527  0.1619 -0.1233
 6699W        W21830  16.547   5.854   3.088 -0.1028 -0.2338 -0.0333
 6700W        W21831  16.909   0.855  14.336 -0.1452  0.0280 -0.0634
 6701W        W21832   5.317  14.969  10.426 -0.2052 -0.1626  0.1529
 6702W        W21833   5.616  13.570   4.321  0.3465  0.0227  0.1009
 6703W        W21834  18.400  14.642   1.097 -0.0490  0.1405 -0.0458
 6704W        W21835   2.651  16.202   0.456 -0.1218  0.0112  0.0145
 6705W        W21836  15.362  12.698  11.516 -0.1848 -0.0405  0.1685
 6706W        W21837  10.574   4.405   2.369 -0.4252  0.2790  0.0027
 6707W        W21838  17.263  13.162   1.465 -0.0274  0.2600  0.0701
 6708W        W21839  13.209   4.737   3.844 -0.0523  0.2986  0.2320
 6709W        W21840   3.791  11.048   5.844  0.1162 -0.1864 -0.0869
 6710W        W21841   6.448  14.188   1.088  0.0386 -0.2260 -0.0388
 6711W        W21842  15.787  11.606  11.314  0.0709 -0.2439  0.1512
 6712W        W21843   2.855   1.080  13.349 -0.0569  0.2489  0.0892
 6713W        W21844  14.464   7.131   2.810 -0.0163 -0.3869 -0.1462
 6714W        W21845  11.181  10.770  10.287 -0.4642 -0.0970  0.1260
 6715W        W21846  12.223  18.049   4.986  0.0446 -0.0061  0.1509
 6716W        W21847  14.555  10.155   3.870  0.2209 -0.0450  0.3420
 6717W        W21848  18.012  10.811  12.977 -0.0389  0.1467  0.0250
 6718W        W21849  13.389   6.057   4.056 -0.0875  0.2098 -0.1065
 6719W        W21850   4.011  11.759  15.380 -0.0300  0.1821 -0.1110
 6720W        W21851   4.133   2.741  12.147 -0.0817  0.1101  0.1584
 6721W        W21852   1.042   7.941   4.155  0.0504 -0.0577 -0.2081
 6722W        W21853  10.999  16.489   2.171  0.0085  0.0458  0.0092
 6723W        W21854  16.215   4.883   2.238  0.1194  0.0985 -0.0425
 6724W        W21855   9.970   5.884   0.393  0.0885  0.0492 -0.0241
 6725W        W21856   7.537   3.230   0.363  0.1948 -0.0859 -0.0217
 6726W        W21857   9.801  15.526  10.239  0.0927 -0.3007  0.0945
 6727W        W21858  12.684   6.119   0.683 -0.2249 -0.1235  0.1824
 6728W        W21859   0.699  11.130   5.493  0.1305 -0.1500 -0.1590
 6729W        W21860  15.386  16.735  12.666 -0.2326 -0.1471  0.1282
 6730W        W21861   4.704   0.075   3.130 -0.0471 -0.1903  0.2750
 6731W        W21862   8.724  13.512  15.062 -0.2761 -0.1313  0.3162
 6732W        W21863  14.565   0.263   9.748  0.0671 -0.1263 -0.2061
 6733W        W21864   6.266   3.065  11.372 -0.2292 -0.2758  0.0278
 6734W        W21865   8.216  10.029  11.946 -0.1391  0.2815 -0.0840
 6735W        W21866  17.460   9.549   5.720  0.1559 -0.2214 -0.1566
 6736W        W21867  11.651   4.217   5.140  0.0500  0.0635 -0.0737
 6737W        W21868  16.194   5.758  12.873  0.0372  0.0032 -0.2504
 6738W        W21869   4.429  15.781   0.574  0.2537  0.3235 -0.3642
 6739W        W21870  16.409  13.066   0.986 -0.2466  0.1227 -0.2567
 6740W        W21871   3.153  12.553  10.098 -0.1317 -0.2119  0.0461
 6741W        W21872  11.382  16.184  12.226 -0.2594  0.4375  0.1658
 6742W        W21873   1.132   1.389   4.940  0.1266 -0.0844 -0.3034
 6743W        W21874   7.966   6.985  15.857  0.0196  0.1362 -0.1163
 6744W        W21875   9.513   0.266  15.222  0.2330  0.0546 -0.1653
 6745W        W21876   1.245   1.791   1.441 -0.1724  0.1174  0.2991
 6746W        W21877   6.064   5.219   1.301 -0.1055 -0.1471 -0.2289
 6747W        W21878   9.439   7.731   4.785 -0.2506  0.0546  0.0046
 6748W        W21879   5.517   3.166   2.315 -0.2069 -0.0233  0.1345
 6749W        W21880  11.885   2.082   4.723 -0.1065  0.1425 -0.2411
 6750W        W21881  17.364  14.502  14.343 -0.0353 -0.0523 -0.0189
 6751W        W21882   6.670   9.810  15.810  0.5494 -0.2009 -0.1217
 6752W        W21883   4.532   5.043  15.556 -0.0715 -0.2250 -0.0766
 6753W        W21884  14.774  16.526   2.344  0.0147  0.0132  0.1653
 6754W        W21885   8.530  15.446  15.001 -0.0002  0.0492 -0.0765
 6755W        W21886  15.836  12.450  13.797  0.1478 -0.0802 -0.1653
 6756W        W21887  16.007   9.865  13.573 -0.1002  0.0049 -0.2264
 6757W        W21888   2.760  10.808   1.419  0.2307  0.1063  0.2430
 6758W        W21889   4.027   7.411  12.244 -0.0803  0.1280  0.1327
 6759W        W21890  12.253  13.569  15.636 -0.4068 -0.1310 -0.0575
 6760W        W21891   6.606  11.231  11.835 -0.1125  0.0291 -0.1105
 6761W        W21892   6.894   0.183  13.665  0.2458 -0.0220 -0.1396
 6762W        W21893  10.581   1.333  15.509 -0.0084 -0.1685  0.1436
 6763W        W21894   9.627  11.450   1.684  0.2985 -0.0426 -0.0856
 6764W        W21895   1.469  15.785  12.553 -0.0365  0.4060  0.5179
 6765W        W21896   3.526  18.250  14.137 -0.1087 -0.0837  0.2363
 6766W        W21897   8.814  15.931  15.629  0.1539  0.1487  0.2865
 6767W        W21898  12.070   2.847  15.463  0.2436  0.3436 -0.3307
 6768W        W21899  10.698  12.537  12.677 -0.1636 -0.1467 -0.4261
 6769W        W21900   0.438   1.046  14.002  0.2214 -0.0578  0.2942
 6770W        W21901   7.570   8.863  12.173  0.0870  0.2832  0.0467
 6771W        W21902   9.626   1.670  14.146 -0.1274 -0.0527  0.1068
 6772W        W21903  15.900  14.721   0.644  0.3828  0.5358 -0.1695
 6773W        W21904   0.641   5.469   4.832  0.1576  0.1693  0.0369
 6774W        W21905   6.633   4.516   4.007  0.0363  0.0120 -0.3393
 6775W        W21906  10.499  10.595  13.909 -0.3894  0.0289 -0.0002
 6776W        W21907  11.113  15.556  13.099  0.1868 -0.2238 -0.1660
 6777W        W21908   3.953   0.689   5.061 -0.1547 -0.2069  0.3186
 6778W        W21909  16.000  11.732   4.098  0.0048 -0.2278  0.2060
 6779W        W21910   4.170   2.538   1.177  0.0560 -0.2053 -0.1368
 6780W        W21911  10.885  12.388  10.719  0.0208  0.3155 -0.0980
 6781W        W21912  10.796  13.973  10.395 -0.0161 -0.0397  0.2328
 6782W        W21913   1.935  14.263  13.269  0.0425 -0.5786  0.0275
 6783W        W21914  13.007   0.895   5.382 -0.2499  0.0966 -0.0966
 6784W        W21915  12.518   5.873   3.342 -0.1090  0.1433 -0.1157
 6785W        W21916  11.501  16.355  13.320  0.3049 -0.2315  0.0109
 6786W        W21917   1.504   4.476  15.688  0.1832  0.1006 -0.1125
 6787W        W21918  15.051  12.190  14.201 -0.1296 -0.1165  0.4551
 6788W        W21919   0.205   9.813   3.239 -0.0286 -0.0674  0.6477
 6789W        W21920   3.114   7.701   1.633 -0.0081 -0.1727 -0.0443
 6790W        W21921   4.472   0.064   0.422 -0.5084 -0.0590  0.0608
 6791W        W21922  11.051  10.580  15.561 -0.2199 -0.1343  0.0013
 6792W        W21923   4.066   7.732   3.197  0.1424 -0.0484 -0.1666
 6793W        W21924  16.751   3.648  15.479  0.0775 -0.0720 -0.1072
 6794W        W21925  14.940  16.019  11.857  0.0863  0.0550  0.0072
 6795W        W21926  10.924   5.462  11.672  0.0886 -0.2275  0.2036
 6796W        W21927   3.054   2.229   1.616 -0.2745 -0.0903 -0.3113
 6797W        W21928   9.000   2.355   1.617 -0.1344 -0.0177 -0.0501
 6798W        W21929   4.569   7.602  15.375  0.0642  0.2228 -0.1053
 6799W        W21930  16.426   4.706  13.986 -0.0867 -0.1090 -0.2191
 6800W        W21931  16.445  16.543  13.128 -0.1403  0.1312  0.3966
 6801W        W21932   4.521  15.562   2.107 -0.1279  0.2346 -0.1845
 6802W        W21933   9.765   3.512  11.863  0.1046  0.0664  0.1901
 6803W        W21934  10.719  11.830  11.925  0.0975 -0.0064  0.1906
 6804W        W21935   1.099  12.418  15.706  0.0109 -0.2563  0.3676
 6805W        W21936   8.042   1.301  15.472  0.1181 -0.1913 -0.0137
 6806W        W21937   8.211   9.899   5.849  0.2260 -0.1678  0.0228
 6807W        W21938   9.165   3.712   5.136 -0.0487  0.1268 -0.3338
 6808W        W21939  13.734  10.082  12.721  0.0252 -0.1486 -0.1630
 6809W        W21940   3.741   2.173  12.789  0.2554  0.1525  0.0320
 6810W        W21941  18.138   3.693   4.952 -0.0135  0.1349 -0.2459
 6811W        W21942   4.385  16.668  14.320  0.3340  0.1513 -0.1930
 6812W        W21943   2.279   2.546  13.217 -0.0247  0.0355 -0.1024
 6813W        W21944   6.061   8.437   0.398 -0.0288 -0.1314 -0.0674
 6814W        W21945   5.159  11.757   5.828  0.1923 -0.1296 -0.2400
 6815W        W21946   5.320   5.352   2.387 -0.1084  0.0529  0.0109
 6816W        W21947   7.440  16.129   1.849 -0.2147 -0.1033  0.3443
 6817W        W21948   5.933   5.612  12.494 -0.0258 -0.2800  0.0832
 6818W        W21949   4.857   0.722   0.058 -0.0431 -0.0099 -0.0745
 6819W        W21950  12.937  14.309   1.878 -0.0101  0.1016 -0.2556
 6820W        W21951  15.765   3.414   4.940  0.1699 -0.3261  0.2567
 6821W        W21952  14.084   8.544   5.922 -0.0756  0.1058 -0.2045
 6822W        W21953   6.443  17.768   1.002  0.4638  0.2119 -0.2382
 6823W        W21954  15.700   3.641   5.381 -0.0889  0.0392 -0.0868
 6824W        W21955   6.220  17.374  13.028  0.0779 -0.1739 -0.2376
 6825W        W21956   8.910  17.056   5.116 -0.0848 -0.1237  0.0689
 6826W        W21957   8.703  12.203  14.600  0.2489 -0.6070  0.1483
 6827W        W21958   4.333   9.904  11.626 -0.1923 -0.2101 -0.0785
 6828W        W21959   8.352  18.175  13.555  0.1904 -0.0225 -0.1127
 6829W        W21960   2.745  15.774  12.828  0.0145 -0.0200  0.0352
 6830W        W21961  11.207   1.598  15.617 -0.0271 -0.0677  0.3126
 6831W        W21962  11.073  10.392   1.527  0.2963 -0.1299  0.2580
 6832W        W21963  13.626   2.878   1.969 -0.4620  0.1279 -0.1514
 6833W        W21964  18.494  13.923  15.027 -0.0243  0.0883  0.1137
 6834W        W21965  16.326  12.466   5.416  0.1353  0.0552  0.4798
 6835W        W21966  14.094  14.224  10.744 -0.0995 -0.2138  0.1801
 6836W        W21967  17.012  10.846   5.066  0.3170  0.1359 -0.1279
 6837W        W21968   2.318   6.170   2.960 -0.2550  0.0111 -0.0228
 6838W        W21969  17.657   8.848   2.826  0.0908  0.0356 -0.4169
 6839W        W21970   8.254  15.255   3.588  0.2503  0.1743 -0.0145
 6840W        W21971  15.611  17.125   5.075 -0.0820 -0.1112  0.1295
 6841W        W21972   0.475   5.277  12.470 -0.1319  0.3207 -0.2855
 6842W        W21973   4.221   8.555   0.684  0.3954  0.1065  0.0772
 6843W        W21974   4.999   8.922  13.183  0.0108 -0.2196  0.1610
 6844W        W21975  10.137   3.816   4.085 -0.2824  0.2720  0.2079
 6845W        W21976  10.398  13.610   2.021 -0.1144 -0.3046 -0.2589
 6846W        W21977  10.094   7.905  14.390 -0.1447 -0.1470 -0.1509
 6847W        W21978  16.429   0.614  12.134 -0.2320 -0.2719  0.0555
 6848W        W21979  15.071   2.408  11.824 -0.0637  0.2149 -0.1753
 6849W        W21980   7.958   3.449   5.414  0.1438  0.0430  0.0679
 6850W        W21981  17.186  11.348  14.552 -0.0934 -0.3112  0.0479
 6851W        W21982   1.046  10.895  14.447  0.1539 -0.2089  0.1580
 6852W        W21983  13.493   5.633  13.721  0.0444 -0.1274 -0.0860
 6853W        W21984   8.557  17.381   4.118  0.1708 -0.1964 -0.1836
 6854W        W21985   2.208  11.646   3.866  0.0958 -0.1258  0.0263
 6855W        W21986  15.783   9.617   4.680 -0.0423 -0.1030 -0.1565
 6856W        W21987  10.139   4.253   2.255  0.0197  0.0323 -0.2209
 6857W        W21988   5.271  14.764  14.248  0.1188 -0.2312 -0.2346
 6858W        W21989  15.937   0.210   2.609 -0.1347  0.0270 -0.0637
 6859W        W21990   9.773   0.065  10.904 -0.0382  0.3436  0.0555
 6860W        W21991   2.517  15.311  12.596 -0.0096 -0.1505  0.1532
 6861W        W21992   9.978  13.445  11.960  0.1384  0.1093 -0.1367
 6862W        W21993   8.936   3.555  11.408 -0.0586  0.0117  0.1002
 6863W        W21994   2.306   8.667   2.304 -0.2315 -0.2063  0.1718
 6864W        W21995  12.783   7.519   1.192  0.0704  0.1470 -0.0097
 6865W        W21996   8.429   5.649   4.794  0.0418 -0.1854  0.0738
 6866W        W21997   9.514  16.185   4.994  0.0312 -0.0835 -0.0761
 6867W        W21998   3.918  17.547  12.543 -0.1633  0.1534 -0.0869
 6868W        W21999   3.367   7.943   5.324  0.0040  0.0618  0.1950
 6869W        W22000  17.668  12.864  11.565  0.0293 -0.0371 -0.1968
 6870W        W22001   4.098  16.547   4.165 -0.2629 -0.0519 -0.0251
 6871W        W22002  11.537   8.567  12.234  0.1486 -0.0601  0.1207
 6872W        W22003  10.878  15.317   4.856  0.2711 -0.1123 -0.0380
 6873W        W22004  11.471   4.507  13.161 -0.2629 -0.1616 -0.1969
 6874W        W22005   9.334  17.931   5.525 -0.1225  0.0620 -0.3088
 6875W        W22006  12.091   9.757  12.311 -0.0121 -0.1300  0.1389
 6876W        W22007   2.107  10.219  15.702 -0.1741 -0.2826  0.0052
 6877W        W22008  14.026   7.821   0.044 -0.0694  0.0651  0.1105
 6878W        W22009   3.631  16.873   2.776  0.1886  0.0204  0.0506
 6879W        W22010   2.489   9.330   5.360 -0.1541 -0.1565  0.1122
 6880W        W22011  17.760  16.163   0.407 -0.1754  0.0283  0.1648
 6881W        W22012  16.876  15.234  12.159  0.2495  0.1721  0.3381
 6882W        W22013   7.277   8.007   2.818  0.0509 -0.0573  0.4124
 6883W        W22014  10.597   2.081   1.822  0.1455  0.3339  0.2309
 6884W        W22015  11.084   6.555   3.203 -0.0295  0.4240  0.0516
 6885W        W22016   7.394   8.799  14.997  0.0532 -0.0587  0.6487
 6886W        W22017   1.899   1.830   3.538 -0.4529  0.1478  0.2113
 6887W        W22018   0.242   0.269   0.689 -0.0236 -0.1068 -0.0295
 6888W        W22019  13.647   6.217  14.632  0.0000 -0.1270 -0.1486
 6889W        W22020  16.669   4.732  12.248  0.1138  0.2504 -0.0775
 6890W        W22021  14.367  15.273  12.472  0.1749  0.0266 -0.0891
 6891W        W22022  13.918  16.211  15.539  0.2654 -0.1926  0.0145
 6892W        W22023   9.438  17.530  11.400  0.1129  0.1039 -0.0044
 6893W        W22024   7.538  17.150  11.490 -0.0525 -0.0041  0.2829
 6894W        W22025  14.999  15.544  14.091  0.1212  0.3870 -0.2038
 6895W        W22026   5.458   8.675   3.776  0.3866 -0.1900  0.1348
 6896W        W22027  10.531  16.924  10.841  0.1852  0.1289  0.3153
 6897W        W22028   4.195   6.314   4.182  0.0702  0.2951 -0.2781
 6898W        W22029  17.415  14.974   3.629 -0.1840 -0.0226  0.4904
 6899W        W22030  14.090   6.394  13.113  0.0660  0.0629 -0.3422
 6900W        W22031  10.356  12.446  10.758 -0.0326  0.3032 -0.0167
 6901W        W22032   3.135  12.143   5.351 -0.1207 -0.0306 -0.2359
 6902W        W22033   4.746   5.459   0.281  0.1480  0.1151  0.1622
 6903W        W22034   5.649   0.395   1.764  0.1526 -0.1102  0.2723
 6904W        W22035   4.400  11.648   5.131 -0.2786 -0.2032 -0.1552
 6905W        W22036   9.612  13.395   1.680  0.1035 -0.1826 -0.4326
 6906W        W22037   9.284  10.804   4.211 -0.1815 -0.1654  0.0268
 6907W        W22038  13.520  11.181   4.274 -0.1437  0.3109 -0.2291
 6908W        W22039  18.199   4.431  12.876  0.1790 -0.1052  0.0491
 6909W        W22040  15.470   2.673  14.937  0.3360  0.0487  0.0566
 6910W        W22041   8.655   1.632  13.159  0.0926 -0.3189 -0.2732
 6911W        W22042   2.257   8.605  11.149 -0.1087 -0.1234  0.2402
 6912W        W22043   8.727  11.793   5.360 -0.4235  0.2120  0.1018
 6913W        W22044  13.707   5.876   2.211 -0.0327  0.0592 -0.4000
 6914W        W22045   1.687   5.515   4.384  0.2503 -0.1787  0.0447
 6915W        W22046   8.977   9.298  11.674  0.1396  0.3566 -0.2920
 6916W        W22047  14.585   8.622   3.054  0.1904  0.0795 -0.0485
 6917W        W22048   1.716  13.082  12.553  0.0197 -0.0712  0.2133
 6918W        W22049  17.339  10.669   4.587  0.0396  0.2558  0.4661
 6919W        W22050  12.529  14.570   1.810 -0.0835 -0.1461 -0.0905
 6920W        W22051   5.511   1.591   4.441 -0.1543  0.2457  0.1558
 6921W        W22052   5.612   2.800   0.482 -0.0707 -0.1928  0.0612
 6922W        W22053   8.115   3.388  14.507  0.0069  0.1432  0.0451
 6923W        W22054   2.137  10.532   5.322 -0.2543 -0.0487 -0.0542
 6924W        W22055   6.193   3.545  13.048 -0.1256  0.3295  0.0372
 6925W        W22056   6.881   2.602  11.965  0.1115  0.2873 -0.2150
 6926W        W22057   4.592   6.320   5.879  0.1714  0.0300  0.2177
 6927W        W22058  15.882  14.655  15.715  0.3712 -0.1200 -0.0109
 6928W        W22059  14.854  13.502   4.026  0.2610 -0.1459  0.1279
 6929W        W22060  18.183   9.928  11.855 -0.1330  0.0337  0.1815
 6930W        W22061   5.463  12.753   2.517 -0.2835 -0.2401  0.1649
 6931W        W22062   3.114   5.223   0.595 -0.2671 -0.2538 -0.0245
 6932W        W22063  17.789   7.976  12.595 -0.0719 -0.2279 -0.0789
 6933W        W22064   5.980   2.597  13.117  0.1643  0.4588  0.0557
 6934W        W22065  18.350   8.002  12.651 -0.0306 -0.0666  0.0123
 6935W        W22066  15.766   3.528  15.087 -0.1757  0.0880  0.0054
 6936W        W22067  10.067  10.706  10.700  0.2175 -0.3498  0.0695
 6937W        W22068   7.240  10.724   2.915  0.1626  0.1195 -0.0233
 6938W        W22069  10.843   6.176  12.803 -0.0187 -0.0176 -0.1056
 6939W        W22070  12.807  13.892   1.573 -0.0390  0.0233 -0.0981
 6940W        W22071   2.364   6.188   1.973 -0.1002  0.0716 -0.0167
 6941W        W22072  11.214  14.732  11.747  0.0960  0.0160 -0.1462
 6942W        W22073  11.588   2.966  15.289  0.1067 -0.0963  0.0549
 6943W        W22074  16.240   8.693  15.798 -0.0466  0.2278 -0.1928
 6944W        W22075   6.942   2.060   5.191 -0.1686 -0.1264  0.2407
 6945W        W22076  10.406   7.064   1.703  0.1870  0.0965 -0.0021
 6946W        W22077   6.703  14.201   5.231  0.0634  0.0601  0.0671
 6947W        W22078  17.054  12.070  13.934 -0.1733 -0.0506 -0.1208
 6948W        W22079   9.925   6.540  14.923 -0.1437  0.0050  0.2562
 6949W        W22080   3.831   2.613  12.539 -0.2212 -0.1427  0.3474
 6950W        W22081   5.052   4.164   1.946 -0.2704  0.0604 -0.0035
 6951W        W22082   6.161   4.180  12.312 -0.0216  0.0404  0.0009
 6952W        W22083   9.534   5.132   1.669  0.0808  0.3052  0.0601
 6953W        W22084  11.914  15.742   2.246 -0.0103 -0.1220  0.0362
 6954W        W22085  13.612   7.307   2.517  0.1637  0.0642  0.2781
 6955W        W22086   4.687   9.839  12.254  0.1341  0.3948  0.0636
 6956W        W22087  11.578  14.777   3.267 -0.2517  0.1235 -0.0992
 6957W        W22088  13.659   7.638  10.729 -0.3162  0.1512  0.0678
 6958W        W22089  16.517  13.119  14.669  0.1309 -0.0647  0.1175
 6959W        W22090  12.437   4.372   3.015 -0.1273 -0.1936 -0.2712
 6960W        W22091   2.719   6.360   5.124 -0.3647 -0.1668  0.0280
 6961W        W22092  16.584  11.764  15.879 -0.1059 -0.2170  0.0830
 6962W        W22093  17.841   4.129   1.531  0.0426  0.0641  0.1848
 6963W        W22094  12.713   8.050  11.510  0.1690  0.0624 -0.1944
 6964W        W22095  15.698   1.329  13.430 -0.0577  0.1678 -0.1370
 6965W        W22096  17.238   7.485  11.096  0.0145 -0.3936 -0.0903
 6966W        W22097  12.838  16.260   0.662  0.0370  0.3011  0.3275
 6967W        W22098  13.759   4.772  13.794  0.0009  0.2093  0.0559
 6968W        W22099   2.089   1.039   0.124 -0.0348  0.0730  0.0434
 6969W        W22100  17.827  13.005   1.620  0.3067  0.1662  0.1261
 6970W        W22101  15.987   8.153   2.322 -0.0565  0.0247  0.2718
 6971W        W22102   7.193  14.398   9.993 -0.0072  0.2032 -0.2198
 6972W        W22103   4.516  16.334  11.425 -0.2139  0.1799  0.0756
 6973W        W22104   7.801  13.542  14.976  0.2673 -0.0466 -0.0776
 6974W        W22105   3.134  16.588   0.749  0.2438 -0.2958 -0.2651
 6975W        W22106  12.327  16.797  14.014 -0.1290  0.2979  0.0379
 6976W        W22107   2.375   2.939  13.587  0.1447  0.0227 -0.3459
 6977W        W22108   1.167  13.278   0.971 -0.0343 -0.2570  0.2456
 6978W        W22109  14.060  15.079  11.201 -0.1021  0.1219  0.0172
 6979W        W22110  14.753   7.493   5.143  0.3280 -0.0846  0.0980
 6980W        W22111  16.675  12.580   4.526 -0.0351  0.2226  0.0460
 6981W        W22112   3.011  14.062  10.940 -0.0320 -0.1476 -0.2237
 6982W        W22113  17.144   5.283   4.520  0.1655  0.0672 -0.0714
 6983W        W22114  12.185  12.700  15.685  0.3254  0.0717 -0.0128
 6984W        W22115  11.978   0.567   1.056  0.2453 -0.4286  0.1609
 6985W        W22116   1.329   2.604   4.587 -0.1274  0.1955 -0.0626
 6986W        W22117  13.527   9.815   0.195 -0.5339  0.2229 -0.0287
 6987W        W22118   0.579   6.294   0.529 -0.3124  0.0317 -0.2188
 6988W        W22119  13.691  15.958  11.256  0.2461 -0.0309 -0.2596
 6989W        W22120   1.636  14.414   4.531 -0.2740  0.3011  0.0693
 6990W        W22121  17.728   7.032  14.541  0.1853 -0.1842 -0.0259
 6991W        W22122  16.616   7.036   4.840  0.0095  0.0346  0.0916
 6992W        W22123  15.517  17.510  11.437  0.1246  0.1471  0.1859
 6993W        W22124  12.217  15.106  11.648  0.0578 -0.0466 -0.0704
 6994W        W22125  16.402   6.031  11.853  0.1382  0.0847 -0.3965
 6995W        W22126   2.089  11.135   0.294  0.3659 -0.0736  0.1672
 6996W        W22127  14.181   7.167   4.310 -0.3157 -0.0404  0.0016
 6997W        W22128  15.009   4.377   2.229 -0.0221  0.3224 -0.3121
 6998W        W22129  11.975   3.877  14.157  0.2783 -0.3623 -0.0876
 6999W        W22130   4.861   5.291  13.513  0.2860 -0.0387  0.0944
 7000W        W22131   1.768  18.427   2.956  0.2678 -0.3058  0.2373
 7001W        W22132   6.437  15.370  10.904 -0.1636 -0.0241  0.2238
 7002W        W22133  17.262  11.500   4.513  0.4289  0.1020 -0.2694
 7003W        W22134   9.137  15.491   4.455 -0.2743 -0.1857 -0.0375
 7004W        W22135   4.961  13.948   5.369  0.0594 -0.4152 -0.0863
 7005W        W22136  11.305  16.027  14.225 -0.0212 -0.0206 -0.0363
 7006W        W22137   8.177   9.344   1.990 -0.0764  0.2111 -0.2812
 7007W        W22138   5.220   9.573   4.386  0.0852 -0.2573 -0.0265
 7008W        W22139  12.851  15.629  12.703 -0.1789 -0.1936  0.0958
 7009W        W22140  17.114  14.859  14.552  0.2383  0.0805 -0.2405
 7010W        W22141   5.913  11.804   6.375  0.0496 -0.0792  0.2330
 7011W        W22142  17.509   3.219  13.174  0.3430  0.0529  0.0871
 7012W        W22143   0.596  10.621   3.479 -0.0067  0.1372 -0.0983
 7013W        W22144   5.604   0.990  11.363  0.0494  0.1994 -0.3139
 7014W        W22145  14.330   7.039  13.551  0.1433  0.2654  0.2440
 7015W        W22146   3.125   1.908   4.789  0.2920 -0.1706 -0.2121
 7016W        W22147  18.049  17.306  14.233 -0.0559  0.1067 -0.2069
 7017W        W22148  16.331  18.270   1.928  0.2757 -0.0166  0.4038
 7018W        W22149   7.773  15.106   4.488  0.0824 -0.2341  0.0067
 7019W        W22150  13.499   0.217  11.180 -0.2100  0.0517 -0.3370
 7020W        W22151   8.729   1.228   1.113 -0.1804  0.2140  0.2274
 7021W        W22152   4.216   2.563   4.235 -0.0295 -0.0967  0.1746
 7022W        W22153   7.099  16.959   0.206  0.3248 -0.2913 -0.0419
 7023W        W22154   9.658  13.418   4.778  0.2165 -0.2762 -0.2161
 7024W        W22155   7.084  12.114  13.276 -0.0316  0.0163  0.0452
 7025W        W22156   6.274   7.521   1.413  0.4001 -0.0581  0.0029
 7026W        W22157   8.904  17.086  14.316 -0.1572 -0.2931  0.1032
 7027W        W22158   9.298  16.115  10.912  0.1082 -0.3930 -0.1349
 7028W        W22159  16.759   5.113   3.609  0.3832 -0.2138 -0.0027
 7029W        W22160  12.167  12.431  13.751 -0.0004 -0.0785 -0.0429
 7030W        W22161  11.699   4.724   2.339 -0.1281  0.0053  0.0189
 7031W        W22162   1.807  17.968   4.300  0.0946 -0.1099  0.1709
 7032W        W22163   9.947  15.628   0.954 -0.0855 -0.2713 -0.1207
 7033W        W22164  14.155  11.543  15.669  0.0472  0.0615 -0.3519
 7034W        W22165   3.912   9.215   2.206  0.0119  0.2988  0.0296
 7035W        W22166   0.965   3.813   0.757  0.0328  0.0940 -0.1719
 7036W        W22167  18.024   2.986  14.616 -0.1100 -0.0388  0.1613
 7037W        W22168   8.677  11.647   0.727  0.2721  0.0400  0.0219
 7038W        W22169  17.522  18.145   1.454  0.1985  0.1255  0.1060
 7039W        W22170  15.317   4.326  10.315 -0.3131 -0.1631 -0.0949
 7040W        W22171   4.565  11.400  13.802  0.2518 -0.0725  0.2452
 7041W        W22172   5.739  17.576  14.620 -0.0298 -0.0309  0.1335
 7042W        W22173  17.232  10.337  13.406  0.2001  0.1570 -0.3298
 7043W        W22174   3.240   2.890  14.678  0.0087  0.0958  0.0394
 7044W        W22175   4.780   7.603   1.218 -0.1820  0.0848 -0.1059
 7045W        W22176  15.815   1.395   5.736 -0.2526  0.1192  0.3337
 7046W        W22177  13.965  15.849  11.756 -0.1190 -0.3967 -0.3745
 7047W        W22178   7.180   9.675  15.010  0.1190 -0.3997 -0.1061
 7048W        W22179  11.106  15.164  10.181 -0.2224 -0.0964 -0.0873
 7049W        W22180   4.102  12.112   1.817  0.1041 -0.0929  0.5216
 7050W        W22181  13.921  16.277   5.975 -0.0582 -0.2797  0.0788
 7051W        W22182  14.047  14.909   9.290 -0.0744 -0.0193 -0.3566
 7052W        W22183  12.110  12.093   5.524  0.1537 -0.3750 -0.0016
 7053W        W22184   3.458   0.816   2.640 -0.0434  0.0448  0.0888
 7054W        W22185  16.241  12.359  15.898 -0.0843 -0.2038  0.0522
 7055W        W22186  17.254  18.485  14.157  0.0005  0.1034 -0.1184
 7056W        W22187   6.488   8.048  12.852 -0.0270 -0.1678  0.0913
 7057W        W22188  10.038  12.044  10.870 -0.0155  0.2029 -0.1614
 7058W        W22189  11.886  12.767   3.559 -0.0252 -0.2108 -0.1935
 7059W        W22190  16.847  14.329   4.576  0.0667  0.2328 -0.0756
 7060W        W22191   5.491  16.991  11.873  0.4393 -0.1070  0.0658
 7061W        W22192   0.089   7.069  13.871  0.2534 -0.0680  0.1794
 7062W        W22193   8.080   6.656   4.063  0.0145  0.1554 -0.0767
 7063W        W22194   6.519   5.433   0.845 -0.3165  0.1111  0.0014
 7064W        W22195   9.226  13.365   1.952 -0.0615 -0.1654 -0.0160
 7065W        W22196   6.447  14.674   1.220 -0.0489  0.1754 -0.0621
 7066W        W22197   4.885   1.581   4.458  0.3125  0.3418 -0.0977
 7067W        W22198  12.969   6.822   4.560  0.1809 -0.1312 -0.0664
 7068W        W22199   9.856   6.922   0.845  0.0844  0.0791  0.1373
 7069W        W22200  17.633   2.126   5.260 -0.1735  0.0467 -0.2168
 7070W        W22201  11.824  11.284   1.699 -0.4661 -0.1458  0.1778
 7071W        W22202  14.767   4.667   1.283 -0.1535 -0.0561 -0.0439
 7072W        W22203  11.272  15.926   4.191  0.0952  0.0924  0.0322
 7073W        W22204   6.576   4.092   4.433  0.2498  0.0918  0.3851
 7074W        W22205   5.129  12.748   5.403  0.0500  0.0301 -0.2956
 7075W        W22206   3.248  15.030   2.008  0.1502 -0.4099  0.3480
 7076W        W22207   7.388  13.148  12.927  0.1654 -0.0283 -0.1608
 7077W        W22208  17.265   8.806   4.085 -0.0275  0.1166  0.1275
 7078W        W22209   5.282  18.056  10.331  0.1717  0.0663  0.0305
 7079W        W22210   2.886   3.450   5.132  0.0538  0.0615  0.0309
 7080W        W22211   5.131  12.078  14.428 -0.0934 -0.0435  0.0288
 7081W        W22212  12.296   3.043  11.762  0.2282 -0.1379  0.3835
 7082W        W22213  12.850   0.087  12.068  0.3114  0.1995  0.1384
 7083W        W22214  11.221  13.819  11.057  0.2395 -0.1191  0.1184
 7084W        W22215   0.414   4.613  11.293 -0.0660  0.4632 -0.0493
 7085W        W22216  16.685   6.006  10.901  0.0302  0.0668  0.0325
 7086W        W22217  10.373   8.536   1.682  0.3079  0.1168 -0.0843
 7087W        W22218   5.807   8.180   1.843 -0.3522 -0.1683  0.0386
 7088W        W22219  13.738  15.609   9.379 -0.0193 -0.2262 -0.1852
 7089W        W22220   5.854  16.108  13.152  0.2668  0.1377  0.0769
 7090W        W22221   7.572   1.206  15.367 -0.0598  0.2295  0.0342
 7091W        W22222   0.622   3.081   2.168  0.0109  0.1181  0.0984
 7092W        W22223  11.565  15.556  15.481  0.1518 -0.1298  0.4515
 7093W        W22224   3.560  15.114   2.911  0.1767 -0.4605  0.3210
 7094W        W22225   8.264  10.849  12.588  0.2930 -0.0942 -0.1129
 7095W        W22226  12.476  14.433  13.840  0.2031  0.3301  0.0729
 7096W        W22227  12.257   1.993  10.921  0.3902  0.1990  0.1734
 7097W        W22228  14.823  12.725   4.671 -0.0584  0.1271 -0.2133
 7098W        W22229  15.818   2.155  11.654 -0.2707 -0.2506 -0.3229
 7099W        W22230   9.170   8.605  12.778  0.0265 -0.1264  0.1048
 7100W        W22231  17.766   2.552   2.849 -0.2697 -0.1750 -0.3053
 7101W        W22232   6.298  14.049   4.852 -0.2438  0.0038 -0.3395
 7102W        W22233   5.092   7.052   0.501 -0.1502 -0.0560  0.1914
 7103W        W22234  18.465  14.083  11.766  0.0863  0.0028  0.0070
 7104W        W22235  16.295   5.362   3.017 -0.0847  0.0953  0.0871
 7105W        W22236   8.235   2.862  14.513 -0.2989 -0.1660  0.1694
 7106W        W22237  17.146   5.986   5.168 -0.0888 -0.0284  0.0112
 7107W        W22238   0.043  14.433   4.426 -0.3180 -0.1095  0.0731
 7108W        W22239  13.812   8.231   0.153  0.0048 -0.0624  0.0909
 7109W        W22240  12.106  14.286  11.886  0.2170 -0.1206  0.2216
 7110W        W22241  11.302   0.091   9.875 -0.0926 -0.0767 -0.2410
 7111W        W22242  13.666  18.228  13.540  0.0257 -0.1887  0.0302
 7112W        W22243  17.790   3.493   0.462 -0.0849  0.3940 -0.1655
 7113W        W22244   6.912  12.435  12.447 -0.0816 -0.3316 -0.1761
 7114W        W22245   6.146  13.387  14.040  0.1143  0.0950 -0.0545
 7115W        W22246  16.255   6.466   3.699 -0.0445 -0.1565  0.2812
 7116W        W22247  15.322   8.764   1.488  0.2811  0.3979 -0.0479
 7117W        W22248  16.023  15.121   1.355 -0.0072  0.2495  0.1054
 7118W        W22249   0.948  14.741  15.890 -0.1534 -0.1067  0.1129
 7119W        W22250   1.086  12.882  12.274 -0.3935  0.0489 -0.0498
 7120W        W22251   6.854  11.523  10.055 -0.1346  0.3658 -0.2047
 7121W        W22252  10.303  15.150   3.176 -0.2319  0.0844  0.1783
 7122W        W22253  16.132   3.357   1.010 -0.2177 -0.2086  0.0394
 7123W        W22254  12.386  16.598  10.533 -0.1139  0.0528  0.0285
 7124W        W22255  10.113   4.917   3.527 -0.2288 -0.1999 -0.2643
 7125W        W22256   3.038   7.403   4.347 -0.2076  0.2718  0.4054
 7126W        W22257  17.926  16.756   0.589 -0.2285  0.1606 -0.0399
 7127W        W22258   7.077  12.148   1.278  0.1768  0.4187  0.5085
 7128W        W22259  18.204  15.557   0.943  0.1038 -0.3066 -0.1873
 7129W        W22260  17.557   0.814  14.120 -0.0256  0.2476  0.0905
 7130W        W22261   0.932   2.348  13.581  0.2122  0.3583  0.0028
 7131W        W22262  14.627  17.858  13.176  0.2205  0.1917 -0.0363
 7132W        W22263   3.475  15.269  14.008  0.6313  0.2046 -0.2479
 7133W        W22264  14.823  17.556   3.376 -0.0709 -0.0492  0.1257
 7134W        W22265  16.112   2.387  13.003  0.0423 -0.1355 -0.0830
 7135W        W22266  11.205   5.149   3.960 -0.1462 -0.0536  0.0422
 7136W        W22267   3.017  16.561  13.921  0.0378  0.0215 -0.0834
 7137W        W22268  17.846   5.863   1.104  0.1047 -0.1835  0.1513
 7138W        W22269   3.315   2.946  14.138 -0.4634  0.2778  0.1801
 7139W        W22270  14.760  17.193   1.520 -0.1600  0.0361 -0.0798
 7140W        W22271   8.264  13.150  10.990 -0.1219  0.2091 -0.0146
 7141W        W22272  10.625  17.686   2.265  0.4403  0.0552  0.1891
 7142W        W22273   3.144  15.912   0.032  0.1561  0.3522  0.1123
 7143W        W22274   1.310   3.616   0.124  0.2375 -0.2624  0.0597
 7144W        W22275   9.690   0.752  15.100  0.0450  0.1277 -0.0332
 7145W        W22276  17.017  17.871   5.129 -0.1862  0.1862 -0.0462
 7146W        W22277   9.790   3.035  14.271 -0.2711 -0.1565  0.1500
 7147W        W22278  12.972  18.245  10.630  0.0444  0.0949  0.1046
 7148W        W22279   1.444   4.382  15.192 -0.0871 -0.1337  0.0159
 7149W        W22280   4.385   0.125  14.185 -0.1297 -0.0617  0.1805
 7150W        W22281  12.389  18.419  15.292  0.0841  0.1943  0.1611
 7151W        W22282   9.692   4.196   9.794 -0.0282  0.0537 -0.0263
 7152W        W22283  10.074  18.170   2.028 -0.0615 -0.0988  0.3012
 7153W        W22284   4.400   2.543   5.665  0.1570 -0.2005 -0.2826
 7154W        W22285   2.527   2.656  13.991  0.0397 -0.1468 -0.3593
 7155W        W22286  14.859  15.848   4.364  0.0941 -0.2318  0.1814
 7156W        W22287  14.274   6.035  13.494  0.0529 -0.2690  0.0113
 7157W        W22288   9.629  13.465   0.079  0.0601 -0.0544  0.2074
 7158W        W22289  12.328  16.702  15.347 -0.0792 -0.2796  0.1133
 7159W        W22290   2.001  16.005   5.619 -0.0995  0.1905 -0.0213
 7160W        W22291   7.676  14.526   2.832 -0.3281  0.0038  0.1903
 7161W        W22292  15.673   5.805  11.188  0.2396  0.0257 -0.0442
 7162W        W22293  10.631   3.940  10.471 -0.2630  0.0153 -0.0891
 7163W        W22294  16.478   9.391  12.337 -0.5275 -0.4234 -0.0137
 7164W        W22295   8.499   7.821   4.524 -0.0050  0.0119  0.1064
 7165W        W22296   0.896   4.743  11.567  0.2706 -0.1102 -0.2926
 7166W        W22297  18.371   8.564   2.523  0.1819  0.2366 -0.0690
 7167W        W22298  11.626  12.263   4.793 -0.3110 -0.2551  0.3634
 7168W        W22299   3.499  13.138  12.286  0.2833 -0.0146 -0.0225
 7169W        W22300   1.929  15.964   4.289 -0.0422 -0.0073  0.1429
 7170W        W22301  13.098  10.544   1.569 -0.3381  0.0752  0.0049
 7171W        W22302  15.441   2.295   2.814  0.1374 -0.2018 -0.3023
 7172W        W22303  14.871  13.485   0.170 -0.0220  0.3344  0.2039
 7173W        W22304   1.652  11.452  12.532 -0.3400 -0.2212  0.0450
 7174W        W22305   3.147   7.576  11.007 -0.0237 -0.0453  0.0499
 7175W        W22306   4.851   9.260  15.043 -0.0340 -0.1640 -0.2137
 7176W        W22307  14.102   0.144  15.236  0.0159 -0.3259 -0.0523
 7177W        W22308   8.402  12.174  15.442 -0.0223 -0.3001 -0.0859
 7178W        W22309   3.479  17.130   3.524  0.0265 -0.0282  0.2606
 7179W        W22310  18.380   0.125   1.424  0.4267  0.0160 -0.1143
 7180W        W22311  14.975  14.703  12.744 -0.1267 -0.0098  0.1052
 7181W        W22312  14.158   9.010  15.853 -0.2911  0.0046 -0.1114
 7182W        W22313   9.409   3.778   1.945  0.1732 -0.3278 -0.0914
 7183W        W22314  18.099  16.862   2.152 -0.0379  0.3454 -0.1026
 7184W        W22315   1.211  11.655   1.433 -0.2310  0.0225  0.2475
 7185W        W22316   1.878   1.646  10.714  0.1562  0.0761 -0.1058
 7186W        W22317   0.702   4.714   3.860 -0.0141  0.0302 -0.1517
 7187W        W22318   2.565   8.004   4.768 -0.2409 -0.1065 -0.1509
 7188W        W22319   9.413   1.141  12.718 -0.3010  0.3311 -0.1823
 7189W        W22320   6.762  15.314   0.541  0.1210 -0.2630 -0.0435
 7190W        W22321   8.231  14.720   9.443 -0.1788 -0.0907 -0.0840
 7191W        W22322   8.250   9.818   0.190 -0.0950  0.0398 -0.0226
 7192W        W22323   4.918  16.647  11.559  0.1473  0.0842 -0.2092
 7193W        W22324   5.922  17.106  15.147  0.1171 -0.3268  0.0991
 7194W        W22325  12.845   3.258   5.121 -0.1234  0.1076  0.2148
 7195W        W22326  17.109   2.434  15.083 -0.0983  0.0578  0.1162
 7196W        W22327  17.544  11.216  14.157 -0.2061 -0.4244  0.2796
 7197W        W22328  16.017   9.178  12.410  0.1251 -0.0568 -0.1695
 7198W        W22329  11.320  15.459  14.046  0.0282  0.0577  0.1766
 7199W        W22330  17.926   4.193  14.850  0.1082 -0.5760 -0.1443
 7200W        W22331  13.973   6.675  12.342  0.1231 -0.0879  0.0224
 7201W        W22332   8.350   3.576   3.074  0.0362 -0.0634  0.0568
 7202W        W22333  16.929   7.909   0.359  0.0678  0.1569  0.1938
 7203W        W22334   6.578   3.663   0.944 -0.0088 -0.1282  0.1488
 7204W        W22335   5.117  10.351  11.693  0.3149  0.1651  0.0326
 7205W        W22336  12.553   8.242   1.374 -0.0073  0.0119 -0.0447
 7206W        W22337   7.174   6.042  11.813 -0.2090 -0.0612 -0.2087
 7207W        W22338   0.646  17.962  11.993 -0.0560 -0.0311 -0.1269
 7208W        W22339   1.283   1.364   2.984  0.5168 -0.1626 -0.1043
 7209W        W22340   2.387   5.685   2.148  0.0867  0.2957 -0.0676
 7210W        W22341   2.921   1.810   1.231  0.0653  0.0024  0.0425
 7211W        W22342   2.587  16.539  11.632 -0.0266 -0.4107 -0.0157
 7212W        W22343   7.255  10.774  13.050 -0.1425  0.2450 -0.1413
 7213W        W22344  12.389   4.360   4.217  0.1586 -0.0533  0.1360
 7214W        W22345   9.723  10.686   4.605 -0.1329 -0.2425 -0.0415
 7215W        W22346  14.309  13.561   5.025  0.0885 -0.4297  0.2591
 7216W        W22347  12.821  11.310  13.695  0.3989  0.0443  0.1056
 7217W        W22348   5.123   3.876   5.781 -0.3815  0.1408  0.1700
 7218W        W22349   1.626  11.071  12.912 -0.0452  0.2370  0.2457
 7219W        W22350   4.627  11.904  13.690 -0.2425 -0.2676  0.1231
 7220W        W22351  14.582   3.276   2.261 -0.0303 -0.1354  0.1827
 7221W        W22352  15.659  14.853  13.495  0.0990  0.1851 -0.2049
 7222W        W22353  17.727   2.392  13.860  0.1313  0.1892  0.0822
 7223W        W22354   1.967  14.462   2.524 -0.2847  0.0969  0.1386
 7224W        W22355   7.440   8.513   2.024  0.3677  0.1457  0.1783
 7225W        W22356   1.788  10.329   0.405  0.1620  0.1576 -0.3111
 7226W        W22357  15.454  16.920  13.885 -0.0166  0.0842 -0.0988
 7227W        W22358   0.735   0.581   4.133 -0.4322  0.0603 -0.1028
 7228W        W22359  17.704  14.832   1.747  0.0240  0.1247 -0.0626
 7229W        W22360  16.342   6.622   4.619  0.4132 -0.0594 -0.2631
 7230W        W22361   1.107   1.025   3.740  0.0866  0.0828  0.1484
 7231W        W22362  15.608   5.000   3.069  0.2565  0.3707  0.2047
 7232W        W22363   5.736  13.181  12.373 -0.1376  0.0172 -0.0073
 7233W        W22364   8.275   4.013   2.753  0.1299  0.0687 -0.0878
 7234W        W22365  15.310   4.365  11.263 -0.2094  0.2692 -0.0250
 7235W        W22366  18.231  15.037   4.584  0.1246 -0.3215  0.1100
 7236W        W22367  15.582  16.331   2.287  0.0463 -0.1339  0.1147
 7237W        W22368   6.051   7.073  12.641 -0.1174 -0.0009  0.1185
 7238W        W22369   1.810  10.264  12.176  0.0484 -0.0307 -0.3189
 7239W        W22370   9.825  10.470  11.087 -0.2926 -0.0014  0.0810
 7240W        W22371  12.023  10.975   0.046  0.1807  0.2222  0.3168
 7241W        W22372   3.624  11.220   1.167 -0.0952  0.0056  0.1189
 7242W        W22373   3.269  10.427   3.913 -0.2820 -0.2574  0.1774
 7243W        W22374   1.199  11.934  11.684 -0.0261 -0.3116 -0.2753
 7244W        W22375   0.866   9.063   3.383 -0.2242 -0.1531 -0.0830
 7245W        W22376   6.610  15.401  15.797  0.0818 -0.1711  0.0460
 7246W        W22377  17.562   2.560   3.712  0.1267 -0.1623  0.1770
 7247W        W22378   9.380  12.698  11.455 -0.0248 -0.1154 -0.0039
 7248W        W22379   1.414  11.751  13.148 -0.1745 -0.1066 -0.3715
 7249W        W22380  17.061  11.221   1.429 -0.2914  0.1598  0.1423
 7250W        W22381  12.540  16.410   4.087  0.2878  0.2658 -0.2021
 7251W        W22382   6.380  14.215  15.539  0.2058  0.1464 -0.0813
 7252W        W22383  10.533  16.772   0.918 -0.1247 -0.1225 -0.1162
 7253W        W22384  11.175  16.578   1.233 -0.1245  0.3393  0.5101
 7254W        W22385  10.927  16.209  14.031  0.3199 -0.1736 -0.2671
 7255W        W22386  12.397   4.434   1.330  0.1696 -0.0245  0.0806
 7256W        W22387  14.353  15.758  10.398  0.1202  0.2268 -0.1683
 7257W        W22388  11.086  11.628   0.846 -0.3140 -0.0933  0.1320
 7258W        W22389  17.635  14.660  14.707 -0.1518  0.0376 -0.1107
 7259W        W22390   9.802  10.538  14.817 -0.1841 -0.2426 -0.0940
 7260W        W22391  12.837   6.078   4.941 -0.4032  0.1435  0.0817
 7261W        W22392  13.259  13.879  10.266 -0.0664 -0.0814 -0.0877
 7262W        W22393  10.046  16.771  14.484 -0.0133  0.0284 -0.1136
 7263W        W22394   6.271   6.414   0.858  0.4003 -0.3713  0.1734
 7264W        W22395  14.820   5.475   3.188 -0.0876 -0.0263 -0.1362
 7265W        W22396  11.181  15.655   2.872 -0.1987  0.0954  0.2599
 7266W        W22397  10.077   8.974  11.806  0.0073 -0.3210 -0.1262
 7267W        W22398   7.733  14.914   9.402 -0.1457  0.0317 -0.1603
 7268W        W22399   5.249   4.815   1.640 -0.0688 -0.3139  0.3080
 7269W        W22400  15.447  14.741  11.347 -0.1096  0.0432 -0.1098
 7270W        W22401  12.311   4.243  13.996 -0.0618 -0.3299 -0.2145
 7271W        W22402  11.659  10.270  15.414 -0.4306  0.4785 -0.2164
 7272W        W22403  10.247  18.057  14.111 -0.4162  0.1996  0.4001
 7273W        W22404   5.313  10.082  14.971  0.2295  0.4807 -0.2049
 7274W        W22405   6.878   4.857   5.587 -0.0543  0.0011  0.1329
 7275W        W22406   8.096  14.622  14.432 -0.1711  0.0172 -0.0747
 7276W        W22407   0.893  15.761  13.626 -0.1558  0.1111 -0.0844
 7277W        W22408   2.260  13.317   0.267  0.3978 -0.1257  0.1210
 7278W        W22409   8.270   5.235  15.096  0.0480 -0.1426 -0.3624
 7279W        W22410   8.512  13.216  10.528  0.2350 -0.1703  0.0809
 7280W        W22411   7.017  11.155  15.209 -0.1288 -0.2705  0.1962
 7281W        W22412   5.127   9.710  13.056 -0.5222 -0.0692 -0.0666
 7282W        W22413  12.822   2.226   2.423 -0.2074 -0.0996  0.0978
 7283W        W22414  13.566   6.723  12.065 -0.2000 -0.1040  0.1461
 7284W        W22415  10.711   6.865  11.224 -0.1829  0.1646  0.0832
 7285W        W22416   4.091   4.498   1.801 -0.2502  0.0244  0.0845
 7286W        W22417  11.378  14.445  14.697 -0.2657 -0.0385  0.3689
 7287W        W22418   9.081  10.435  14.105  0.2261  0.0412  0.0259
 7288W        W22419   6.683   2.399   2.680  0.1481 -0.1774  0.1537
 7289W        W22420   5.973  10.077   1.002 -0.0070  0.0693  0.0498
 7290W        W22421   5.573   4.046  13.355 -0.0708 -0.2006 -0.2210
 7291W        W22422  17.751  12.851  13.940 -0.0660 -0.0257 -0.1572
 7292W        W22423  16.157   5.890  11.257 -0.3694  0.0804 -0.1363
 7293W        W22424  14.858   4.149   5.119 -0.0318  0.0359 -0.0813
 7294W        W22425   3.880  15.400  12.246 -0.0833  0.3633  0.0836
 7295W        W22426  12.514   8.695  14.095 -0.0950  0.0602 -0.2341
 7296W        W22427  10.600  10.524   3.994  0.0133  0.4168  0.1278
 7297W        W22428  13.125  17.363   3.975 -0.3833 -0.1042  0.0608
 7298W        W22429   3.812   9.866  11.675  0.1612 -0.2545  0.2744
 7299W        W22430   6.833  15.471  12.934  0.0344  0.0418  0.0407
 7300W        W22431  10.051   8.139   1.917 -0.1279  0.1602  0.0651
 7301W        W22432   1.411   1.949  10.918  0.1063 -0.2386  0.2131
 7302W        W22433  10.714  11.796   2.838 -0.0797 -0.3278  0.2259
 7303W        W22434   5.517   7.649  11.446 -0.0960  0.0111 -0.0756
 7304W        W22435   4.445  11.873  12.192  0.0578  0.2933 -0.2317
 7305W        W22436   9.330  11.247  14.332 -0.1773  0.3764  0.1729
 7306W        W22437   0.030   2.979  14.651  0.1616 -0.1085  0.2476
 7307W        W22438  15.993   6.781   5.047 -0.0737  0.0188 -0.0016
 7308W        W22439   3.546   5.904  14.216 -0.0609 -0.0484 -0.1559
 7309W        W22440  15.631   0.205   0.930 -0.1311 -0.1131 -0.2396
 7310W        W22441   6.454  11.840  15.278 -0.1617  0.1663  0.0551
 7311W        W22442   0.914   0.127  11.374 -0.1348  0.4783 -0.3841
 7312W        W22443  16.427   7.350   4.039  0.0634 -0.3152  0.0892
 7313W        W22444   3.250   1.135  15.365  0.0914 -0.1446  0.5350
 7314W        W22445   3.915   7.264   0.341  0.0326  0.0105 -0.1679
 7315W        W22446  12.527  17.994   3.012  0.0609 -0.0108  0.2811
 7316W        W22447  11.643   7.920   0.845  0.4140 -0.0719 -0.2611
 7317W        W22448  15.987  13.621  12.220  0.0368 -0.1010  0.1637
 7318W        W22449  16.906  10.118   5.830  0.0095  0.2030 -0.0367
 7319W        W22450   4.291  11.840  11.498  0.3234  0.0093 -0.0361
 7320W        W22451  12.135   1.735   4.368  0.1599  0.3909 -0.0602
 7321W        W22452  15.254   4.991  14.942 -0.2182  0.1007  0.0058
 7322W        W22453   1.139  15.591  14.567 -0.2528  0.0824 -0.1061
 7323W        W22454  15.294  12.217  15.208  0.1154 -0.0818  0.2669
 7324W        W22455   5.039  12.839  11.564  0.0483  0.1525  0.0013
 7325W        W22456  17.223  15.221   0.044  0.1037  0.1030 -0.2591
 7326W        W22457   2.510  14.097   1.476 -0.0954 -0.0586  0.2146
 7327W        W22458  15.586   1.097   2.533  0.4471  0.2344 -0.2789
 7328W        W22459  10.641  11.642   1.819  0.1683  0.1390 -0.1508
 7329W        W22460   7.304   7.243  14.841  0.1650  0.1901  0.0659
 7330W        W22461  16.919   8.158   3.543 -0.0288  0.0359  0.2267
 7331W        W22462  13.348   1.478   4.859 -0.1249  0.2880  0.0632
 7332W        W22463  17.141  15.609  14.938  0.3010  0.2909 -0.1354
 7333W        W22464   6.782  12.431   3.076 -0.2642  0.0729  0.0301
 7334W        W22465   1.884  16.670  11.355 -0.2278 -0.2876  0.1946
 7335W        W22466   1.987   2.344   3.822 -0.2135 -0.3969 -0.0102
 7336W        W22467  10.634   5.338   5.260  0.1929  0.1363 -0.2266
 7337W        W22468  16.292   0.000  14.979 -0.0372 -0.2176 -0.2686
 7338W        W22469   8.245   3.514   4.122  0.2778  0.4068 -0.3639
 7339W        W22470   8.109   6.270   2.801 -0.0735  0.0380 -0.0074
 7340W        W22471  14.139  12.281  14.841 -0.3262 -0.4523 -0.0304
 7341W        W22472   3.472  14.883  11.699  0.2240  0.0689 -0.0926
 7342W        W22473   1.312   8.880   2.071 -0.2569  0.2177 -0.1845
 7343W        W22474   9.682  17.660  11.871 -0.1040  0.0924 -0.0347
 7344W        W22475   5.967   2.217   1.042  0.1279  0.2898 -0.1799
 7345W        W22476   3.421  10.997  13.616 -0.0223 -0.0692  0.0318
 7346W        W22477  14.227   8.960   5.002 -0.0339  0.0367 -0.3059
 7347W        W22478   0.747   7.833   1.252 -0.0735 -0.1415 -0.1382
 7348W        W22479   8.294   8.565  12.962  0.1233  0.3784 -0.1911
 7349W        W22480  10.782  12.924  11.393  0.1618  0.0508  0.2427
 7350W        W22481  13.663  13.057   3.419 -0.0228  0.0073  0.1072
 7351W        W22482  15.772  15.783  13.308  0.2070 -0.0706  0.1498
 7352W        W22483  11.618  14.671  14.279  0.1037 -0.0787  0.0590
 7353W        W22484  11.154   7.439   3.479  0.2422  0.0355  0.2726
 7354W        W22485   0.373   3.347   3.583  0.3753  0.0060 -0.1896
 7355W        W22486   4.796  12.117   5.089 -0.2890 -0.2791 -0.3019
 7356W        W22487  17.710  12.116   3.289 -0.2445 -0.4598  0.1530
 7357W        W22488  15.329   4.686   3.399  0.2365 -0.2648  0.0695
 7358W        W22489  15.015  12.418   1.793 -0.0628  0.1906  0.4508
 7359W        W22490   4.507  14.587  10.649 -0.1753  0.0880 -0.0048
 7360W        W22491  10.883  12.762  11.926  0.1311  0.0024 -0.0911
 7361W        W22492  12.812   4.656  13.222 -0.0817  0.1547  0.0800
 7362W        W22493   1.008   1.585   4.428  0.0107 -0.0404  0.1231
 7363W        W22494   7.378  17.862  14.375  0.3789 -0.0655  0.0148
 7364W        W22495   3.881   2.044  13.251  0.0555 -0.0440 -0.2242
 7365W        W22496   6.480  15.850   4.066  0.2112  0.1407 -0.2965
 7366W        W22497   1.833  10.028  14.321 -0.2403  0.1263 -0.0326
 7367W        W22498   7.242   8.325   4.442 -0.3171 -0.3165  0.1382
 7368W        W22499  14.930   5.379   3.714  0.0293 -0.3731  0.1718
 7369W        W22500   1.279   6.487  11.329  0.0376  0.2449 -0.1060
 7370W        W22501   6.186   1.745   3.534  0.1102 -0.3197 -0.0745
 7371W        W22502   4.727  11.039  12.571  0.2839 -0.0675 -0.3183
 7372W        W22503   4.852   6.719   3.669 -0.1515 -0.0686  0.1883
 7373W        W22504  18.119  10.996  11.255 -0.2997 -0.3873 -0.1857
 7374W        W22505   7.383  11.000   0.914 -0.4762 -0.0767  0.0565
 7375W        W22506   0.275   5.890  11.012  0.1576 -0.0178  0.0424
 7376W        W22507  16.731  15.651  11.855  0.1763  0.0929  0.1693
 7377W        W22508  16.276  10.093  15.713  0.1123  0.0275 -0.3559
 7378W        W22509   5.415  11.735  12.782 -0.2284 -0.0167  0.1937
 7379W        W22510   4.607   9.925   3.840 -0.0558 -0.1617 -0.0134
 7380W        W22511   8.630   8.203   1.107  0.1960  0.2434 -0.3360
 7381W        W22512   1.649  10.542  13.490 -0.3683  0.1240  0.0399
 7382W        W22513  11.606   7.083   0.632  0.3766 -0.0644  0.2432
 7383W        W22514  14.310  11.053   4.047  0.1409 -0.2748 -0.1146
 7384W        W22515   1.062  15.217   0.504 -0.0483  0.0674  0.3701
 7385W        W22516  14.112  13.291  10.111  0.2179  0.0718 -0.1073
 7386W        W22517  15.685   5.146  15.215 -0.2848  0.0930  0.0497
 7387W        W22518   0.805   1.326   1.913 -0.2437  0.0692  0.0284
 7388W        W22519   3.436   0.880   5.293  0.2462  0.3633  0.3599
 7389W        W22520  15.818   9.031   1.157 -0.2142 -0.3241  0.0485
 7390W        W22521   6.411   7.838   4.165  0.0838 -0.1850  0.4187
 7391W        W22522   5.896   6.254  14.045  0.0686  0.1422 -0.0774
 7392W        W22523   7.721   9.987  11.919 -0.0373  0.2224 -0.0640
 7393W        W22524   4.810  14.813   9.738  0.2159 -0.0099 -0.1445
 7394W        W22525   8.934   3.129  12.024 -0.0860  0.0518  0.1126
 7395W        W22526   5.083  15.157  13.309 -0.1593  0.0540 -0.0874
 7396W        W22527   2.762   6.449  13.304 -0.1693 -0.5041  0.1352
 7397W        W22528  11.074   0.187   3.903 -0.0971 -0.1962 -0.1110
 7398W        W22529   4.020   8.576   3.089 -0.0181  0.1347  0.2129
 7399W        W22530  11.285   6.721  10.366  0.1073 -0.2354  0.0732
 7400W        W22531   9.905   2.605  12.323 -0.0355  0.1977 -0.2363
 7401W        W22532   8.093  14.864   0.708  0.0173  0.2967  0.1987
 7402W        W22533   0.193  12.876   3.913  0.0593 -0.5242  0.1746
 7403W        W22534   7.613  15.974  12.214 -0.0124 -0.0580  0.0982
 7404W        W22535   4.184   0.925   3.307  0.4312  0.0677  0.0323
 7405W        W22536  15.913   3.886   3.794 -0.3101  0.1071 -0.0535
 7406W        W22537  16.133   8.903   0.717  0.0195 -0.0594 -0.3172
 7407W        W22538   8.833  16.278  12.299 -0.0627 -0.0026  0.0353
 7408W        W22539   7.783   0.745   4.722 -0.1524  0.0881  0.1356
 7409W        W22540   1.049  14.156   0.015  0.1202  0.1695 -0.2175
 7410W        W22541   4.270  18.197  14.681 -0.1779  0.2198  0.0159
 7411W        W22542   5.903  14.791  13.836 -0.1632  0.1831 -0.2936
 7412W        W22543   6.429  11.863  12.946 -0.0469 -0.0092 -0.1022
 7413W        W22544   4.700  15.686  15.879  0.1166  0.1776 -0.1513
 7414W        W22545   9.707   5.874   4.801 -0.0496  0.0059 -0.0172
 7415W        W22546   5.724   1.130  14.544  0.0001 -0.0474 -0.0280
 7416W        W22547   1.423  18.133   1.843  0.4107 -0.0521  0.3770
 7417W        W22548  12.547   5.586  15.510 -0.0005  0.2042 -0.0959
 7418W        W22549   0.256  17.321  11.537 -0.1455 -0.2160  0.1714
 7419W        W22550  18.363   8.942   0.571 -0.2541 -0.2210  0.0582
 7420W        W22551  14.765  10.213  11.758  0.0930  0.0255  0.0642
 7421W        W22552   0.656  15.956  14.660 -0.5991 -0.0846  0.1848
 7422W        W22553  17.816  18.439   1.720 -0.2557  0.2803  0.0288
 7423W        W22554   8.385  17.864   2.991 -0.2901  0.0489 -0.3132
 7424W        W22555   7.186  11.415   2.958  0.1441 -0.1725 -0.2910
 7425W        W22556   4.626  14.320  15.544 -0.1132 -0.3331  0.0078
 7426W        W22557   5.933  14.113   0.252  0.1024 -0.0292  0.1462
 7427W        W22558  15.450  11.926  11.419 -0.1624  0.2707  0.1484
 7428W        W22559  11.301   7.002  10.846  0.0657 -0.2009 -0.2487
 7429W        W22560   6.442   0.555   1.883 -0.2367 -0.0035  0.0479
 7430W        W22561  11.450   7.465   0.865 -0.1882  0.2131 -0.2838
 7431W        W22562   2.291  12.835  10.231  0.1980  0.1491  0.1052
 7432W        W22563  13.666   8.607   9.886 -0.2998  0.0983 -0.0063
 7433W        W22564  11.768   1.540  15.541  0.0280  0.0406 -0.0041
 7434W        W22565   1.931   5.528   3.898  0.1554  0.1224 -0.3406
 7435W        W22566   7.971  12.511  12.580 -0.0942  0.0260  0.3484
 7436W        W22567  14.299  13.266  15.007 -0.0935 -0.2852 -0.4102
 7437W        W22568   5.919   6.818   4.607 -0.0916  0.0323 -0.1312
 7438W        W22569  13.399   7.788   5.546  0.2070 -0.0845 -0.0893
 7439W        W22570   0.015   2.233  12.312  0.0462  0.1264  0.0184
 7440W        W22571  16.904   7.109  14.474  0.2503  0.0479 -0.2354
 7441W        W22572  17.559  10.958  14.617  0.0857 -0.1047 -0.0277
 7442W        W22573   0.486  11.630   4.378 -0.0804  0.2608 -0.0030
 7443W        W22574   7.314  17.823   4.005  0.0379  0.1846 -0.2573
 7444W        W22575  18.033  11.924  13.476  0.2304  0.1640  0.0011
 7445W        W22576  10.119   5.232   5.275  0.0586  0.1666 -0.2161
 7446W        W22577   6.931   5.333   0.537  0.1122 -0.0228 -0.0369
 7447W        W22578   1.921   8.405   2.401 -0.1611  0.0921  0.0604
 7448W        W22579   3.757  17.906   2.888  0.1105  0.0979  0.1035
 7449W        W22580  17.731  17.727  12.689  0.0351 -0.0788  0.0844
 7450W        W22581   3.981   1.192   5.288 -0.1152 -0.3569 -0.3681
 7451W        W22582  12.716  14.009  12.937 -0.2067 -0.1537  0.0380
 7452W        W22583   8.948   4.748   5.576  0.0684 -0.3200  0.1530
 7453W        W22584   5.530   8.557   2.888 -0.1704 -0.3607 -0.4656
 7454W        W22585  15.798  17.138  14.386 -0.1805 -0.0868 -0.3084
 7455W        W22586   2.782   4.779  11.398 -0.0119 -0.0263  0.1433
 7456W        W22587  15.878   5.741  14.768 -0.0336  0.1955 -0.2931
 7457W        W22588  11.179  12.115   0.849  0.2411 -0.2242 -0.3639
 7458W        W22589   8.647   9.543   2.275  0.0738  0.0401 -0.1038
 7459W        W22590   4.576  13.341   3.498  0.1761 -0.3342  0.0425
 7460W        W22591   0.750  18.228  15.161 -0.0478 -0.0495 -0.0167
 7461W        W22592   2.182   1.879  12.310  0.0241  0.3292  0.2253
 7462W        W22593   8.319  18.319   1.508 -0.0312 -0.1092 -0.2224
 7463W        W22594  15.447   8.723  15.480 -0.1185  0.1216 -0.0375
 7464W        W22595   3.219  14.270  15.627 -0.2656  0.2888 -0.4159
 7465W        W22596  18.237   8.527  13.736  0.1017 -0.5559  0.1229
 7466W        W22597  17.584  18.110   0.994  0.1029  0.2135  0.0165
 7467W        W22598  14.299  17.996   0.582  0.3557  0.1713 -0.2007
 7468W        W22599  14.780  16.152   3.586  0.2466  0.0175 -0.1406
 7469W        W22600  17.899  12.776  12.038  0.2109 -0.1257 -0.2365
 7470W        W22601   6.086  11.540  11.022 -0.1805 -0.1609 -0.1009
 7471W        W22602  16.045  13.065   0.644 -0.2588 -0.1182 -0.0369
 7472W        W22603   9.450   6.895  11.697  0.2269  0.0082  0.0510
 7473W        W22604  15.755  11.035  14.579 -0.1313  0.3226 -0.3733
 7474W        W22605  16.957  12.775   2.382 -0.2934 -0.0892 -0.0745
 7475W        W22606   8.550   9.098  12.161  0.1208  0.1490 -0.2058
 7476W        W22607   3.829  12.414  13.551  0.0495 -0.0145 -0.1223
 7477W        W22608   7.909  11.851  11.942  0.1160 -0.2537 -0.3086
 7478W        W22609   5.513  12.005   5.531 -0.0943 -0.0464  0.2344
 7479W        W22610   8.514   3.796  10.328  0.0917  0.3238 -0.1705
 7480W        W22611  15.915  17.503  11.069  0.2020 -0.2180  0.1649
 7481W        W22612   6.909  10.426  12.231  0.0443  0.2689  0.0695
 7482W        W22613  16.822  15.794  14.429  0.0840 -0.1764 -0.0112
 7483W        W22614   0.359  13.743  11.682 -0.0875 -0.0998 -0.6161
 7484W        W22615  16.532  18.192  15.295 -0.1117 -0.3431 -0.1767
 7485W        W22616  15.483   2.558  14.378 -0.0895 -0.2189  0.0085
 7486W        W22617   0.847   2.436   4.256 -0.0530  0.0025  0.0066
 7487W        W22618   6.116  14.865   0.863  0.1900  0.1546 -0.0023
 7488W        W22619   1.754  13.306   3.119 -0.1087 -0.2456  0.1441
 7489W        W22620   0.387   7.145   5.720 -0.0731  0.2221  0.0445
 7490W        W22621   3.256  15.617   3.193 -0.3100 -0.0676  0.2995
 7491W        W22622   7.969   7.581   0.906 -0.3498  0.1555 -0.1776
 7492W        W22623  10.833   6.495  11.630  0.1167 -0.0863 -0.0042
 7493W        W22624   9.053  18.494   4.868  0.0763  0.2345  0.0085
 7494W        W22625  10.278  10.895  10.235  0.1458 -0.1126  0.2287
 7495W        W22626  14.649  12.311   2.281 -0.0613  0.2150  0.0705
 7496W        W22627   9.135   2.821  14.805 -0.1372 -0.2729 -0.1928
 7497W        W22628   6.340  13.961  14.660  0.5263 -0.1193  0.2240
 7498W        W22629  13.428   7.870   3.369  0.1104  0.4385 -0.2369
 7499W        W22630   1.985   4.894   5.635  0.1703 -0.0006 -0.2330
 7500W        W22631  14.937   7.574  14.742  0.3137  0.1116  0.1353
 7501W        W22632   5.731  11.181  11.492  0.0737  0.0259 -0.0416
 7502W        W22633   7.819   4.797   0.176 -0.0166 -0.0874  0.0044
 7503W        W22634  16.091  17.168   4.918  0.0667  0.0436  0.0084
 7504W        W22635   6.518  13.829  15.170 -0.2992  0.0083 -0.1984
 7505W        W22636  11.664   0.511  11.996  0.0829  0.0274 -0.4634
 7506W        W22637   4.047  11.831   0.170  0.0301  0.3596  0.0060
 7507W        W22638   9.421  14.406  12.836 -0.3193  0.0032 -0.0863
 7508W        W22639   4.493  11.342  10.700  0.2459  0.0231  0.1738
 7509W        W22640  14.867  15.162   5.184  0.1083  0.1932 -0.0528
 7510W        W22641   0.435   5.735   1.175  0.1137  0.1108 -0.0244
 7511W        W22642  14.080   0.049  15.729 -0.0210 -0.0781 -0.2074
 7512W        W22643  17.930   6.056  12.165 -0.0399  0.1336 -0.0979
 7513W        W22644  15.557  12.679   1.922  0.4582  0.1764  0.0464
 7514W        W22645  16.136   0.180  11.066 -0.2760  0.2243 -0.0507
 7515W        W22646   9.775   3.474  14.598  0.1603 -0.0013  0.1227
 7516W        W22647   4.587  11.697  15.235  0.2484  0.1883 -0.1893
 7517W        W22648   2.906   0.724   3.656  0.1241 -0.3326 -0.1916
 7518W        W22649  12.714  17.563  14.941 -0.1646  0.0022 -0.0419
 7519W        W22650  17.182  13.577  15.156  0.0309  0.2195 -0.1260
 7520W        W22651  16.050  10.080   3.161  0.1751 -0.1713 -0.0680
 7521W        W22652  12.940   2.736   1.248  0.1931 -0.2751  0.2447
 7522W        W22653   2.396  16.604  11.178 -0.0187  0.1126  0.0567
 7523W        W22654   9.279   0.951   1.088 -0.0395 -0.1326  0.2388
 7524W        W22655   9.754   2.474  11.798 -0.0841 -0.1296 -0.3394
 7525W        W22656   2.968   5.141   5.770 -0.1051 -0.0073  0.1737
 7526W        W22657   8.553   4.841   0.493  0.1416 -0.4902  0.0537
 7527W        W22658   6.677  14.173  12.187 -0.0042 -0.1265 -0.0926
 7528W        W22659  13.039  10.078   2.185  0.1839 -0.0543 -0.1729
 7529W        W22660  17.786   6.571  15.709  0.0918  0.3478 -0.0342
 7530W        W22661  13.642  10.650   4.225 -0.0109 -0.1493  0.1364
 7531W        W22662   8.306  13.123  12.424 -0.0903 -0.1128  0.3386
 7532W        W22663  14.919   3.919  13.570  0.3716  0.0880 -0.0550
 7533W        W22664  11.661  13.288  15.030  0.6646 -0.1872  0.0561
 7534W        W22665   8.620  15.039  10.908  0.0953  0.1311  0.1136
 7535W        W22666   3.013  11.628  11.745  0.2467  0.0657 -0.3510
 7536W        W22667   9.300   0.970   2.920 -0.2018  0.1303 -0.1917
 7537W        W22668   2.827   9.784  11.870  0.2415 -0.3180  0.1534
 7538W        W22669  10.227  11.531   9.552  0.1081  0.0624 -0.2165
 7539W        W22670   5.586   9.775  15.234  0.2042  0.1982 -0.0232
 7540W        W22671   6.205   6.318   4.550  0.2524 -0.0466  0.3357
 7541W        W22672   9.274   3.671   3.484 -0.4702 -0.0663 -0.2887
 7542W        W22673  10.831   7.879  12.652 -0.0828  0.3775  0.0637
 7543W        W22674  10.181  13.908   1.456 -0.0216  0.0415  0.0575
 7544W        W22675   9.430  14.401   1.598  0.3878 -0.0642  0.1248
 7545W        W22676   6.194   2.423  15.692 -0.0274 -0.0765  0.0131
 7546W        W22677  17.027  13.140  14.827  0.4209 -0.2128  0.1710
 7547W        W22678  15.613  10.133   3.551 -0.1325  0.1405  0.1616
 7548W        W22679  18.424   9.072  13.524 -0.0269 -0.5424 -0.2786
 7549W        W22680  10.285   5.380  13.748 -0.0196 -0.1055  0.1032
 7550W        W22681   0.443   3.548  15.487  0.1712 -0.2807 -0.1333
 7551W        W22682  15.285   1.883  15.341  0.0944 -0.1063  0.0167
 7552W        W22683   5.047  12.936  15.832  0.2042 -0.2040 -0.0842
 7553W        W22684   9.290   8.129  11.708 -0.0627  0.0721 -0.2118
 7554W        W22685  13.489  11.844   3.429  0.1174 -0.4999  0.0577
 7555W        W22686   9.082  15.126   2.648 -0.0209  0.0641 -0.0345
 7556W        W22687  16.529  15.349   5.593  0.1559  0.5705  0.0759
 7557W        W22688  15.029  11.512  11.923 -0.1947 -0.1116  0.4102
 7558W        W22689  17.276   6.500  15.042 -0.1926 -0.4783 -0.4192
 7559W        W22690  14.521  10.815  14.177  0.5500 -0.0257 -0.1495
 7560W        W22691   0.625   1.269   5.259  0.3760  0.1089  0.1310
 7561W        W22692   2.146   1.404   3.674  0.1612 -0.0843  0.1973
 7562W        W22693  13.463   2.516  13.052  0.2104  0.1782 -0.2098
 7563W        W22694   3.125  14.537  14.297  0.1458  0.3096 -0.1401
 7564W        W22695   0.562   9.330  12.235 -0.1013  0.2207 -0.3586
 7565W        W22696  14.635  10.164  14.375  0.0280 -0.1299  0.0908
 7566W        W22697   1.517  11.780  12.129 -0.0880  0.0915 -0.0502
 7567W        W22698   0.909  12.832   0.628  0.3625  0.1548 -0.0394
 7568W        W22699   1.895  13.016  15.794 -0.1037 -0.1867 -0.2021
 7569W        W22700  13.042  10.528  15.202  0.4072 -0.1753  0.3984
 7570W        W22701  11.122   8.328   5.635 -0.0435 -0.0181  0.0898
 7571W        W22702   7.057   9.294   6.006 -0.1425 -0.1630 -0.2524
 7572W        W22703   5.830  17.037  10.968 -0.2367  0.4776  0.0938
 7573W        W22704   3.133  14.051   4.143 -0.1581 -0.0808  0.0587
 7574W        W22705  12.981   0.697  11.721 -0.3236 -0.0227  0.0885
 7575W        W22706  11.427  14.600   2.398 -0.0345 -0.1648  0.0339
 7576W        W22707   8.914   0.998  12.516  0.2377 -0.1084 -0.1087
 7577W        W22708   8.315   8.844   4.807  0.0276  0.3123 -0.0887
 7578W        W22709   4.736   1.290  13.422 -0.0487  0.0235  0.1009
 7579W        W22710  14.604  10.396  12.697 -0.2004  0.0163  0.1143
 7580W        W22711  15.601  14.879   3.460  0.1079 -0.2869  0.2529
 7581W        W22712   6.991   1.641   2.424 -0.3889 -0.1454 -0.0021
 7582W        W22713   0.239  13.552  12.572  0.0037  0.3429 -0.0612
 7583W        W22714  18.474  15.056  15.797  0.0798  0.3203 -0.2849
 7584W        W22715  15.117  14.782   3.394 -0.2443 -0.1151 -0.0540
 7585W        W22716   1.586  14.143  13.584  0.2521 -0.0644 -0.0242
 7586W        W22717   0.079   0.815  12.381  0.0084 -0.0990 -0.1129
 7587W        W22718   0.480   6.254  12.427  0.0294  0.0380  0.1262
 7588W        W22719   3.811  16.017   2.046 -0.0682 -0.1539  0.1874
 7589W        W22720  12.037   3.378  14.706  0.2113  0.1342  0.0411
 7590W        W22721   0.418   3.241  12.679 -0.0964 -0.1294 -0.0398
 7591W        W22722   3.995   0.873   2.054  0.2501  0.2607 -0.1358
 7592W        W22723   7.927  10.172  15.742 -0.1588 -0.3792 -0.0076
 7593W        W22724  13.488   8.774  14.997  0.2174  0.2112  0.0404
 7594W        W22725  17.090   1.548   0.528  0.2945  0.1799  0.2411
 7595W        W22726   8.414   7.698  14.897 -0.1875 -0.2319  0.2006
 7596W        W22727   7.991   1.245   2.410  0.1329  0.0811  0.1585
 7597W        W22728   0.707  18.255  13.833  0.0966 -0.0761 -0.4238
 7598W        W22729  17.125   6.951   4.292 -0.0739 -0.0128  0.0106
 7599W        W22730   4.292  10.700  14.087 -0.0054 -0.1232  0.1504
 7600W        W22731   3.972  15.105  14.101 -0.4984  0.1345 -0.1445
 7601W        W22732  12.900  10.524  13.709 -0.0983 -0.1675  0.2918
 7602W        W22733   2.901  12.408  15.587  0.1649  0.1279  0.0453
 7603W        W22734  13.716   8.990   0.700  0.1250 -0.0487  0.0193
 7604W        W22735   7.028  14.551  13.451 -0.1485  0.2761 -0.0613
 7605W        W22736   5.874  17.601  15.084 -0.0094 -0.0933 -0.2263
 7606W        W22737   1.228   9.220  14.746 -0.0222 -0.0808 -0.1458
 7607W        W22738   2.261  14.252   3.073 -0.0755  0.3499 -0.0340
 7608W        W22739   0.810  14.150   4.756 -0.0886  0.2628 -0.3524
 7609W        W22740  12.236  11.923   0.384  0.3342 -0.0117  0.1134
 7610W        W22741   4.857  17.504   3.770 -0.1170 -0.0596  0.0553
 7611W        W22742  10.096   2.183   1.513  0.0045 -0.0353 -0.0218
 7612W        W22743   6.086   4.777  13.450 -0.1065 -0.1508 -0.1411
 7613W        W22744  14.371   0.267  13.528  0.0899 -0.0456 -0.0307
 7614W        W22745   9.051   5.454   3.087  0.0485 -0.1587  0.0344
 7615W        W22746  11.134   0.391   4.905 -0.1540 -0.2090  0.3848
 7616W        W22747   4.812   7.692  13.618  0.1003  0.1078 -0.0607
 7617W        W22748  15.725  18.094  15.435 -0.1186  0.3047  0.0391
 7618W        W22749  11.551   1.427  11.328 -0.0948  0.1112 -0.0849
 7619W        W22750   4.237  17.004   4.743 -0.0434 -0.2586 -0.0856
 7620W        W22751   3.034   1.779   0.013 -0.2770  0.6747  0.0386
 7621W        W22752   8.502   7.723  13.649  0.1000  0.0651 -0.1302
 7622W        W22753  11.632  10.898   2.182 -0.3018  0.1545  0.0300
 7623W        W22754   9.850  16.220   0.777  0.1150  0.3858  0.1607
 7624W        W22755   2.303   9.210  11.492  0.1297 -0.0026  0.5653
 7625W        W22756  12.578   1.548  11.774 -0.0751  0.3858  0.4164
 7626W        W22757   0.927  11.353   5.116 -0.1601 -0.3001 -0.3374
 7627W        W22758   6.906  16.241   4.005  0.0451 -0.0297 -0.2359
 7628W        W22759  17.842   9.616   6.372 -0.2374 -0.0868 -0.1409
 7629W        W22760  12.987   0.654   0.488 -0.3528  0.1627 -0.0833
 7630W        W22761   5.846  15.411   4.341 -0.0968  0.2359 -0.2590
 7631W        W22762   6.959   6.769   4.786 -0.1068 -0.3356  0.2425
 7632W        W22763  17.342  14.702   3.082 -0.2633 -0.0196  0.2552
 7633W        W22764  16.838  15.615  13.995  0.1629 -0.1881  0.2856
 7634W        W22765  12.510   7.201  11.220 -0.1166 -0.2531 -0.2331
 7635W        W22766   2.881   1.598   4.464 -0.2453 -0.0033  0.1751
 7636W        W22767   3.930   7.674  12.616  0.1974  0.1998 -0.1032
 7637W        W22768  12.829   0.355  12.516  0.2368  0.3573 -0.2535
 7638W        W22769   5.229  18.233  10.841  0.1225 -0.0439 -0.3995
 7639W        W22770  17.930   1.416  13.263  0.0641 -0.1602 -0.2814
 7640W        W22771  12.603   3.614  15.353 -0.1365  0.1764  0.2587
 7641W        W22772   1.820  11.297  14.167 -0.2619 -0.0283 -0.0491
 7642W        W22773   4.250   1.232   3.918 -0.0273 -0.3568 -0.2253
 7643W        W22774  10.813   1.928   5.249 -0.1445  0.0356  0.0733
 7644W        W22775   6.054   8.861   2.181  0.2348 -0.2399 -0.0814
 7645W        W22776   4.216   7.797  14.307 -0.0603 -0.0533  0.0492
 7646W        W22777  12.923   5.231  11.579 -0.2857 -0.4772  0.1102
 7647W        W22778   1.284   1.989  13.812 -0.0101  0.0403  0.3175
 7648W        W22779  16.207  15.600   5.846  0.0140 -0.2097  0.0197
 7649W        W22780   5.248   6.409  10.421 -0.0145 -0.1493 -0.0221
 7650W        W22781  17.061  18.526  11.804  0.2322  0.3328 -0.0846
 7651W        W22782  14.649  15.070   2.427 -0.1355  0.1374 -0.0405
 7652W        W22783  14.445  12.102  11.244 -0.1287  0.0117  0.0360
 7653W        W22784  13.073   6.282  13.007  0.2654  0.3387 -0.5749
 7654W        W22785   3.014  13.055  14.380  0.2332 -0.1846  0.1064
 7655W        W22786  11.835   3.979  11.200 -0.0790 -0.0150 -0.0357
 7656W        W22787   3.891   7.082  15.034 -0.4037  0.0674  0.1110
 7657W        W22788   5.018  10.528  11.172 -0.3955 -0.1280 -0.2937
 7658W        W22789   1.086   1.429  14.740  0.3876 -0.1975  0.1763
 7659W        W22790   3.209  17.032  11.348  0.1692 -0.1428  0.2058
 7660W        W22791  15.589  16.571  13.590 -0.3843  0.3029  0.2030
 7661W        W22792   8.765   1.973   2.528 -0.3194 -0.3096  0.1650
 7662W        W22793   0.009   0.238  12.962 -0.1610 -0.0381  0.0641
 7663W        W22794   8.395  11.305   0.950 -0.1460  0.0396  0.0619
 7664W        W22795   2.113   4.004   5.819 -0.2571 -0.1023 -0.0388
 7665W        W22796  14.907   6.956   5.077 -0.0343 -0.0656 -0.0632
 7666W        W22797  13.059   8.004   0.730 -0.1118 -0.2082  0.2126
 7667W        W22798   7.819  13.830  10.375 -0.1424 -0.0783 -0.0502
 7668W        W22799  17.888   3.495   1.547  0.1823  0.2546  0.1503
 7669W        W22800  10.700  15.492   3.121 -0.0801  0.1999  0.1206
 7670W        W22801  14.979  12.520  11.852  0.0933 -0.1002 -0.3583
 7671W        W22802   9.916   1.319  11.069 -0.0283  0.2282  0.1968
 7672W        W22803   5.891  16.710  14.805 -0.0876  0.0457 -0.1368
 7673W        W22804   3.987   8.898   1.231  0.2385  0.0691  0.3933
 7674W        W22805  12.883   9.111   0.690  0.0252  0.1165 -0.1446
 7675W        W22806   3.280  16.040  15.481 -0.4500  0.0064 -0.3531
 7676W        W22807   1.686  14.415  10.173 -0.0675 -0.2440  0.0571
 7677W        W22808  14.101  14.062   0.742 -0.1496 -0.1861  0.3428
 7678W        W22809   0.262  17.193   3.905  0.1580  0.2016 -0.1828
 7679W        W22810  13.692  15.312   5.206 -0.0466  0.0593  0.0958
 7680W        W22811  15.115   6.621  14.442 -0.0677 -0.0254  0.1204
 7681W        W22812   7.151   7.459  15.598 -0.1284 -0.0748  0.1465
 7682W        W22813  13.078  14.793   3.304 -0.0094  0.0542 -0.3088
 7683W        W22814   4.156  15.536   4.141 -0.1809  0.1490  0.1413
 7684W        W22815   1.282   5.661  14.997 -0.2494  0.0918 -0.0640
 7685W        W22816   2.491   0.963  11.259 -0.1353 -0.2345  0.0510
 7686W        W22817   0.135   1.006  11.812  0.2274 -0.2064  0.2217
 7687W        W22818   3.710  12.189  14.135  0.3772  0.1343  0.1470
 7688W        W22819   9.978   3.906   5.376 -0.2225  0.1609  0.0928
 7689W        W22820   7.771   1.907  12.552  0.1980 -0.0698 -0.1306
 7690W        W22821   5.783  15.900  13.787  0.2408 -0.3612  0.3731
 7691W        W22822  10.465   3.922   5.517  0.1740  0.1501 -0.2489
 7692W        W22823  15.077   0.972   2.796 -0.0989 -0.0248 -0.1999
 7693W        W22824  14.783  11.356   1.067  0.2141  0.2272 -0.0069
 7694W        W22825   3.870  12.868   3.482 -0.3025  0.2328 -0.0252
 7695W        W22826   9.884   8.671  12.193  0.0476 -0.0361 -0.3999
 7696W        W22827   5.939   5.286  15.353 -0.4656 -0.0174  0.1655
 7697W        W22828   1.878   4.519   0.689 -0.1142 -0.1438 -0.2206
 7698W        W22829  11.523  15.178  13.188  0.0138 -0.2963  0.0052
 7699W        W22830   0.276  15.573   2.987 -0.1219 -0.1448 -0.0906
 7700W        W22831   4.134   9.581  11.265 -0.2324  0.2317 -0.1552
 7701W        W22832   0.514  10.045   2.632 -0.2087 -0.0813 -0.0158
 7702W        W22833   7.235   3.602   0.084 -0.1113  0.0808 -0.1948
 7703W        W22834   4.075   2.784  11.098  0.2334 -0.0960  0.1063
 7704W        W22835   4.733  14.933   3.646 -0.1105 -0.0475 -0.3584
 7705W        W22836   0.658   9.509  11.745  0.0098  0.0541 -0.1350
 7706W        W22837  10.022  12.731  13.164  0.1639 -0.4676 -0.0995
 7707W        W22838  14.563   8.619  12.940  0.2220  0.1484  0.0944
 7708W        W22839   9.257  10.922   4.726  0.1812 -0.0128 -0.0812
 7709W        W22840  10.078  12.142   3.348  0.3036 -0.0776  0.0072
 7710W        W22841   3.019   4.387   4.111  0.1931 -0.2995 -0.2727
 7711W        W22842  12.149   3.439   2.749  0.0782 -0.1073 -0.0128
 7712W        W22843   8.191   3.125  13.561  0.0163 -0.0760  0.0404
 7713W        W22844  11.360   8.219   4.659 -0.1201 -0.0839 -0.0211
 7714W        W22845   6.599   1.419   2.225 -0.0442 -0.0635  0.0788
 7715W        W22846   5.998   8.669   1.379 -0.1210 -0.0453  0.2884
 7716W        W22847  17.782  16.225   3.913  0.1098  0.0834 -0.2176
 7717W        W22848   1.378   6.379  13.154 -0.0144 -0.3012 -0.0183
 7718W        W22849  17.778   1.078   2.445  0.3448 -0.0520 -0.0692
 7719W        W22850  17.326  16.192   4.162  0.2645 -0.0428  0.1842
 7720W        W22851   2.983  10.171   4.265  0.1262 -0.3110  0.3501
 7721W        W22852  16.882  11.110  12.771 -0.4725 -0.0267 -0.0030
 7722W        W22853  15.126   0.636  12.162  0.3365  0.0274  0.0666
 7723W        W22854   3.997  15.379  15.569  0.2410 -0.3846 -0.0536
 7724W        W22855  12.217  15.381   3.133  0.1062 -0.3001  0.1251
 7725W        W22856  15.058  17.260  14.038 -0.1689  0.1620 -0.0777
 7726W        W22857  11.311   6.087   2.190  0.1129  0.2274 -0.2225
 7727W        W22858   7.731  14.257   4.914  0.0328  0.3118  0.0270
 7728W        W22859   7.751   0.140   0.423  0.1728  0.2235 -0.0928
 7729W        W22860   7.965  16.864  12.634 -0.2521  0.0046  0.0324
 7730W        W22861   5.337  13.235  11.479 -0.1433  0.0382 -0.0343
 7731W        W22862  18.040   6.364  14.046 -0.2792 -0.1877 -0.0729
 7732W        W22863   0.385  11.947   3.259 -0.1308 -0.1478 -0.1229
 7733W        W22864  15.113   1.921   5.361 -0.0842 -0.1038 -0.2080
 7734W        W22865  12.474   9.450  12.105  0.1933 -0.0885  0.0879
 7735W        W22866   6.668   5.280   0.098 -0.3115 -0.1497  0.4275
 7736W        W22867  12.416  16.409  13.710 -0.1272  0.0467 -0.0913
 7737W        W22868   6.656  16.923  11.119 -0.1802 -0.1363  0.2019
 7738W        W22869  11.710  13.583   2.830 -0.0531  0.0240  0.0376
 7739W        W22870   0.696   1.536   3.020 -0.1622 -0.0045  0.0996
 7740W        W22871   7.418   4.831  11.952 -0.1820  0.0225  0.3632
 7741W        W22872   6.774   8.217  10.345  0.2521  0.0646 -0.0100
 7742W        W22873  12.178   2.847   2.402 -0.0336 -0.2418  0.1872
 7743W        W22874   7.649   1.884   0.771 -0.3029  0.0682 -0.0795
 7744W        W22875   1.662   9.887  12.823 -0.2478 -0.0110 -0.1412
 7745W        W22876  14.563   4.734   0.006 -0.2535  0.0162  0.0658
 7746W        W22877   7.272   1.196   2.385  0.1386 -0.1663  0.0867
 7747W        W22878  13.089   7.359   3.986 -0.1006  0.1365 -0.0450
 7748W        W22879  11.070  16.020   2.366 -0.2063  0.1882  0.1721
 7749W        W22880   2.175   6.944   5.090  0.2807 -0.0718 -0.2116
 7750W        W22881   1.172   9.497  11.368  0.1738  0.0304  0.2222
 7751W        W22882   2.356  17.847   1.368  0.1114 -0.0798 -0.0080
 7752W        W22883  16.398  14.358  14.602 -0.2620  0.0977 -0.0998
 7753W        W22884  16.362  17.031   5.660  0.1319 -0.1872 -0.1094
 7754W        W22885  18.236  12.559   3.084 -0.1655 -0.1118 -0.2191
 7755W        W22886   6.423  16.919   2.516  0.4066 -0.1153  0.3103
 7756W        W22887   1.934   8.458  13.928  0.3765 -0.3151  0.2576
 7757W        W22888  12.416   7.457  14.141  0.1301 -0.1738 -0.3420
 7758W        W22889  12.395  16.019  11.320 -0.1312 -0.2045  0.1376
 7759W        W22890   1.495   5.529   0.041  0.0965  0.2572  0.0324
 7760W        W22891   7.693   0.473  14.545  0.0325 -0.4399  0.0381
 7761W        W22892   0.875   5.232   5.234 -0.1271  0.0477  0.0975
 7762W        W22893  16.696   3.706   4.801 -0.0300  0.0623 -0.0298
 7763W        W22894  13.173   4.976  11.210 -0.3392 -0.0287  0.2647
 7764W        W22895   2.272  11.668  12.915  0.2344  0.0924 -0.2941
 7765W        W22896   5.450   5.461   0.194  0.0911 -0.0511 -0.1572
 7766W        W22897   0.255  13.108   2.129 -0.0501 -0.2632  0.2169
 7767W        W22898   6.534   9.307  14.248 -0.0672 -0.0705  0.1345
 7768W        W22899   5.971   5.731  13.467  0.0703  0.2199  0.0295
 7769W        W22900  17.403   4.363   3.958 -0.0525 -0.2780 -0.1114
 7770W        W22901  14.355  16.264  10.598 -0.1396  0.1352  0.0200
 7771W        W22902  15.508   9.672   2.018  0.1393  0.0348 -0.2152
 7772W        W22903  13.325   1.094  12.528  0.3139  0.1719 -0.0378
 7773W        W22904  15.273  12.899   4.412  0.1091 -0.0354  0.4124
 7774W        W22905   6.492  13.626  12.381  0.3856  0.1828 -0.0480
 7775W        W22906  17.720  17.342   1.785 -0.0697  0.1636  0.1501
 7776W        W22907   1.251  12.452  14.044  0.1753 -0.0091  0.0331
 7777W        W22908  11.252   7.689   5.230 -0.1820 -0.1709 -0.4139
 7778W        W22909  11.737   2.779  12.358  0.1653  0.2480 -0.1510
 7779W        W22910   7.072  14.524   3.632 -0.1532 -0.0156 -0.0382
 7780W        W22911  10.282   2.126   2.680 -0.1812  0.1507 -0.0700
 7781W        W22912   6.673   5.231  11.389 -0.4907 -0.1214 -0.0744
 7782W        W22913   0.128   7.643  12.338 -0.0008  0.0924 -0.3048
 7783W        W22914  18.278  10.555  11.681 -0.2308  0.1701  0.2834
 7784W        W22915  14.853   4.757   2.603 -0.0646  0.2186  0.0906
 7785W        W22916   5.373   0.279  13.786  0.3282  0.1310  0.1423
 7786W        W22917  10.288   4.548   4.820  0.0190  0.0160 -0.2554
 7787W        W22918   1.902   3.716   3.264 -0.2952 -0.0641 -0.3305
 7788W        W22919  16.835   3.929   1.410 -0.2237  0.0539 -0.1596
 7789W        W22920  17.731  16.813   4.846 -0.2302 -0.1275 -0.2995
 7790W        W22921  11.242   2.374  13.761  0.0234  0.1856 -0.1686
 7791W        W22922  17.338   9.773  11.388 -0.3006 -0.3288  0.0187
 7792W        W22923  15.299   2.559  13.470 -0.0774 -0.1201  0.1922
 7793W        W22924  15.628   5.379   2.229 -0.0440 -0.0385  0.0837
 7794W        W22925  10.242   9.900  14.028 -0.3866  0.1205 -0.0644
 7795W        W22926   6.617   9.141  14.758  0.0785  0.2292  0.1291
 7796W        W22927  17.627  17.516  11.152 -0.1066  0.0488 -0.0671
 7797W        W22928  16.472  17.102  15.794 -0.0878 -0.0428  0.1436
 7798W        W22929   3.629  17.229  13.399  0.4063 -0.1062 -0.0664
 7799W        W22930  14.568   6.490   1.014  0.0246 -0.0776 -0.0526
 7800W        W22931   1.612  10.074  15.249  0.0945 -0.1595  0.1689
 7801W        W22932   5.170   1.397   4.859 -0.2726 -0.3025  0.0351
 7802W        W22933   6.206   6.735  14.290 -0.1478  0.1520 -0.4038
 7803W        W22934  14.041  10.247  14.565 -0.1057 -0.1284 -0.1940
 7804W        W22935  10.728  17.436   1.294  0.0343 -0.1277 -0.1676
 7805W        W22936  13.090   4.110  10.829  0.1478 -0.0854 -0.0578
 7806W        W22937  15.191   8.157   4.333  0.0108 -0.0368 -0.1383
 7807W        W22938  10.075   0.511   4.114 -0.0096 -0.1088 -0.2854
 7808W        W22939   3.561  15.728  10.444  0.0283 -0.2253 -0.0783
 7809W        W22940   5.489   3.365  15.459  0.0630  0.2415  0.4541
 7810W        W22941   8.686  11.293  12.633 -0.2499  0.1499 -0.0551
 7811W        W22942   6.498   8.688   5.488  0.0954 -0.2757  0.3103
 7812W        W22943   3.104  13.934  13.576  0.0543  0.3553 -0.0852
 7813W        W22944  17.221  15.891   5.757  0.0929 -0.2021 -0.0214
 7814W        W22945   4.525   8.071  13.900 -0.3537 -0.0154 -0.2608
 7815W        W22946   7.251   2.579  15.525 -0.3722  0.1201 -0.0477
 7816W        W22947   1.631  10.421  11.009 -0.0916  0.1684  0.2688
 7817W        W22948  16.437  10.416  14.044 -0.1082 -0.0425 -0.3397
 7818W        W22949   7.183   6.909   3.292 -0.1075  0.2298 -0.2274
 7819W        W22950  14.847  18.361  14.903  0.0641  0.3503 -0.3933
 7820W        W22951  10.260   3.625  10.248 -0.3916  0.0364  0.2228
 7821W        W22952  11.640   5.287  11.248  0.1125 -0.1220 -0.2712
 7822W        W22953   7.661   3.022  13.525 -0.0546  0.0337 -0.0574
 7823W        W22954  17.148   3.267   4.797  0.1466 -0.0534  0.0367
 7824W        W22955  17.306   2.830  14.023  0.3584  0.0419 -0.0744
 7825W        W22956  11.946   0.624  15.888 -0.0842 -0.1069 -0.2664
 7826W        W22957   6.446   7.979   6.048 -0.2159  0.3004 -0.0903
 7827W        W22958   3.187   9.346  15.514  0.0726  0.2359  0.2164
 7828W        W22959   4.484   4.835  14.330  0.1010 -0.1961 -0.2275
 7829W        W22960  14.584   1.368  10.698 -0.0954 -0.1334  0.1512
 7830W        W22961  15.608   9.191   2.300 -0.0399  0.1814  0.1117
 7831W        W22962  18.362   1.811  12.484  0.3541  0.2080 -0.2193
 7832W        W22963   8.584  17.253  10.341 -0.1250  0.0745  0.1175
 7833W        W22964   3.213   6.550   0.746 -0.1201 -0.1253  0.0515
 7834W        W22965  10.835   2.920   1.224 -0.2124 -0.0006 -0.1570
 7835W        W22966  11.722  13.240   4.299 -0.0631  0.0501  0.1960
 7836W        W22967   0.235   3.526   1.860 -0.2015  0.1819  0.1483
 7837W        W22968   8.593   6.156  15.661 -0.1320 -0.2800  0.2512
 7838W        W22969   4.189  15.997   2.398  0.0389  0.0459 -0.5130
 7839W        W22970   2.163  15.745   2.563  0.2916  0.1772 -0.0691
 7840W        W22971   0.022   5.750   4.627  0.1053  0.0497 -0.0248
 7841W        W22972  13.808  17.664  12.978  0.3489 -0.1966  0.0120
 7842W        W22973  13.008  17.661   4.564 -0.2036  0.0414 -0.1929
 7843W        W22974   6.386   2.719  12.114  0.0369 -0.0049 -0.0492
 7844W        W22975   9.972   7.264   1.171  0.2567  0.1706 -0.3733
 7845W        W22976  16.030  18.142   4.120  0.0412  0.1270  0.2600
 7846W        W22977   2.052   7.975  11.836 -0.2004 -0.0966 -0.1265
 7847W        W22978  16.481   3.923   2.311 -0.2870  0.0181  0.0140
 7848W        W22979  11.016   2.043   2.406  0.1769 -0.3306 -0.1757
 7849W        W22980   9.725  12.236  14.434 -0.1112  0.1330 -0.1658
 7850W        W22981  13.612   1.882   5.758 -0.1837  0.1843 -0.0243
 7851W        W22982  14.150   5.179   0.820  0.3606  0.0607  0.0342
 7852W        W22983  15.995   8.799  10.356 -0.2069 -0.1006 -0.1201
 7853W        W22984   4.070  10.454  15.525 -0.3243 -0.1394 -0.2715
 7854W        W22985  15.274  10.568   2.318 -0.0849  0.2294  0.0069
 7855W        W22986  13.637   6.772  14.747  0.1916  0.2946 -0.1386
 7856W        W22987  13.373   8.959   1.655 -0.2531  0.3017 -0.0022
 7857W        W22988   2.474   3.828   4.990  0.0364  0.0518  0.0931
 7858W        W22989   9.946   6.685  11.560 -0.1096  0.1685 -0.3659
 7859W        W22990   3.130   9.018  11.313  0.0332 -0.2309 -0.1734
 7860W        W22991   1.114   9.803  13.830  0.1063 -0.4614 -0.1334
 7861W        W22992  13.687   3.672   1.854 -0.2495  0.0723 -0.1066
 7862W        W22993   3.218   0.940   1.351 -0.0839 -0.1983 -0.1842
 7863W        W22994   6.277  13.206  10.124  0.0710  0.2115 -0.0580
 7864W        W22995   0.817  17.254  12.890  0.3180  0.0041 -0.0328
 7865W        W22996   9.430  18.282  15.115  0.1057  0.0127 -0.0837
 7866W        W22997  12.914  13.593  15.039  0.1623  0.0554  0.2340
 7867W        W22998  12.119  10.582   0.872  0.0324  0.0118  0.1520
 7868W        W22999  12.268  14.588  11.417  0.1262 -0.1864 -0.1683
 7869W        W23000   0.511   6.083   3.629 -0.0580  0.1190 -0.3377
 7870W        W23001   0.136  15.268  14.077  0.2984  0.1504  0.0784
 7871W        W23002   6.287   8.310  11.299 -0.0697  0.2124  0.0996
 7872W        W23003  13.614  16.217  11.756 -0.0574 -0.0286  0.0515
 7873W        W23004   0.764   9.317  14.598 -0.1720 -0.2256  0.2600
 7874W        W23005   1.810   6.088   3.048 -0.0816  0.0683 -0.1733
 7875W        W23006   3.503   1.032  11.635  0.2330 -0.2762 -0.1087
 7876W        W23007  12.104   4.718  11.411 -0.2195  0.1187 -0.0609
 7877W        W23008  10.911   4.773   4.009 -0.0545  0.2206  0.1856
 7878W        W23009   8.913   5.620  11.802 -0.0984  0.3692 -0.2465
 7879W        W23010  12.646   0.019   4.003 -0.0800 -0.6712 -0.1692
 7880W        W23011   0.969   4.028  12.012  0.1604 -0.3670 -0.1832
 7881W        W23012   4.057  14.539   0.746  0.0502  0.2245 -0.3848
 7882W        W23013   8.719  16.582   1.361  0.0174  0.4714 -0.4000
 7883W        W23014   9.923   4.610  11.115 -0.1644 -0.2133  0.2860
 7884W        W23015  13.872   4.335  12.056  0.1458 -0.1270  0.0046
 7885W        W23016  17.909   9.009  12.127  0.0181  0.0551 -0.2680
 7886W        W23017  10.483   8.154  14.645  0.0576 -0.5461 -0.1336
 7887W        W23018   9.946   0.563   2.704 -0.3526 -0.0068  0.2876
 7888W        W23019  12.797  17.234   2.470 -0.2155 -0.4359 -0.1351
 7889W        W23020   4.123   4.223  12.577  0.1099  0.1386  0.0962
 7890W        W23021   0.415   7.835  14.671  0.1284  0.0975 -0.2831
 7891W        W23022  11.858   5.033   1.052 -0.1156 -0.1199  0.2109
 7892W        W23023   5.970   0.574  10.290  0.0236 -0.0029  0.2086
 7893W        W23024   1.440  15.923  14.746  0.0992 -0.1406 -0.0664
 7894W        W23025  16.774  12.411   2.741 -0.0070  0.0787 -0.1848
 7895W        W23026  14.472   1.647   4.816 -0.0220 -0.2794 -0.1623
 7896W        W23027   6.481  11.451   2.756  0.0059  0.0296  0.0268
 7897W        W23028  13.435  18.016   3.249 -0.3711  0.0812  0.1188
 7898W        W23029  13.633   7.867  13.467 -0.0716 -0.1389 -0.0038
 7899W        W23030   9.073   8.869   3.948 -0.0664  0.1531 -0.1668
 7900W        W23031   2.527   3.275   1.619 -0.0109 -0.1997  0.4568
 7901W        W23032   2.771   6.546  10.695 -0.0503  0.0062 -0.2289
 7902W        W23033   2.480   8.681  15.328  0.2496 -0.0074  0.2291
 7903W        W23034   6.296   2.217  12.459  0.0890  0.2300  0.5990
 7904W        W23035   2.648  16.755   2.506 -0.1515 -0.4001  0.2621
 7905W        W23036   9.120  10.812   0.538  0.0603  0.0492  0.0026
 7906W        W23037   9.831   7.603   4.444  0.1669  0.3455 -0.2237
 7907W        W23038  10.559   9.641  14.356 -0.1467 -0.0066 -0.1451
 7908W        W23039  18.267  18.225   0.531  0.0742 -0.1262  0.1361
 7909W        W23040   1.895  14.527   3.000  0.1523  0.1465 -0.0136
 7910W        W23041  11.362  13.985  10.337  0.1332 -0.2589  0.0711
 7911W        W23042   3.780  13.242  13.837 -0.2794  0.0675 -0.0564
 7912W        W23043   5.412  16.655  13.907  0.0343  0.0367  0.0005
 7913W        W23044  12.651  11.142  15.835 -0.0757 -0.0477  0.3098
 7914W        W23045   7.616   5.817  15.852 -0.3859  0.0249 -0.1278
 7915W        W23046  14.768   6.175   0.334 -0.0532 -0.1467 -0.1500
 7916W        W23047  12.894  13.225  15.388 -0.0808 -0.1815 -0.0922
 7917W        W23048  13.224  16.171  12.118 -0.3352  0.1713 -0.0167
 7918W        W23049  15.251   2.151   1.806 -0.2746  0.2941  0.0264
 7919W        W23050  16.172  13.841   5.035  0.3009 -0.2661  0.1256
 7920W        W23051  10.904   1.396  11.037  0.0566  0.0627  0.2700
 7921W        W23052  14.136  10.603   4.109  0.1196  0.0608  0.5109
 7922W        W23053   2.787   0.237  11.974 -0.2115  0.0008 -0.1235
 7923W        W23054  16.925   4.510  13.592  0.0063 -0.2455 -0.1887
 7924W        W23055   9.366  12.553   3.633 -0.0132  0.0585 -0.0735
 7925W        W23056   3.114  11.145   0.910  0.2294  0.2006 -0.0175
 7926W        W23057  14.682  15.169  12.880  0.4098 -0.1972  0.3262
 7927W        W23058   8.494   7.383  14.072  0.0065  0.2192 -0.1352
 7928W        W23059   1.990  15.509   3.614  0.1051 -0.0938  0.1764
 7929W        W23060  11.050   7.422   4.406  0.2476 -0.1467  0.2267
 7930W        W23061   0.426  15.155   3.346  0.1283  0.1894  0.4768
 7931W        W23062   6.118   5.234  13.695 -0.0378 -0.1349 -0.4126
 7932W        W23063  14.410  10.090   2.650 -0.1783 -0.2184  0.3628
 7933W        W23064   9.224  15.057  12.362  0.0778  0.0617  0.3965
 7934W        W23065  15.303  17.789  15.362  0.2003  0.0668  0.0794
 7935W        W23066   5.617  12.955   4.489  0.0683 -0.3613  0.1351
 7936W        W23067   6.881   1.603  13.811 -0.2147  0.0176  0.0225
 7937W        W23068   9.552  16.065  11.388 -0.1358 -0.0958 -0.4378
 7938W        W23069   5.379   6.717  15.882  0.0791  0.1188  0.2760
 7939W        W23070  10.126   1.937  12.305 -0.4745  0.1132  0.2930
 7940W        W23071   6.309  12.660   2.205 -0.0112  0.4053 -0.1400
 7941W        W23072  14.187  14.747  13.348 -0.0618  0.1726 -0.0125
 7942W        W23073  13.597   2.122  14.553 -0.3784  0.1634 -0.2515
 7943W        W23074   1.507   9.578   4.565 -0.0655 -0.2387  0.0719
 7944W        W23075  12.528   3.190   4.006 -0.0187 -0.1686 -0.0070
 7945W        W23076   7.696  14.933   1.816  0.1185 -0.4116 -0.1190
 7946W        W23077   6.417   5.696  14.488  0.0854  0.0949  0.0259
 7947W        W23078   7.247  11.698  13.637  0.0621  0.2677  0.1796
 7948W        W23079   2.526  17.652  12.539  0.5038  0.1453  0.3808
 7949W        W23080   5.263  11.215   1.315  0.1955 -0.2455  0.2322
 7950W        W23081   0.224  16.221   4.777 -0.0127  0.2448 -0.0144
 7951W        W23082  11.209   1.975   3.002 -0.1496 -0.1628 -0.0960
 7952W        W23083  10.582  18.401  15.531  0.1010  0.0688  0.1113
 7953W        W23084   5.858  12.351  11.508  0.1833  0.0858  0.0664
 7954W        W23085   4.513   7.142   1.475  0.1324 -0.0471  0.0850
 7955W        W23086  16.411   4.251   1.441  0.0388 -0.5681  0.0529
 7956W        W23087  16.314   3.670   4.443  0.0357 -0.0171  0.2366
 7957W        W23088  11.176   1.320   1.877 -0.3833  0.2333  0.0366
 7958W        W23089   4.121   3.068   4.084 -0.1055 -0.0682  0.1631
 7959W        W23090   5.913  18.095  14.485  0.0771 -0.1123 -0.1529
 7960W        W23091  10.054   9.496  14.157 -0.3449 -0.3495  0.0055
 7961W        W23092   4.726   8.432  12.977 -0.0995  0.1909 -0.0156
 7962W        W23093   6.672   3.884  14.245 -0.0363 -0.0141 -0.0857
 7963W        W23094  14.329  11.650   1.368  0.2348  0.1022  0.1143
 7964W        W23095  18.112   1.576  13.803  0.0125 -0.2404 -0.1559
 7965W        W23096   9.935  11.049   0.193 -0.3165 -0.0272  0.2485
 7966W        W23097   7.973   8.463  11.000  0.1833 -0.0527  0.1600
 7967W        W23098   1.516   9.570  14.464  0.1072  0.2344 -0.2113
 7968W        W23099  14.620   4.433   0.846  0.0289 -0.0482  0.1992
 7969W        W23100   7.145   0.037   1.190 -0.1428  0.1829  0.1443
 7970W        W23101  16.416   3.361  15.892  0.0219  0.3607  0.0145
 7971W        W23102   8.490  13.053   4.704 -0.0451 -0.1549 -0.0581
 7972W        W23103  10.456   1.246  11.212 -0.0727  0.0263 -0.1655
 7973W        W23104   6.002   7.135  14.072 -0.0374 -0.1494  0.2188
 7974W        W23105   8.943  14.224  12.856  0.1337  0.2595  0.0155
 7975W        W23106   5.787   9.674  14.720 -0.0647  0.1763 -0.1386
 7976W        W23107   6.236  11.470  11.564 -0.0411  0.3817  0.2282
 7977W        W23108   9.873  12.546  10.841 -0.4155  0.2372 -0.2932
 7978W        W23109   0.867  18.169   5.903  0.1168 -0.2442  0.0983
 7979W        W23110  15.004   0.547   5.423  0.1977  0.0601 -0.2490
 7980W        W23111  17.157   6.706   2.292 -0.2023  0.0031 -0.1853
 7981W        W23112   6.816   8.767   3.648  0.1150  0.0036  0.2136
 7982W        W23113   4.213  15.647   3.502 -0.2805  0.0237 -0.0161
 7983W        W23114  14.867  13.900  15.321  0.0203 -0.2175 -0.1959
 7984W        W23115   9.934  10.716   1.346  0.1321  0.0688  0.1580
 7985W        W23116   7.194   6.846   2.428  0.3105 -0.0658  0.0413
 7986W        W23117   5.607   9.493  15.656  0.2488 -0.4731 -0.1601
 7987W        W23118   0.875   3.977   0.097  0.1185  0.0559  0.0779
 7988W        W23119  13.246   1.762   4.266 -0.0202  0.1349  0.1448
 7989W        W23120  17.404  14.405  11.374 -0.1077  0.2655 -0.2095
 7990W        W23121   5.991  18.212   4.312  0.0496  0.0504  0.1772
 7991W        W23122  13.147   5.435  15.296  0.1233 -0.1749  0.0289
 7992W        W23123   7.524   2.689   3.967 -0.2039  0.1739  0.0483
 7993W        W23124  15.737   4.973   4.793  0.1110 -0.2605 -0.3144
 7994W        W23125  18.099  16.827  15.051  0.0240 -0.1601 -0.0640
 7995W        W23126  16.444   2.489  14.102  0.5148 -0.1648  0.1606
 7996W        W23127   4.592  17.470   1.575  0.2232  0.2037  0.0535
 7997W        W23128  18.469  11.860   0.030  0.0779  0.1232 -0.3620
 7998W        W23129   2.644  15.800  13.451 -0.0761 -0.1815 -0.0167
 7999W        W23130  10.991   4.873   0.142  0.1685  0.0270 -0.0578
 8000W        W23131   3.779   5.458   2.330 -0.1635  0.1021  0.1997
 8001W        W23132   2.137   0.287   2.312 -0.0553 -0.0886 -0.3278
 8002W        W23133   1.350  16.805   0.959 -0.5415 -0.1449  0.1518
 8003W        W23134   5.400   5.444  14.370 -0.0867  0.3814  0.1209
 8004W        W23135   7.876  14.989   3.230  0.1335  0.1300  0.4499
 8005W        W23136  10.820  18.284  14.094  0.0603  0.0310  0.0183
 8006W        W23137   6.710   4.966   4.981 -0.0669  0.2674 -0.4341
 8007W        W23138   0.879  12.173  15.274 -0.1222  0.1797 -0.2243
 8008W        W23139   3.371   8.926   3.717 -0.0221 -0.2011 -0.0298
 8009W        W23140   4.127   5.997   3.052 -0.0126  0.2637 -0.2888
 8010W        W23141   4.069  10.124   4.163 -0.1769  0.1215  0.2252
 8011W        W23142   2.329  18.387   2.559 -0.2883 -0.0063 -0.1078
 8012W        W23143  18.348   2.528  14.604  0.1474 -0.1762 -0.0881
 8013W        W23144   1.777   8.699  12.587 -0.0693 -0.3532  0.0229
 8014W        W23145  15.399  16.861   3.102  0.0830 -0.3595  0.2518
 8015W        W23146  17.597   4.208  15.705 -0.2403  0.0039  0.0211
 8016W        W23147  15.073   8.400  13.251  0.0610  0.0502 -0.3462
 8017W        W23148  14.678   5.295   0.933  0.0839  0.2294  0.1250
 8018W        W23149  17.144   9.340   0.041  0.1091 -0.3466 -0.2532
 8019W        W23150   5.824  17.106   0.299  0.0696  0.0287  0.1464
 8020W        W23151   9.088  10.998  11.114  0.0245  0.0585 -0.0543
 8021W        W23152   9.114   0.981   4.193  0.0209 -0.0876  0.1530
 8022W        W23153  15.824  17.481   4.175 -0.0598 -0.0358 -0.0358
 8023W        W23154   4.531  15.220   3.324 -0.1232  0.1768  0.3452
 8024W        W23155   6.212   2.959  10.906  0.1292 -0.0503  0.2362
 8025W        W23156  11.019   8.262  14.375 -0.1184 -0.0317  0.1700
 8026W        W23157   7.217   6.210  10.292 -0.0294  0.1955 -0.0326
 8027W        W23158   1.097   3.002  14.375  0.2362  0.2611 -0.0690
 8028W        W23159  11.167   5.686   4.592  0.0298  0.3466 -0.1093
 8029W        W23160   2.229   4.532   4.069  0.0059 -0.1760  0.2470
 8030W        W23161   7.669   1.776   4.183 -0.0306 -0.3421  0.0777
 8031W        W23162  12.997  11.765   0.899 -0.0304 -0.2137 -0.3102
 8032W        W23163   0.743  13.407   3.983  0.2919  0.0517 -0.0222
 8033W        W23164   2.714   9.147  12.998 -0.1257  0.0639 -0.0084
 8034W        W23165   9.433   0.295   1.881 -0.1677 -0.2440  0.0427
 8035W        W23166   2.920  10.439   4.637  0.1279  0.1400 -0.0147
 8036W        W23167  10.852   5.805  15.047  0.1967  0.1911  0.0002
 8037W        W23168   1.079   2.940  12.654  0.0361  0.0864 -0.2029
 8038W        W23169  15.454   0.960  13.128 -0.0537  0.0960 -0.2781
 8039W        W23170   9.190  10.191  10.911 -0.1869 -0.0415  0.0429
 8040W        W23171  11.483  13.289  13.125 -0.1250  0.1063  0.1968
 8041W        W23172   2.219   2.804   9.886 -0.5511 -0.0535 -0.1839
 8042W        W23173  14.839  16.661   3.814 -0.2243 -0.2946 -0.0045
 8043W        W23174   4.557  17.499  13.740 -0.1570  0.0796 -0.2408
 8044W        W23175  17.052   2.100   3.674 -0.2406  0.1331 -0.0022
 8045W        W23176   6.692  17.420   1.322  0.3185 -0.3846  0.0399
 8046W        W23177  15.695   9.049  15.182 -0.0547 -0.0267  0.3147
 8047W        W23178   6.166  15.936   3.574 -0.2027 -0.0225 -0.2638
 8048W        W23179  10.804   4.714  13.538  0.1016  0.0628 -0.2140
 8049W        W23180   8.963   2.515   4.905  0.0329 -0.0682 -0.0239
 8050W        W23181   3.678   7.578   4.620  0.1430  0.3470 -0.1286
 8051W        W23182  17.621   5.268  12.635  0.2286  0.2017 -0.0830
 8052W        W23183   9.351   9.369  15.047 -0.0029 -0.2650  0.0173
 8053W        W23184   7.750  15.510   0.323  0.1999  0.0934 -0.2201
 8054W        W23185   8.472  15.372   4.127 -0.2006  0.0800  0.0101
 8055W        W23186   8.094  11.723   0.739 -0.0248  0.0057 -0.1623
 8056W        W23187   8.057   2.180  13.881 -0.0601  0.1861  0.0445
 8057W        W23188  18.436  11.641   5.658  0.1851  0.0631  0.1087
 8058W        W23189   5.892   6.733   0.721  0.0448 -0.2766 -0.0177
 8059W        W23190   5.901   4.835   4.390 -0.2177 -0.0792  0.1676
 8060W        W23191   7.436  11.786  12.833 -0.3055 -0.1867  0.3620
 8061W        W23192   5.968   0.721   4.825  0.1413  0.1907 -0.1345
 8062W        W23193   3.515   4.042   1.159  0.0337  0.1130  0.0216
 8063W        W23194  11.954  12.307  15.350  0.0565 -0.1447  0.1746
 8064W        W23195   9.332  16.243  12.984  0.0814 -0.0140 -0.1831
 8065W        W23196  15.263   9.214  15.858  0.0532  0.0792 -0.3117
 8066W        W23197   3.846   9.852  14.088 -0.0054  0.0150  0.2709
 8067W        W23198  14.757   4.725  13.189  0.0392  0.0602 -0.0362
 8068W        W23199   4.521   7.461   3.112  0.0075  0.1094  0.1239
 8069W        W23200  14.772   9.105   2.331 -0.0663  0.1931 -0.0359
 8070W        W23201   3.984   3.327  11.063 -0.0128 -0.1643  0.1530
 8071W        W23202  17.247   0.394  10.478 -0.0815  0.2101  0.0522
 8072W        W23203   9.742  10.699  13.585  0.1849  0.0625  0.1904
 8073W        W23204   5.047   7.751  11.172  0.0415 -0.0868  0.0266
 8074W        W23205   7.619   4.135   5.495  0.2405 -0.0273 -0.0980
 8075W        W23206  10.716  14.910   1.769 -0.3264 -0.1272  0.0645
 8076W        W23207   5.387   3.887  11.164 -0.2207  0.2768 -0.0516
 8077W        W23208   9.638   7.682  14.424  0.2871  0.0252  0.1324
 8078W        W23209   4.888  14.271   3.935 -0.0011 -0.1227  0.1371
 8079W        W23210   5.711  17.769   0.386  0.1002 -0.1837 -0.2073
 8080W        W23211  12.400  16.519  11.330 -0.2344 -0.1117 -0.1362
 8081W        W23212  10.663   7.634  10.689  0.3607  0.2846 -0.5302
 8082W        W23213   3.557  16.794   1.737 -0.1609 -0.3977  0.1595
 8083W        W23214  11.666   3.015  12.798  0.0440  0.2460  0.1082
 8084W        W23215  16.501  16.049  10.093  0.0011  0.3009  0.2516
 8085W        W23216   3.676   4.132   3.412 -0.1183  0.0209 -0.1967
 8086W        W23217  10.252   6.621  13.315 -0.0222  0.1544  0.0880
 8087W        W23218  11.605   0.698   0.495 -0.0965 -0.1886  0.1618
 8088W        W23219  11.659   0.406   3.995  0.1896 -0.0772 -0.1385
 8089W        W23220   8.107   7.865  11.260 -0.2630 -0.1361 -0.0511
 8090W        W23221  10.430  12.665  14.705  0.2272  0.4669  0.1088
 8091W        W23222   8.267   6.658   2.576 -0.3654  0.1012  0.0334
 8092W        W23223   5.332  16.028  11.965 -0.0908  0.0109  0.1041
 8093W        W23224   3.211   9.293  14.888  0.0006  0.1150  0.1127
 8094W        W23225  14.737  13.457   2.854 -0.2512 -0.0061  0.1847
 8095W        W23226  15.017   0.712  15.680 -0.0945  0.1934 -0.2863
 8096W        W23227   5.169  10.794  13.956  0.0301  0.0854  0.0009
 8097W        W23228   4.962   3.716   4.301 -0.1982  0.1178  0.5482
 8098W        W23229   1.651  15.711  10.507 -0.1643  0.1145 -0.2153
 8099W        W23230   7.206  15.166   1.194  0.1087 -0.0943 -0.0469
 8100W        W23231  17.965   8.140   0.771 -0.2699 -0.2482  0.0896
 8101W        W23232  17.299   7.945   4.548  0.0273  0.3136 -0.3299
 8102W        W23233   5.362  11.591   0.016  0.1473  0.1348  0.1291
 8103W        W23234   4.081   6.243   1.344 -0.3960  0.5252 -0.2386
 8104W        W23235   9.431   8.863   1.216 -0.2102  0.1623  0.0074
 8105W        W23236   9.621  10.425  14.116  0.0104 -0.1744 -0.0951
 8106W        W23237   4.406  16.835   3.812 -0.0018  0.0813 -0.0864
 8107W        W23238   8.031  10.285   0.437  0.1610  0.3141  0.2177
 8108W        W23239   5.627   2.969   3.338  0.1026 -0.1423 -0.1239
 8109W        W23240  14.196   1.657   0.354  0.0960  0.0881  0.2284
 8110W        W23241  17.052  12.919  13.410  0.0585 -0.1328  0.0062
 8111W        W23242   7.799  12.918  14.199  0.1248 -0.4322 -0.1311
 8112W        W23243  13.110  17.368  13.222  0.3016 -0.2773  0.0321
 8113W        W23244   1.176  14.325   9.972 -0.0727 -0.1502 -0.1637
 8114W        W23245   6.738  10.442  15.658 -0.0648  0.2240  0.0298
 8115W        W23246   5.507   9.145   0.709  0.1203  0.2691 -0.1379
 8116W        W23247   1.521   3.269   0.664  0.0639 -0.2049 -0.0595
 8117W        W23248   0.157  16.604  11.332 -0.2234 -0.0882 -0.2551
 8118W        W23249  11.908   6.523  11.425  0.2703  0.2005 -0.1553
 8119W        W23250  11.111   3.358  11.763 -0.0477 -0.1953 -0.1916
 8120W        W23251  10.901   0.720   2.525 -0.0245  0.0748 -0.1529
 8121W        W23252  17.109   0.425  10.006  0.1244 -0.1093 -0.3047
 8122W        W23253  12.007   7.566  11.545  0.0328  0.1254  0.3393
 8123W        W23254   0.125  18.206   2.213 -0.2359 -0.0765  0.1026
 8124W        W23255  16.330   3.030  13.003  0.1567  0.0116 -0.2070
 8125W        W23256   4.092  17.240  11.358  0.0534 -0.0973 -0.0750
 8126W        W23257   8.938  10.948  14.278 -0.0362 -0.0843  0.0690
 8127W        W23258  16.815   2.610  15.657  0.1249  0.2226 -0.1823
 8128W        W23259  18.243  10.437  14.734 -0.0753  0.3698 -0.1310
 8129W        W23260  15.501   4.062   4.648  0.0372 -0.0099  0.1880
 8130W        W23261   2.027  14.035   0.670  0.1752 -0.2575  0.0663
 8131W        W23262  13.776  10.325  12.291  0.3119  0.0824  0.1548
 8132W        W23263   6.496   3.396  10.921  0.2620  0.0658 -0.0452
 8133W        W23264  14.275   1.212  12.014  0.3493  0.2255  0.0856
 8134W        W23265   0.698  12.800   4.156  0.3703 -0.0211  0.0311
 8135W        W23266   1.457  17.553  10.467 -0.0598 -0.2480 -0.0498
 8136W        W23267   8.716   9.690   0.296 -0.1503  0.2546 -0.0770
 8137W        W23268  14.937   1.388  15.306 -0.0767 -0.1988  0.1616
 8138W        W23269  11.463   6.393  13.792 -0.1504 -0.1359 -0.5173
 8139W        W23270  16.578  15.266   0.814  0.2386 -0.0296  0.2190
 8140W        W23271  14.410   8.364  13.372  0.1558  0.0752  0.2358
 8141W        W23272  17.704   3.513   2.744  0.1623  0.3402 -0.2811
 8142W        W23273  18.368  11.015   3.391  0.1909 -0.0289  0.1904
 8143W        W23274  13.508  16.469   4.210  0.2090  0.0064  0.0253
 8144W        W23275  18.372   1.777   3.970 -0.3130  0.1776  0.0652
 8145W        W23276   3.544  13.225  15.510 -0.0627 -0.1247 -0.1448
 8146W        W23277   9.637  11.607   2.579 -0.3014 -0.2923  0.0086
 8147W        W23278   9.389   1.836  15.643 -0.0876 -0.1242 -0.0372
 8148W        W23279   6.319  15.036   4.868  0.1235  0.1384 -0.2350
 8149W        W23280  11.175   2.856   0.847 -0.0080 -0.1574  0.2946
 8150W        W23281   1.144   8.281   0.072  0.1694 -0.2134  0.0189
 8151W        W23282   8.370  10.435  11.300  0.0353 -0.0241  0.1487
 8152W        W23283   7.056  16.416   0.270 -0.0378 -0.1715  0.1684
 8153W        W23284   2.513   3.396  13.127 -0.1113 -0.0902 -0.1097
 8154W        W23285   1.873   6.255  13.445  0.0136 -0.1427 -0.1230
 8155W        W23286  11.803   3.696  13.504  0.3129 -0.0424  0.0822
 8156W        W23287  18.419   3.263  13.350 -0.0833 -0.1809 -0.1535
 8157W        W23288  15.330   9.285   1.312 -0.1882 -0.0435 -0.0505
 8158W        W23289   8.521  18.067  10.741 -0.3435 -0.1469  0.1261
 8159W        W23290   4.575   3.106   2.730  0.0101  0.0815 -0.2501
 8160W        W23291   3.562   6.904   5.265  0.3783 -0.2470 -0.0183
 8161W        W23292   6.132  12.366  14.619 -0.2796 -0.0448  0.1914
 8162W        W23293   5.347   0.494  15.303 -0.0380 -0.4152  0.0208
 8163W        W23294   3.743   7.418   2.596  0.3217 -0.0600  0.0221
 8164W        W23295  10.820   8.460   3.879 -0.0274  0.2184  0.0806
 8165W        W23296  15.879  16.196   2.734 -0.1702 -0.0810  0.1290
 8166W        W23297  12.334   5.168  13.021 -0.1297  0.0530 -0.2918
 8167W        W23298   1.090  12.148  14.367  0.1224 -0.2112  0.1479
 8168W        W23299  13.031  12.900  10.814 -0.0015 -0.2014 -0.0082
 8169W        W23300   6.512   0.582  13.106 -0.0026  0.2208 -0.4325
 8170W        W23301   5.435  13.550  12.105 -0.0038 -0.1473  0.3086
 8171W        W23302   6.325  13.724   0.418  0.2369 -0.3327  0.1249
 8172W        W23303  16.675  17.190  10.921  0.0256 -0.1428  0.2289
 8173W        W23304   4.109   4.331   3.590 -0.3383  0.0578 -0.1693
 8174W        W23305  12.274   2.054  13.519 -0.3952 -0.0642  0.1193
 8175W        W23306   8.986   2.129  12.187 -0.2972  0.1310 -0.0604
 8176W        W23307   8.791   5.831   1.170 -0.1321 -0.3615 -0.2233
 8177W        W23308  14.272   1.961  13.260  0.0049 -0.2196 -0.2432
 8178W        W23309  15.671   9.313   0.327 -0.1778  0.1144  0.0120
 8179W        W23310  16.425  17.334  13.514  0.2644 -0.1990 -0.1586
 8180W        W23311   3.066   9.352   0.069 -0.0277  0.3546  0.0104
 8181W        W23312   9.942  12.738  11.415  0.0490  0.1365  0.3050
 8182W        W23313   2.967  10.712   3.162  0.2738  0.1727  0.1957
 8183W        W23314   7.557   3.890   4.486 -0.1272 -0.3374  0.0331
 8184W        W23315  13.120  13.689  12.254  0.0185  0.2262 -0.2187
 8185W        W23316   5.778  12.376  12.272 -0.1056  0.1748 -0.0811
 8186W        W23317   4.260  14.569   3.910 -0.1478  0.3379 -0.2508
 8187W        W23318   3.474  17.256  12.574 -0.0318 -0.1058  0.2121
 8188W        W23319  10.215   7.292  15.034 -0.1255  0.5109  0.1087
 8189W        W23320  12.431   5.416  13.567 -0.0993  0.1470 -0.1144
 8190W        W23321   3.670   9.815   4.709 -0.1471 -0.3763  0.0821
 8191W        W23322   2.217  14.564  14.095  0.2755 -0.0892 -0.1164
 8192W        W23323  16.688  11.448   1.309  0.1869  0.0233  0.0762
 8193W        W23324   3.263   3.728   0.886 -0.1703 -0.1210  0.2448
 8194W        W23325   6.145  12.170  12.675  0.0910 -0.2635 -0.1323
 8195W        W23326  15.368   7.748  11.115 -0.1180  0.1018  0.3512
 8196W        W23327   6.976  11.839  15.352  0.1292 -0.0923 -0.1429
 8197W        W23328   8.374   6.462   0.120 -0.2831 -0.1065  0.0374
 8198W        W23329   2.390  18.422  14.139  0.3259  0.1954  0.1379
 8199W        W23330   5.965  14.864   1.392 -0.0999  0.1340 -0.1317
 8200W        W23331  16.114   2.155   1.430  0.0476  0.2490 -0.1155
 8201W        W23332  14.669  12.762  13.048 -0.2460  0.3971  0.1379
 8202W        W23333   7.983   8.039   0.351 -0.1526 -0.0098  0.2367
 8203W        W23334   3.233   6.756   1.273 -0.0018 -0.1983 -0.2403
 8204W        W23335   0.312   1.749   2.520 -0.1522 -0.0506 -0.0997
 8205W        W23336   2.927   7.473   4.828  0.2484 -0.0767  0.0458
 8206W        W23337   9.286   8.862  15.085  0.0522  0.0495  0.1652
 8207W        W23338  12.678   5.023  11.001 -0.2956  0.0807  0.0550
 8208W        W23339   7.703   6.455   3.756 -0.1170 -0.0515 -0.1138
 8209W        W23340  18.069  15.442   4.894  0.0126  0.0266 -0.0634
 8210W        W23341   0.173   9.716   5.659  0.1126  0.0181 -0.0736
 8211W        W23342   1.222  17.053  12.700  0.2111 -0.3456 -0.1821
 8212W        W23343   1.613  16.757  14.435 -0.4813 -0.4213 -0.0279
 8213W        W23344   2.150   7.342  15.423 -0.5153 -0.0298  0.0034
 8214W        W23345   3.607   6.786  14.481  0.1178 -0.0417  0.0702
 8215W        W23346   8.412  17.223  13.625 -0.0718  0.4335 -0.0297
 8216W        W23347   2.838  12.796  12.819  0.0675 -0.1675 -0.0567
 8217W        W23348  12.948  18.299   0.679 -0.0151  0.1136  0.2208
 8218W        W23349  13.378   2.551   4.774 -0.1847 -0.1751  0.0339
 8219W        W23350  12.026  15.551  13.254  0.2009 -0.0243 -0.0818
 8220W        W23351   3.409   1.644  15.391  0.3867 -0.0772 -0.1379
 8221W        W23352  10.091   3.088   5.657  0.4288 -0.2552 -0.4181
 8222W        W23353  14.632   6.560   5.147 -0.0404  0.2272 -0.3672
 8223W        W23354   8.689   5.972   0.223  0.1873 -0.0403  0.2191
 8224W        W23355   4.581   6.169  12.112 -0.1724 -0.1055  0.0739
 8225W        W23356   9.278  17.461  14.224  0.1984 -0.1384 -0.1656
 8226W        W23357  15.716   1.182   4.052 -0.0478 -0.2397 -0.2061
 8227W        W23358   9.932   4.358  15.184 -0.0404  0.0314  0.0430
 8228W        W23359   6.826   8.342   3.272  0.1463 -0.1317  0.0179
 8229W        W23360  11.890   9.429  11.954  0.1215 -0.1778 -0.0773
 8230W        W23361  12.162   1.433   4.746 -0.0221  0.1218 -0.0391
 8231W        W23362   3.173  12.112   3.863 -0.0350 -0.0860 -0.0507
 8232W        W23363  16.734  11.904   1.184  0.0298  0.1265  0.0632
 8233W        W23364  10.968  13.654   4.606 -0.3720 -0.2978 -0.1442
 8234W        W23365  14.993  10.243   0.834 -0.2618  0.3803 -0.1437
 8235W        W23366   2.264  13.067  13.904 -0.4752  0.2060 -0.1438
 8236W        W23367  14.377  15.009   3.533  0.1058 -0.2044 -0.0349
 8237W        W23368   8.869  12.757   4.507 -0.1966  0.0721 -0.2071
 8238W        W23369  14.708  17.235   0.509 -0.0289 -0.1843  0.0308
 8239W        W23370   1.586  16.742   1.529  0.0019 -0.0971  0.2314
 8240W        W23371   3.869   5.870  11.529  0.2362 -0.1736 -0.2318
 8241W        W23372   0.875  14.534   1.967  0.3533 -0.0341  0.2166
 8242W        W23373   2.131  15.287   4.065  0.1417 -0.2132 -0.1021
 8243W        W23374  18.208   5.714   1.491  0.0084 -0.1891  0.2305
 8244W        W23375   6.814  13.287   4.362  0.1201  0.0904  0.1262
 8245W        W23376   8.442  10.443  14.744 -0.1686 -0.2809  0.2076
 8246W        W23377  14.635  17.902   1.966  0.0442 -0.4343  0.1072
 8247W        W23378   4.271  16.743  13.614  0.2146  0.3194 -0.2849
 8248W        W23379  14.715   4.631  14.127  0.0761  0.0895  0.2672
 8249W        W23380   0.429  15.955   2.143 -0.0640 -0.0656 -0.1310
 8250W        W23381  14.486  10.480  14.757 -0.2576  0.2759 -0.1882
 8251W        W23382   7.029   1.602  11.870 -0.2375  0.1458  0.2802
 8252W        W23383   7.130   5.749   4.435  0.2659 -0.0079  0.0833
 8253W        W23384  15.469   6.803   4.889 -0.1542 -0.2175  0.1556
 8254W        W23385  10.325   8.029   2.445 -0.0052  0.0668  0.0506
 8255W        W23386   7.787   6.875  11.919 -0.0480 -0.0531 -0.1508
 8256W        W23387   3.119   3.571  11.843 -0.1316  0.0509 -0.1986
 8257W        W23388   4.073   7.759   0.317  0.0332  0.0889 -0.0210
 8258W        W23389  15.305   2.826   3.067  0.5631  0.1447 -0.2466
 8259W        W23390   8.667   9.115   4.560 -0.0614 -0.1589  0.0020
 8260W        W23391  11.061  12.498  11.226  0.0503  0.1600  0.1858
 8261W        W23392   8.034  13.169   1.433 -0.3409  0.2805 -0.2005
 8262W        W23393  15.925   7.994  14.994  0.2360 -0.0308  0.5442
 8263W        W23394  14.436   4.802  15.041 -0.2972  0.0075 -0.1223
 8264W        W23395  13.860  16.587  15.197  0.6455  0.1141 -0.1127
 8265W        W23396  13.009   2.869  13.048 -0.1537 -0.0455  0.2770
 8266W        W23397  11.730   8.257  13.687 -0.3159 -0.0155  0.1563
 8267W        W23398   0.540  17.773  11.507  0.1694  0.0861 -0.1165
 8268W        W23399   2.510   0.902  12.259 -0.4267  0.2250 -0.2053
 8269W        W23400  13.463  14.804   2.780 -0.3406 -0.3414  0.1642
 8270W        W23401   7.533   3.426   1.317 -0.1549 -0.3014 -0.4435
 8271W        W23402  18.264  13.181   2.377  0.0340  0.1684 -0.2085
 8272W        W23403  15.282  10.889   1.328 -0.0277  0.0635 -0.0247
 8273W        W23404   8.215   2.798   3.209 -0.1307  0.1534 -0.1144
 8274W        W23405   3.676  10.485   0.982 -0.3462 -0.3001  0.1246
 8275W        W23406   8.930  14.372   1.558 -0.1568 -0.2361  0.1665
 8276W        W23407  18.239   9.214   3.576 -0.0366  0.3291 -0.1432
 8277W        W23408   6.622  17.065  13.119 -0.2210  0.1094 -0.1340
 8278W        W23409  13.948  15.917  13.965  0.0447 -0.3139 -0.0663
 8279W        W23410   1.143   0.382   2.197 -0.1592  0.0096 -0.1390
 8280W        W23411  13.199   6.105  14.422 -0.0577 -0.0988 -0.2135
 8281W        W23412  11.219  11.700  11.250 -0.0124  0.1714  0.1398
 8282W        W23413  12.807  13.362  11.943 -0.1435 -0.0611 -0.0119
 8283W        W23414   1.931   7.870   2.724 -0.2715  0.3942 -0.1098
 8284W        W23415  17.641  12.906   4.390 -0.2103 -0.1193  0.1953
 8285W        W23416  16.751  11.038  12.310  0.3218  0.3774  0.2041
 8286W        W23417   4.642  12.854   3.275  0.0235  0.1265 -0.2177
 8287W        W23418   2.234   6.321   4.534  0.1382  0.3325 -0.2716
 8288W        W23419   8.973   4.547   4.254  0.1035  0.0621  0.4092
 8289W        W23420  13.179   7.831  15.684  0.1151  0.2365 -0.1733
 8290W        W23421  14.982   6.060   2.406  0.1567  0.0990 -0.1572
 8291W        W23422   0.241   3.253   0.716  0.0627 -0.3883 -0.1971
 8292W        W23423   9.064  17.300  10.422 -0.1093  0.0287  0.0077
 8293W        W23424  15.399   1.166   3.110 -0.0680 -0.1553  0.1155
 8294W        W23425   4.609   4.718  10.996  0.1060 -0.0344 -0.4719
 8295W        W23426   0.213   2.849   3.338  0.0054 -0.0776 -0.1483
 8296W        W23427  17.454  10.522  15.477 -0.2528 -0.0371  0.1685
 8297W        W23428  18.381  15.031   3.625 -0.0075 -0.2393 -0.1218
 8298W        W23429   7.806  10.681  12.519  0.1983  0.1303  0.0626
 8299W        W23430  17.771  14.022   0.466 -0.1486  0.0546 -0.4838
 8300W        W23431  11.187   8.558   2.229 -0.3322  0.2833  0.2554
 8301W        W23432   7.718   0.889  13.444 -0.1310  0.2381  0.2792
 8302W        W23433  17.597  12.937   1.103 -0.1407  0.0465 -0.1713
 8303W        W23434  10.074   4.286  14.360 -0.1446 -0.2348 -0.0506
 8304W        W23435   8.697   0.321   3.551 -0.1478 -0.1148 -0.2355
 8305W        W23436   1.430   5.061  13.459  0.3090  0.0324  0.0457
 8306W        W23437   8.307   4.618   0.083 -0.1385  0.0934  0.2083
 8307W        W23438   0.728   7.946   3.662  0.0072  0.0680  0.0804
 8308W        W23439  14.777  17.452  13.506 -0.1363 -0.2082 -0.1972
 8309W        W23440  12.792  10.440  12.645 -0.0308  0.1988 -0.1687
 8310W        W23441   0.376   0.404  12.637 -0.2695  0.2012  0.0055
 8311W        W23442  17.167   8.937  11.756 -0.1240  0.0550 -0.1421
 8312W        W23443   7.599  17.187   0.372 -0.0387  0.1938 -0.0019
 8313W        W23444   2.870  11.301   3.102  0.0986  0.1083  0.0423
 8314W        W23445   7.437   2.366   1.041  0.1143 -0.1030  0.1303
 8315W        W23446  14.108  16.404  11.006 -0.1789 -0.1708  0.1188
 8316W        W23447   7.228   4.460  15.779 -0.1484 -0.0495 -0.2095
 8317W        W23448  17.219  18.498  10.220  0.0668  0.2660 -0.2291
 8318W        W23449   8.752   3.967   6.231  0.1160 -0.0932  0.1619
 8319W        W23450   6.759  11.124   3.630  0.0827 -0.0451 -0.2170
 8320W        W23451  11.365   3.693  11.090  0.1159  0.1187  0.2226
 8321W        W23452   9.398  18.268   1.628 -0.0169  0.4726 -0.1818
 8322W        W23453   0.647  14.944   0.352 -0.3585 -0.0353 -0.0019
 8323W        W23454   3.594  16.631   3.383  0.2802 -0.0745 -0.0276
 8324W        W23455   7.430   9.306  15.345  0.1228 -0.0068  0.0027
 8325W        W23456   6.807   2.837  12.482  0.0042 -0.2822 -0.1142
 8326W        W23457   1.317  10.617  10.670 -0.0956  0.2616 -0.1289
 8327W        W23458   4.564  16.726  11.969  0.0907  0.0914  0.1016
 8328W        W23459   6.539  18.311   4.136 -0.1379  0.2987 -0.2410
 8329W        W23460   3.337   7.194   4.679  0.0258 -0.0479 -0.0574
 8330W        W23461   4.906  12.608   2.461  0.3253 -0.2989 -0.0467
 8331W        W23462   8.813  15.086  13.368  0.3386  0.2186 -0.0016
 8332W        W23463   0.710  17.721  15.070  0.0418  0.1494  0.0071
 8333W        W23464  18.234   3.045   3.173 -0.0748  0.1402  0.1090
 8334W        W23465   5.338   4.961   3.916  0.0388 -0.1068 -0.2470
 8335W        W23466   0.182  14.847   2.957 -0.0504  0.2648  0.1860
 8336W        W23467   5.995  11.187   2.763  0.2440  0.1705  0.0988
 8337W        W23468  16.850   0.267   5.255  0.1923  0.1602  0.2695
 8338W        W23469  17.884  17.459   2.848  0.2076 -0.2014 -0.2616
 8339W        W23470   3.608   3.069   4.723 -0.2306  0.2865 -0.1495
 8340W        W23471  14.146  17.397   4.140 -0.2162 -0.4114 -0.0745
 8341W        W23472  16.783   1.074   5.817  0.2149  0.1376  0.0744
 8342W        W23473  16.172   6.141   1.822 -0.2940  0.1046  0.2669
 8343W        W23474   5.806   3.686   3.232 -0.1701  0.0266 -0.2179
 8344W        W23475   8.384   0.242  10.874 -0.2053  0.1045  0.4647
 8345W        W23476  15.415   7.357  13.855  0.0346  0.0474 -0.0133
 8346W        W23477   0.633   8.666   0.134  0.2214 -0.0847  0.0363
 8347W        W23478   6.246   8.347  13.245  0.1143  0.0951 -0.4275
 8348W        W23479  17.166  14.803  13.019 -0.0210  0.1993 -0.0271
 8349W        W23480   3.575  16.697   4.249  0.3029  0.0901 -0.1753
 8350W        W23481   6.924   7.786   3.323 -0.2277  0.0584  0.1398
 8351W        W23482  17.499  15.136  14.687  0.0044  0.2317 -0.3443
 8352W        W23483   5.035   0.470   2.397 -0.5523  0.1115 -0.3327
 8353W        W23484   7.555  16.327   0.452  0.0738 -0.1795  0.2649
 8354W        W23485  11.882   1.834   0.461 -0.0376 -0.5101  0.2156
 8355W        W23486  11.677  14.735  14.960 -0.2166  0.1093 -0.2495
 8356W        W23487  15.650   7.975   1.465 -0.3573 -0.3201  0.1283
 8357W        W23488  10.805   0.817  10.960  0.1253 -0.0137  0.0878
 8358W        W23489  12.631  17.896   0.755  0.2659 -0.1825 -0.0016
 8359W        W23490   9.301  10.810  15.472 -0.0702  0.0963  0.0537
 8360W        W23491  17.083  14.407  11.804  0.0995 -0.2223  0.1609
 8361W        W23492  11.989   8.015  10.290 -0.1152 -0.0310  0.0098
 8362W        W23493   3.562  17.716  14.168 -0.1005  0.0827  0.1794
 8363W        W23494  15.103  11.897   4.397 -0.2890  0.0535 -0.1883
 8364W        W23495   4.091   1.981   1.070  0.0457 -0.2359 -0.1823
 8365W        W23496  11.420  14.478  11.276  0.3136  0.0341  0.0730
 8366W        W23497  11.516   4.707   1.802  0.0501  0.0219 -0.1944
 8367W        W23498  13.969  12.452   4.319 -0.5234 -0.2096 -0.0956
 8368W        W23499  12.037  12.902  11.347 -0.2403  0.0055  0.1799
 8369W        W23500   4.607  12.916  13.710 -0.1118 -0.0747  0.2608
 8370W        W23501  11.501  16.943  14.449  0.0837  0.0510  0.1154
 8371W        W23502  15.484  18.060   1.533 -0.1934  0.3544 -0.1327
 8372W        W23503  10.018  14.099   9.200 -0.0876 -0.1123  0.3744
 8373W        W23504   8.254   4.163  12.622  0.1414  0.3707 -0.0935
 8374W        W23505   5.212  15.086  13.889  0.0305  0.1353 -0.1892
 8375W        W23506   5.961  10.414   5.530 -0.0961 -0.0646  0.0194
 8376W        W23507   1.224  14.265   5.343 -0.0852  0.1702 -0.0423
 8377W        W23508  10.386  11.347   2.901 -0.0911 -0.0350 -0.1774
 8378W        W23509  17.802  10.616  11.957 -0.2828  0.1312  0.1207
 8379W        W23510  10.835   0.076   1.904  0.0005 -0.2094  0.1072
 8380W        W23511  10.816  13.212  10.532 -0.4157  0.0783  0.2536
 8381W        W23512  14.610   4.245   4.700 -0.3270  0.3096  0.0190
 8382W        W23513   4.393   5.745  12.848  0.5172  0.3183 -0.2797
 8383W        W23514   3.660   1.743  13.965 -0.0644 -0.1418  0.3369
 8384W        W23515  17.576   8.489   4.558  0.5469 -0.2306  0.0142
 8385W        W23516   8.275   1.413   3.301  0.1763 -0.0099  0.0637
 8386W        W23517  12.535  10.696  12.198  0.1202  0.1174  0.1381
 8387W        W23518   3.263   4.369   0.359 -0.2610  0.1025 -0.0392
 8388W        W23519  11.899  18.187  11.949 -0.0650 -0.1182  0.1370
 8389W        W23520  15.752  16.315   0.162 -0.0237  0.1234  0.4459
 8390W        W23521   9.859   1.110   2.265  0.2806  0.2262 -0.0374
 8391W        W23522   9.839   7.026   4.629 -0.2522 -0.2137 -0.0192
 8392W        W23523   1.034  15.600   4.754 -0.1259 -0.3076  0.2276
 8393W        W23524  14.685   2.069   3.014  0.1915  0.1708 -0.1291
 8394W        W23525   5.128  15.957  15.210 -0.1071 -0.2887 -0.3447
 8395W        W23526   1.855  18.425   2.470 -0.1560 -0.0191 -0.1291
 8396W        W23527   5.444  13.052   2.053  0.0561  0.4334 -0.2004
 8397W        W23528  15.077   3.832   2.342 -0.1095  0.1761 -0.0337
 8398W        W23529  16.316  13.797  12.565  0.1570  0.0001  0.3213
 8399W        W23530  11.848  12.466   3.078  0.0893  0.0202 -0.3365
 8400W        W23531  11.480   2.592  14.147  0.1436 -0.0201  0.1537
 8401W        W23532   4.275   2.470  15.017  0.1329  0.2370 -0.3900
 8402W        W23533   5.106  14.739  15.071 -0.0047 -0.0922 -0.3798
 8403W        W23534   5.300  14.793  13.034 -0.0344 -0.4091 -0.2166
 8404W        W23535  16.757   1.665  15.359 -0.0685  0.2552  0.4359
 8405W        W23536   3.954   2.210  10.004  0.0182  0.0450 -0.1014
 8406W        W23537  17.601   5.496   4.017 -0.0621 -0.0074 -0.0515
 8407W        W23538   2.459   3.480   5.393 -0.1861 -0.4318 -0.1710
 8408W        W23539   9.076   1.434  12.392  0.1884 -0.2710 -0.0498
 8409W        W23540   2.348   1.885   1.332 -0.0904  0.1363 -0.0409
 8410W        W23541  13.466   3.091  14.691  0.1018 -0.1313  0.1072
 8411W        W23542   4.075   6.364   2.468 -0.2215 -0.1193 -0.2899
 8412W        W23543   6.540  12.789  11.408  0.3271 -0.0565 -0.2386
 8413W        W23544   4.897  11.777  15.625 -0.0514 -0.0378 -0.0393
 8414W        W23545  12.111   3.638  11.418 -0.0420  0.0536 -0.0124
 8415W        W23546   3.125   6.293  15.594 -0.0352  0.3760 -0.0629
 8416W        W23547  10.187   9.870   0.020 -0.0439  0.1283  0.4269
 8417W        W23548  17.312  14.970  15.446  0.1070  0.1357  0.0466
 8418W        W23549   7.381   2.830  14.447  0.0744 -0.0952 -0.1005
 8419W        W23550  12.787  12.606   2.176  0.0027  0.2563 -0.0019
 8420W        W23551   5.667  13.626   0.844 -0.0784  0.2440  0.1199
 8421W        W23552  17.658   8.736   1.967 -0.1820  0.2556  0.0973
 8422W        W23553  13.359   8.483   1.160 -0.0563  0.0953  0.2265
 8423W        W23554   2.201  18.392  11.498  0.0936  0.2114  0.1924
 8424W        W23555  12.430  14.092   2.196 -0.0032  0.0301 -0.0942
 8425W        W23556   8.786   7.658  12.231 -0.0493 -0.0410  0.1540
 8426W        W23557   4.258  13.059  14.241 -0.0313 -0.1434  0.1786
 8427W        W23558  18.408   8.790   3.361 -0.0595  0.0915 -0.1279
 8428W        W23559  16.026   8.174   4.000 -0.2201  0.2519  0.1921
 8429W        W23560   4.841  16.653  14.599 -0.1618  0.1406  0.1173
 8430W        W23561  17.233   2.254  14.549  0.1128  0.0362  0.1486
 8431W        W23562  16.239   8.933   1.921  0.1352  0.1100  0.2589
 8432W        W23563   5.195   0.137  13.279 -0.0132 -0.4418 -0.4469
 8433W        W23564  15.997  11.912   4.585  0.0043  0.1476 -0.2572
 8434W        W23565   5.992  16.732  11.761 -0.0178  0.0557  0.0159
 8435W        W23566  17.062  15.004   2.197 -0.1738 -0.3898  0.0358
 8436W        W23567   4.838   6.326  11.707 -0.0880  0.0257 -0.1817
 8437W        W23568  16.623  16.691  14.203  0.1610 -0.0887  0.2086
 8438W        W23569  18.258   7.602  15.004  0.2177 -0.0234  0.0634
 8439W        W23570  17.046   8.370  13.011  0.0132 -0.2108 -0.1564
 8440W        W23571   2.723  17.752  13.664 -0.1314 -0.0109  0.0939
 8441W        W23572  17.106   2.485   2.171  0.2630 -0.2810 -0.1550
 8442W        W23573   3.055  14.888   0.630  0.1499  0.1854 -0.0601
 8443W        W23574  17.075  13.561   5.507  0.1177  0.2028 -0.1564
 8444W        W23575  11.376   1.467   4.964 -0.0069  0.0896 -0.0630
 8445W        W23576   4.737  12.690  14.229 -0.0600  0.0132 -0.0503
 8446W        W23577   6.225   2.162   0.276  0.1115 -0.1968 -0.1929
 8447W        W23578   8.904   7.417  13.710 -0.0823  0.4501  0.3209
 8448W        W23579  13.960  14.941   0.702 -0.2124 -0.0518  0.1343
 8449W        W23580  10.165  11.896  13.471 -0.0456 -0.0265  0.1260
 8450W        W23581  10.193   3.259  11.751  0.1896 -0.0624 -0.4450
 8451W        W23582   0.191   3.129   4.045  0.0477  0.0039 -0.0678
 8452W        W23583  15.525  15.628   0.068 -0.1190 -0.1138 -0.2452
 8453W        W23584   6.379   8.434   2.907 -0.1688  0.3005 -0.0093
 8454W        W23585   6.136   2.410  11.805 -0.0511  0.0863  0.1046
 8455W        W23586   7.653   0.668   4.233  0.1716 -0.2432 -0.2652
 8456W        W23587  12.317   5.264   0.239 -0.1215 -0.0091  0.2357
 8457W        W23588  17.963   0.135  11.552 -0.3989 -0.0849 -0.3713
 8458W        W23589   9.249   1.555   3.592 -0.3231  0.1480 -0.1713
 8459W        W23590  10.126  16.300  15.775  0.0642 -0.2505 -0.1616
 8460W        W23591  16.531  17.062   5.179 -0.2523  0.2812  0.1967
 8461W        W23592  13.189   9.066  15.486 -0.0556 -0.0149 -0.0993
 8462W        W23593  10.071   9.001   1.063 -0.3581 -0.1314  0.0221
 8463W        W23594  12.290   2.452   2.104  0.0053  0.1950  0.0492
 8464W        W23595   8.773   3.176  13.717  0.0899  0.0502 -0.1038
 8465W        W23596   1.238  15.257  12.643  0.1148  0.1050 -0.1133
 8466W        W23597   0.436   1.898   0.315  0.4187  0.2960 -0.0889
 8467W        W23598  16.226   5.950  12.455 -0.3591 -0.0643 -0.0457
 8468W        W23599  17.149  13.866  12.251  0.1957 -0.2295 -0.0008
 8469W        W23600  18.436   5.925   5.063  0.0832 -0.0188 -0.0601
 8470W        W23601  11.105   0.909   1.600 -0.2945 -0.3575  0.4250
 8471W        W23602  17.723  14.622   5.547  0.3464 -0.0644  0.1774
 8472W        W23603   7.479  16.896   4.098 -0.0502  0.0035 -0.0520
 8473W        W23604  16.807   3.444   4.360 -0.2254  0.1418 -0.3759
 8474W        W23605   5.811   2.096  13.822  0.1119 -0.2699 -0.0303
 8475W        W23606  12.052   4.704  13.864  0.0515 -0.1214 -0.0852
 8476W        W23607  15.984   2.607  15.351 -0.0289 -0.1006  0.0735
 8477W        W23608  18.366   0.967   6.171 -0.2502 -0.0318 -0.1101
 8478W        W23609  18.072   2.009  12.986  0.0591 -0.3156  0.2058
 8479W        W23610  17.573   4.072   2.810 -0.1205 -0.2202  0.1817
 8480W        W23611   8.037   1.028  11.062 -0.0093  0.2148  0.0901
 8481W        W23612   6.480   4.487   0.841  0.0712  0.0741  0.0495
 8482W        W23613   1.186   2.132   1.955 -0.3154 -0.2876 -0.3751
 8483W        W23614   6.459   0.905   2.885 -0.1191 -0.2927 -0.1330
 8484W        W23615   1.496   1.432   5.329 -0.0373 -0.2179 -0.1165
 8485W        W23616   0.011   2.327  11.467  0.2125  0.1084 -0.1467
 8486W        W23617   8.297  12.801  12.786 -0.1460 -0.0738 -0.2593
 8487W        W23618   9.243  13.340   0.891  0.0325  0.1639  0.1213
 8488W        W23619  15.511  17.294   1.917  0.1187  0.0491 -0.0904
 8489W        W23620   4.510  11.277   5.533  0.1345  0.0801  0.1027
 8490W        W23621   9.096   6.211  13.403 -0.0936  0.1092 -0.2524
 8491W        W23622  10.026   3.017  10.835  0.2406 -0.0297 -0.0304
 8492W        W23623  16.302  10.004   3.608  0.1420  0.1058  0.0179
 8493W        W23624  10.827   8.177   0.377 -0.1676  0.0360  0.0683
 8494W        W23625   6.636   2.844   2.922  0.0009  0.0825 -0.1167
 8495W        W23626   7.077   2.134  15.661 -0.0005 -0.1122 -0.1701
 8496W        W23627  10.759  15.360  12.606 -0.0679 -0.0926  0.0113
 8497W        W23628  15.709  15.896  15.125 -0.0112 -0.1450 -0.2290
 8498W        W23629  11.830  12.775  14.791 -0.1163  0.0610 -0.1967
 8499W        W23630   8.577   2.215  15.648  0.0209  0.4437  0.0050
 8500W        W23631   2.204  10.995   0.907  0.0260 -0.3247 -0.2077
 8501W        W23632  13.377  11.245  12.364 -0.0094 -0.1712 -0.2094
 8502W        W23633  15.779  14.932  12.997 -0.0695 -0.2089  0.1767
 8503W        W23634  17.516   6.303   5.068 -0.3718 -0.1361  0.0753
 8504W        W23635  15.517  17.607   0.720 -0.3791 -0.1474  0.0141
 8505W        W23636  15.087  14.663   2.887 -0.4440 -0.0477 -0.0454
 8506W        W23637   3.687   3.253   4.119  0.0038 -0.3096 -0.0543
 8507W        W23638  14.393  15.662   1.693 -0.0637 -0.1228  0.3271
 8508W        W23639  10.452   9.759  13.194  0.2448 -0.0523 -0.0047
 8509W        W23640   3.515   8.086   2.474  0.2511 -0.1189 -0.0575
 8510W        W23641   0.544  13.254   1.671  0.0712  0.0547  0.0757
 8511W        W23642  16.032   1.487  15.655  0.1280  0.1776  0.1187
 8512W        W23643   6.695  12.369   5.406  0.0466 -0.1026 -0.2356
 8513W        W23644   4.962   5.455   4.533 -0.0077 -0.0189 -0.2965
 8514W        W23645   4.509   6.223  15.577 -0.2054 -0.1985 -0.0912
 8515W        W23646   5.674   9.335   4.464  0.2606  0.0312  0.0340
 8516W        W23647  13.244   1.483   0.581  0.0774 -0.1438  0.3297
 8517W        W23648   6.049  11.204   1.802  0.0841  0.2123  0.2123
 8518W        W23649   0.672  11.314  12.242 -0.1731  0.2929  0.0134
 8519W        W23650   2.263  11.286  14.477 -0.1002  0.0954  0.1444
 8520W        W23651  17.715   1.303  14.385  0.0531  0.0966 -0.5109
 8521W        W23652  11.907   1.071   0.649 -0.2077  0.1088 -0.0245
 8522W        W23653  17.964  11.287  14.785 -0.0905 -0.2205 -0.1457
 8523W        W23654  10.399  11.069  14.173 -0.1327 -0.2082  0.4371
 8524W        W23655  16.734   5.720  15.747  0.0556 -0.1892 -0.2668
 8525W        W23656   9.909   3.326   2.227  0.2225 -0.0600  0.0685
 8526W        W23657   0.311   5.095   1.849 -0.0481 -0.0642  0.0911
 8527W        W23658   5.207   1.941  14.880  0.1860 -0.0796  0.3872
 8528W        W23659  12.683   0.526   4.072  0.2955  0.3101 -0.2081
 8529W        W23660   9.199   4.719  13.325  0.0499  0.2997 -0.0755
 8530W        W23661   9.706   4.633   3.374 -0.1401 -0.1494 -0.1642
 8531W        W23662  13.074   3.291  11.369 -0.0757  0.1203  0.0731
 8532W        W23663  18.372  15.303  15.018 -0.1352  0.0392 -0.0600
 8533W        W23664  16.898  13.563   1.453 -0.0561  0.2981 -0.3026
 8534W        W23665  16.292  10.867  13.810 -0.2402 -0.2309 -0.0947
 8535W        W23666   6.020  14.956   4.422 -0.0171  0.0845 -0.5129
 8536W        W23667   1.058  12.811   0.103 -0.1074  0.0636  0.0792
 8537W        W23668  11.498   8.965   1.428 -0.1614  0.0596 -0.1772
 8538W        W23669  11.052  15.919   0.460  0.0406 -0.3225 -0.0118
 8539W        W23670   4.777   7.353  11.063  0.1218  0.0188 -0.3974
 8540W        W23671   2.322  16.778   5.758  0.3481  0.1308  0.1152
 8541W        W23672  10.779   4.471   4.800 -0.0422  0.1568 -0.3041
 8542W        W23673  17.175  10.913  13.173  0.2265  0.0545 -0.4018
 8543W        W23674   8.690  14.030  10.792 -0.4445 -0.0048 -0.1375
 8544W        W23675  17.776   4.775  11.191  0.0503 -0.1571 -0.1532
 8545W        W23676   9.897  13.618  12.962 -0.3379 -0.1795  0.0789
 8546W        W23677   9.252   1.781   2.261 -0.4021  0.2333  0.2466
 8547W        W23678   6.649   9.763  12.926 -0.1514 -0.1671  0.0007
 8548W        W23679   5.431  14.957  12.145  0.4327  0.1183  0.6180
 8549W        W23680   6.599  13.774   4.232 -0.0822 -0.1825 -0.2639
 8550W        W23681  16.617   8.096   1.072  0.0357  0.1119 -0.2019
 8551W        W23682   1.032   1.335   1.504 -0.1477  0.3473 -0.1991
 8552W        W23683   5.089  14.288  11.160  0.3348 -0.0668  0.1041
 8553W        W23684   8.290  15.114  15.677 -0.1373  0.3462  0.0293
 8554W        W23685   9.357  12.812   3.209 -0.1270 -0.0291  0.1410
 8555W        W23686   5.223  12.085   4.784  0.3579  0.0462  0.1971
 8556W        W23687   7.493   2.160   1.527 -0.0006  0.0150  0.2188
 8557W        W23688   5.794  13.322  11.024  0.2073 -0.0861 -0.2084
 8558W        W23689   9.641   9.144   4.890  0.1668 -0.1865 -0.0422
 8559W        W23690   4.575  13.510  10.159 -0.1108  0.0303  0.1969
 8560W        W23691   8.005   9.851  12.833  0.0319 -0.2823  0.0079
 8561W        W23692   6.852   4.545  13.879  0.0374 -0.1490  0.1014
 8562W        W23693   3.219   6.574   0.221 -0.2897 -0.0214 -0.2439
 8563W        W23694   2.929   3.422  11.317 -0.2279  0.5642 -0.0769
 8564W        W23695  18.355  11.467  13.929  0.0355  0.3546  0.2553
 8565W        W23696   1.759  10.780   5.120 -0.0984 -0.2572 -0.0841
 8566W        W23697   7.122   7.840  11.521 -0.0171 -0.1056 -0.1291
 8567W        W23698   0.481  12.289   1.501  0.0269 -0.3836  0.0083
 8568W        W23699   0.956   1.035  15.723  0.2262 -0.2957 -0.2610
 8569W        W23700  17.489  12.919  15.393 -0.0443 -0.0397  0.0640
 8570W        W23701   5.355   4.002   4.178  0.0775 -0.0977  0.2568
 8571W        W23702   1.908   9.940  11.792 -0.0788  0.1039  0.3475
 8572W        W23703   9.076  16.982  11.260  0.1600  0.1478  0.2303
 8573W        W23704  13.449  13.090  13.519  0.0079  0.2843 -0.2638
 8574W        W23705   5.991  16.854   4.968 -0.1638  0.3079 -0.2309
 8575W        W23706  10.011   2.127   3.547 -0.1612 -0.0986 -0.1543
 8576W        W23707  11.162   7.176  11.324  0.0740 -0.2407  0.3305
 8577W        W23708  12.133  17.204   3.063  0.0684 -0.1965 -0.0246
 8578W        W23709  15.802  16.287  10.327 -0.0890 -0.0831  0.0045
 8579W        W23710   9.372  16.636   0.241 -0.1132 -0.1365 -0.1604
 8580W        W23711   1.899  10.372  12.627 -0.0582 -0.1363 -0.0253
 8581W        W23712   0.386  13.516  15.677  0.1003  0.1224 -0.3121
 8582W        W23713  10.265   3.634   4.525 -0.0947  0.0818 -0.3397
 8583W        W23714   6.740   7.353  14.626 -0.1946  0.1953 -0.0674
 8584W        W23715   4.524  17.237  11.614  0.1992 -0.2797 -0.3119
 8585W        W23716   3.817   5.052  15.151 -0.0553  0.1902  0.0947
 8586W        W23717   6.349   2.898  15.844  0.3271 -0.1687  0.1457
 8587W        W23718  17.013  16.192  14.670  0.1543 -0.2948  0.1046
 8588W        W23719   5.249  16.158   1.075 -0.0800 -0.0044  0.4253
 8589W        W23720  12.583   9.784   2.834  0.3773 -0.0178  0.0303
 8590W        W23721  15.082   3.825   3.530  0.2194 -0.3601 -0.1875
 8591W        W23722  17.987  12.190  14.523  0.0473  0.0709  0.0766
 8592W        W23723  15.781  17.201  10.045  0.1488  0.0438  0.2963
 8593W        W23724  14.400  17.405  15.265 -0.1622  0.2930 -0.1627
 8594W        W23725   7.043  16.472   0.796 -0.0523 -0.0267 -0.1674
 8595W        W23726  10.353   5.418   3.620 -0.1471 -0.2170  0.0228
 8596W        W23727   4.040  11.364  11.521  0.2035  0.4238  0.3179
 8597W        W23728  15.818   4.514   5.172 -0.0708  0.2360 -0.3167
 8598W        W23729   6.709   1.246   4.083 -0.1227  0.1657  0.1198
 8599W        W23730  17.370  14.339  12.657 -0.0050 -0.0139 -0.0048
 8600W        W23731   4.464   0.050  10.399  0.1306  0.1271  0.1053
 8601W        W23732   9.686  18.204  13.685  0.0109 -0.1623 -0.0806
 8602W        W23733   6.480   0.533   0.818  0.0020 -0.1258 -0.0450
 8603W        W23734  15.295  12.477  11.100  0.2163 -0.1818  0.0533
 8604W        W23735   4.427  11.708   2.590  0.1807 -0.3577 -0.2606
 8605W        W23736  13.074   9.832  15.810 -0.1947 -0.1106  0.3924
 8606W        W23737   1.118   4.293   3.199 -0.1349  0.2886  0.2505
 8607W        W23738   5.188   7.852  13.336  0.0732 -0.0711 -0.1233
 8608W        W23739   1.961  12.240  15.514 -0.1551  0.0422  0.2363
 8609W        W23740   3.545  12.857   2.600  0.3935 -0.3793  0.1207
 8610W        W23741   7.690   7.169  14.546 -0.0503  0.0407  0.2178
 8611W        W23742  16.084  13.779   1.197 -0.2052 -0.2236 -0.1611
 8612W        W23743   6.916  10.294   0.249  0.0963  0.0252 -0.3237
 8613W        W23744   6.131   1.748  10.443  0.0069  0.0320 -0.1522
 8614W        W23745   6.969  10.677  12.653 -0.0914  0.0665  0.2186
 8615W        W23746   5.988  11.988  15.752 -0.2493 -0.1432 -0.1953
 8616W        W23747  13.666  17.471   0.994 -0.0849  0.1285 -0.2465
 8617W        W23748  17.957  15.527  15.346  0.4442  0.0858  0.1816
 8618W        W23749   0.303   8.064  12.873  0.3496 -0.0426 -0.2454
 8619W        W23750   6.942  17.311  10.830 -0.2794 -0.0364 -0.0101
 8620W        W23751   8.875  16.886  14.845  0.0101  0.0206 -0.0728
 8621W        W23752  11.756   5.202  15.404 -0.1226 -0.0849 -0.2342
 8622W        W23753   6.947   6.608   6.304  0.1847  0.1750  0.1071
 8623W        W23754  16.135  11.193   0.786  0.2243 -0.2721 -0.1078
 8624W        W23755  15.580   2.637   1.067  0.0309 -0.3100 -0.1905
 8625W        W23756  16.842  17.222  13.755 -0.1180 -0.2818 -0.0545
 8626W        W23757  10.403  14.560   4.350 -0.0520 -0.0003 -0.1169
 8627W        W23758  16.243   2.180   5.206  0.1758  0.0392  0.0868
 8628W        W23759  14.938   0.698  13.148 -0.5088 -0.0253 -0.0103
 8629W        W23760   8.657  15.195   4.641  0.0851 -0.1992 -0.0746
 8630W        W23761  13.975  14.092   1.496  0.2623 -0.0571  0.1603
 8631W        W23762   4.189   8.204   3.461 -0.2441  0.1664  0.2182
 8632W        W23763  14.089  18.173   2.582 -0.0427 -0.2472  0.2480
 8633W        W23764  14.601   9.950   1.981  0.1493 -0.0657  0.1824
 8634W        W23765  12.308   0.431   3.165  0.2143 -0.0280 -0.2107
 8635W        W23766   5.088   6.913  13.703  0.1506  0.2194 -0.2958
 8636W        W23767   9.248   7.488   3.092 -0.0679 -0.3074 -0.0116
 8637W        W23768  14.839   7.847   4.445  0.1006  0.2379 -0.3383
 8638W        W23769   9.741  10.980  11.881 -0.0463  0.0353  0.1932
 8639W        W23770   0.634   9.989  14.781 -0.0605  0.0655 -0.1152
 8640W        W23771   5.204  13.224  10.781  0.3048  0.1278  0.2178
 8641W        W23772  10.005  15.523   4.762  0.0192  0.0360  0.0001
 8642W        W23773   6.725  16.620  12.909 -0.0145  0.2148 -0.0258
 8643W        W23774   3.652   6.132   4.953 -0.1180  0.1981 -0.1149
 8644W        W23775   8.917   1.323   3.933 -0.2407  0.0490  0.4143
 8645W        W23776   2.168  14.701   3.374 -0.2196  0.0615  0.1767
 8646W        W23777   3.438   1.135  14.349  0.2724 -0.2782  0.1967
 8647W        W23778   1.801  14.077   2.826  0.0096  0.1209 -0.0781
 8648W        W23779   7.049   9.072  10.395 -0.1410  0.1159 -0.0771
 8649W        W23780   5.178   1.090   0.538 -0.2269  0.1596  0.0426
 8650W        W23781   3.590   9.833   1.127 -0.1527 -0.0081 -0.2516
 8651W        W23782  12.324   1.437   5.683 -0.1637 -0.1204 -0.4133
 8652W        W23783   4.069   4.326   5.354  0.2530 -0.0995  0.3243
 8653W        W23784  10.236   3.894   3.147 -0.0252  0.0745 -0.0685
 8654W        W23785   3.641  13.260   2.332  0.0747 -0.0990  0.2828
 8655W        W23786   3.248  14.856   5.470 -0.2304  0.1076 -0.1270
 8656W        W23787   6.970   2.594  13.845 -0.0265 -0.2774  0.4015
 8657W        W23788  12.683   2.305   0.388 -0.2114 -0.0587  0.0791
 8658W        W23789  17.717  16.658  14.417 -0.1503  0.2507  0.1589
 8659W        W23790  15.029  13.957  10.953  0.0493 -0.1010 -0.2361
 8660W        W23791  16.896   1.559   4.930 -0.3048 -0.0076  0.3461
 8661W        W23792   0.384  17.438   5.390  0.1125  0.0340 -0.0716
 8662W        W23793   1.833   9.667   4.088 -0.0165 -0.2446 -0.0086
 8663W        W23794  15.118  12.304  10.711  0.4068 -0.0557  0.1650
 8664W        W23795   6.091  16.771   2.029 -0.1317 -0.3942  0.0158
 8665W        W23796   7.993  17.380  14.054 -0.2785 -0.2178  0.4045
 8666W        W23797   3.648  14.772   2.105 -0.0539  0.2167  0.1144
 8667W        W23798  17.815  18.428  12.046 -0.6169  0.0292  0.1873
 8668W        W23799   2.506  10.098   4.735 -0.0609 -0.0398 -0.0097
 8669W        W23800   8.912   0.060   1.963  0.1491 -0.0175 -0.0668
 8670W        W23801   9.127   0.529  15.448 -0.1287  0.3516  0.3392
 8671W        W23802   7.913  13.976  12.036 -0.0456 -0.0504 -0.0818
 8672W        W23803   8.055   1.983  15.596 -0.2022  0.0407 -0.0964
 8673W        W23804   0.898   1.976   3.269  0.1755  0.2639 -0.5871
 8674W        W23805  16.287  15.651   2.045  0.1283 -0.0516 -0.0632
 8675W        W23806  15.188   8.596   4.584 -0.2384  0.0494  0.1573
 8676W        W23807   1.835   0.468  11.631  0.0778  0.1412 -0.0133
 8677W        W23808   4.292   8.349  11.226 -0.1093 -0.1157  0.0830
 8678W        W23809   7.588   7.285   1.004  0.0222 -0.1513 -0.1489
 8679W        W23810  12.542   8.125  12.769  0.0276 -0.1437  0.1890
 8680W        W23811  14.583   8.926   5.410 -0.2738  0.2631 -0.4345
 8681W        W23812   5.815  12.430  13.234 -0.1113 -0.0129  0.0678
 8682W        W23813  15.314  17.854   3.338  0.0889 -0.0280 -0.3893
 8683W        W23814  10.773  14.781  14.444 -0.0854  0.3360 -0.0120
 8684W        W23815   0.116   0.755  12.863 -0.1385 -0.0492 -0.0838
 8685W        W23816   3.800  12.730  14.141  0.1604 -0.2812  0.1102
 8686W        W23817  16.131   4.244   5.508  0.1412  0.0551  0.1056
 8687W        W23818  14.280   2.201  12.551 -0.1458  0.3514 -0.0805
 8688W        W23819   4.744   3.385   5.169  0.0007 -0.1515  0.0309
 8689W        W23820  15.462   1.611  13.735  0.2155 -0.0148  0.0507
 8690W        W23821  12.949  17.045   2.043  0.0333 -0.0886  0.0966
 8691W        W23822   3.804   8.113   5.495 -0.1786 -0.1758 -0.0111
 8692W        W23823  18.126   7.247  13.132  0.1735  0.0390  0.1811
 8693W        W23824   1.497   4.650   3.986 -0.0102 -0.2630  0.0221
 8694W        W23825   9.316   4.470   3.114 -0.1606 -0.0463  0.1797
 8695W        W23826   1.153   2.297   0.156 -0.0352  0.2163  0.0665
 8696W        W23827   6.766   8.197   5.191  0.1254 -0.0895  0.0689
 8697W        W23828   7.068  17.825  11.794  0.0374  0.0957 -0.1668
 8698W        W23829  14.619  13.238  13.152 -0.1427 -0.0468 -0.1510
 8699W        W23830   8.436   9.566  14.519 -0.0261 -0.1872 -0.3195
 8700W        W23831   1.721  17.033  13.459  0.1550  0.4799  0.0185
 8701W        W23832   4.700   7.387  12.718  0.2542 -0.0242  0.2082
 8702W        W23833   7.957   1.664   9.833 -0.1528 -0.1363  0.3722
 8703W        W23834   4.106   7.065  11.727 -0.1357  0.0202 -0.1627
 8704W        W23835   1.793   7.242  12.903  0.2334  0.2007  0.1375
 8705W        W23836  16.328  12.124   2.450 -0.1376 -0.1816  0.1954
 8706W        W23837  18.442  13.726   3.258  0.0874 -0.0412  0.4058
 8707W        W23838   8.050   1.633  12.084  0.1230 -0.3492 -0.1692
 8708W        W23839   3.143  16.469  15.828 -0.0861  0.0346 -0.0769
 8709W        W23840   8.340   6.557   1.823  0.2266  0.0173  0.0167
 8710W        W23841  10.556   8.444  13.248  0.0870  0.0501 -0.2966
 8711W        W23842  13.148  16.277  12.960 -0.2326 -0.3290 -0.1130
 8712W        W23843   5.916   8.770  11.682  0.0559  0.1743  0.2435
 8713W        W23844  11.235   7.876   0.543 -0.1440  0.0405 -0.1004
 8714W        W23845   5.195  13.380  12.553 -0.0333  0.1202  0.2343
 8715W        W23846   8.443  12.641  12.298  0.1383  0.1807 -0.2516
 8716W        W23847   2.301   7.638  10.261 -0.1865 -0.1648  0.0040
 8717W        W23848  15.307   9.940  14.750 -0.0952 -0.1799  0.2773
 8718W        W23849   0.449  10.180   4.607 -0.0711  0.0318  0.0852
 8719W        W23850   1.011  10.881   5.165  0.2431  0.3069  0.1507
 8720W        W23851  12.694  14.075  15.083  0.0939  0.0221  0.4324
 8721W        W23852   2.176   2.990  11.353 -0.1745 -0.0210 -0.2765
 8722W        W23853  12.372   4.281   3.480  0.2602 -0.0066 -0.0259
 8723W        W23854  14.405  14.653   2.337 -0.2303 -0.1362  0.1376
 8724W        W23855   8.302  10.742   2.472  0.0109 -0.2427 -0.1159
 8725W        W23856   9.762   7.907  11.059 -0.2328  0.3299  0.0383
 8726W        W23857   5.580   3.615   0.024 -0.0887 -0.3239  0.1755
 8727W        W23858   4.513   9.404   1.008  0.0316  0.2951 -0.0589
 8728W        W23859  14.218  15.341  15.052  0.0489  0.3466 -0.1569
 8729W        W23860   9.915  16.938   2.971  0.1812 -0.1515 -0.1072
 8730W        W23861   8.932  11.928  12.023 -0.0181 -0.2484  0.2008
 8731W        W23862  13.815   4.290  15.638  0.0353  0.1119  0.0802
 8732W        W23863  15.145  16.624   0.981  0.0289  0.1090  0.0046
 8733W        W23864   4.582  12.459   2.079  0.1198 -0.0445 -0.1073
 8734W        W23865   0.521  11.763  12.234 -0.3294  0.1888 -0.1190
 8735W        W23866  12.313   9.482  14.585  0.1834 -0.0587 -0.0241
 8736W        W23867   0.025   9.026   4.507  0.3161  0.2497  0.1335
 8737W        W23868  17.366   4.462  15.300 -0.2045  0.2100  0.0995
 8738W        W23869  17.133   9.247  15.098  0.1579  0.1379  0.1750
 8739W        W23870   3.616   4.630   3.438  0.2380  0.0617 -0.2343
 8740W        W23871   4.708   2.098  14.494 -0.0146  0.2828  0.3183
 8741W        W23872   7.493  12.130   4.592 -0.1203 -0.2455  0.0523
 8742W        W23873   5.509  14.133  10.943 -0.2303  0.0832  0.1861
 8743W        W23874   7.474  18.014   0.102 -0.4689  0.0562 -0.1296
 8744W        W23875  15.699  17.867   1.953  0.0150 -0.0124  0.1221
 8745W        W23876  10.876   7.149  13.361  0.1019 -0.4812 -0.1625
 8746W        W23877   9.646   4.655   1.412 -0.0315 -0.0505  0.4528
 8747W        W23878   0.807   8.430   4.222  0.3759 -0.0165  0.1252
 8748W        W23879  17.263  17.895  15.507  0.2209  0.1936 -0.3280
 8749W        W23880   0.888   4.307   0.562  0.3266  0.0780  0.1018
 8750W        W23881   7.888   6.589  14.829 -0.0532 -0.0653  0.0585
 8751W        W23882   3.393   2.094  12.303  0.0705 -0.4290 -0.1648
 8752W        W23883   0.057  17.615  15.386  0.0805 -0.1611  0.0039
 8753W        W23884  12.194  11.583  11.659 -0.0218  0.4618 -0.2709
 8754W        W23885   3.456  17.699  14.887  0.1188  0.0831 -0.1154
 8755W        W23886   1.944   3.038   2.658  0.0601  0.3139  0.1637
 8756W        W23887   2.569   4.221  12.527 -0.0997 -0.1613 -0.0421
 8757W        W23888  15.592   1.593  14.244  0.0863 -0.2472 -0.0676
 8758W        W23889   9.962   3.995  15.755 -0.0765  0.0294 -0.0709
 8759W        W23890  11.996   1.392  11.673  0.0235 -0.1293  0.1944
 8760W        W23891   1.168   8.647   3.383 -0.0114  0.5196  0.5692
 8761W        W23892   9.893  14.406   1.759 -0.1666 -0.2868  0.0527
 8762W        W23893  18.509  16.632   2.346  0.1984 -0.3051  0.1398
 8763W        W23894  13.621   0.178  10.496  0.1170  0.2513  0.0033
 8764W        W23895   4.061   7.618  15.243 -0.3878  0.0239 -0.3223
 8765W        W23896  13.481  13.693   2.578 -0.2158  0.0984  0.2664
 8766W        W23897  14.468  11.159  15.603  0.1580 -0.1827  0.0060
 8767W        W23898   0.868   7.717  12.119  0.4274  0.0063  0.0938
 8768W        W23899  10.755  12.652   0.679 -0.1867  0.0882 -0.1365
 8769W        W23900  11.252   7.074   3.114  0.2243  0.1593 -0.0316
 8770W        W23901   9.258   2.809   4.519  0.1757  0.1972 -0.0858
 8771W        W23902  17.154  10.937   1.832  0.1517 -0.6807  0.1390
 8772W        W23903  12.911  17.832  11.460 -0.0287 -0.2746 -0.1104
 8773W        W23904  12.501  12.281  12.944 -0.0900 -0.1186 -0.1781
 8774W        W23905   5.908   1.359   4.136 -0.0515  0.0828 -0.2780
 8775W        W23906  18.227  11.423   2.708  0.0544  0.2386  0.3878
 8776W        W23907  16.799   3.789   3.678  0.1228 -0.0576 -0.1168
 8777W        W23908  13.966   9.638   1.372 -0.2436 -0.0303  0.1173
 8778W        W23909   8.237  15.550  14.557  0.0246  0.0796  0.0175
 8779W        W23910   9.741  12.365  11.766  0.1455 -0.4602  0.0559
 8780W        W23911  17.527  15.140   4.141 -0.0708 -0.3001  0.2144
 8781W        W23912  15.522   1.468   2.196 -0.0082 -0.3374 -0.2512
 8782W        W23913   8.748   6.872   2.662 -0.0755  0.2192 -0.0184
 8783W        W23914   0.059  16.999   5.144  0.0023  0.1333  0.0272
 8784W        W23915   6.670   9.692  11.632  0.1289 -0.1821 -0.4196
 8785W        W23916  15.988  15.367  15.892  0.1330 -0.1350  0.1523
 8786W        W23917   4.019   1.105   1.379  0.1511 -0.0434 -0.1370
 8787W        W23918   8.788   7.012  13.942 -0.1965  0.0672  0.2648
 8788W        W23919   2.960  12.762  13.846  0.2357  0.1207  0.0999
 8789W        W23920  11.711  14.818   4.549 -0.0382  0.0321 -0.2234
 8790W        W23921   6.981  14.931   4.860  0.0185  0.0967  0.0882
 8791W        W23922   8.967  10.475  15.597 -0.2157  0.1187  0.2580
 8792W        W23923   9.072  12.165  10.741 -0.0040  0.0646 -0.0859
 8793W        W23924   8.255  15.438  12.585 -0.2095  0.0500 -0.0861
 8794W        W23925  15.031  15.288   2.060 -0.0974  0.2262  0.0437
 8795W        W23926  13.039  11.202  12.725 -0.0078  0.1472  0.3024
 8796W        W23927   8.195   6.535   0.822  0.1450 -0.1231  0.1828
 8797W        W23928   0.128  13.913  14.316 -0.0293 -0.1440  0.0176
 8798W        W23929  11.645   5.799   0.559  0.1423  0.4146 -0.2708
 8799W        W23930   4.313   0.827   2.837  0.0748 -0.2576  0.0113
 8800W        W23931   4.249   0.992  11.183 -0.0853  0.0440 -0.3836
 8801W        W23932   4.850   9.876  15.030 -0.0802  0.2067 -0.2645
 8802W        W23933   7.036   7.514   2.898  0.1423 -0.1253  0.1278
 8803W        W23934   8.907  16.107   3.720  0.0648  0.0171 -0.3023
 8804W        W23935  18.517   7.509   1.398 -0.1782  0.1968  0.0590
 8805W        W23936   2.808  10.641  11.017  0.1777 -0.0795  0.1359
 8806W        W23937  16.089   1.147   4.461  0.4794  0.0448  0.0038
 8807W        W23938   6.251   3.539  15.827  0.0144 -0.1606 -0.0819
 8808W        W23939  10.142   5.803  14.143  0.0415 -0.1834 -0.0591
 8809W        W23940  14.184  10.574  11.529 -0.3710  0.0129 -0.1110
 8810W        W23941   4.029  18.306  14.212  0.0700  0.2029 -0.0134
 8811W        W23942   0.803   5.968   0.972  0.1339  0.2791  0.0707
 8812W        W23943  16.357  15.562  14.174 -0.0316  0.1730 -0.0720
 8813W        W23944  11.669   1.952   3.279  0.2349 -0.1199  0.2644
 8814W        W23945   1.876  15.796  11.406  0.1599  0.1177 -0.2118
 8815W        W23946   1.692  14.913  10.590  0.3821  0.0299 -0.1487
 8816W        W23947  18.530   1.859  13.798 -0.2259 -0.1393  0.1494
 8817W        W23948  18.447  10.139   9.865  0.0804  0.1005  0.0466
 8818W        W23949   7.650  16.473   3.467 -0.1246  0.2715  0.0406
 8819W        W23950  13.254  17.097   1.138 -0.2497 -0.2173  0.1460
 8820W        W23951   6.386   4.355  14.290 -0.4427 -0.0840 -0.0235
 8821W        W23952  14.311  18.424  14.878  0.0778 -0.0777  0.3123
 8822W        W23953  11.018  14.420  10.307 -0.0989 -0.0338  0.1915
 8823W        W23954   3.433   8.733  12.200 -0.3251  0.3489 -0.0015
 8824W        W23955  15.321  18.421  11.692 -0.1018  0.3004 -0.0020
 8825W        W23956   5.389   8.633  10.346 -0.2576 -0.2798  0.0503
 8826W        W23957  17.550   0.419  13.833  0.2366  0.0587  0.1565
 8827W        W23958   5.612   5.736   0.725  0.1768 -0.3740  0.1095
 8828W        W23959   7.987   9.090   3.923  0.1089 -0.0589 -0.1031
 8829W        W23960  16.205  12.929  15.092  0.2265 -0.1079 -0.0098
 8830W        W23961   9.515  13.031  10.224  0.0629  0.1871 -0.0075
 8831W        W23962  12.187  11.092  10.845 -0.0617  0.1435 -0.0187
 8832W        W23963  10.795  15.490   0.534 -0.3508 -0.3436  0.0718
 8833W        W23964   3.764  15.696   4.364  0.1090  0.0039 -0.1833
 8834W        W23965   3.083  15.622  13.215  0.1182  0.2450 -0.2860
 8835W        W23966   4.305   4.026   4.048 -0.0902 -0.2597 -0.0130
 8836W        W23967  11.619   4.568  14.909 -0.0453  0.0627  0.1941
 8837W        W23968  17.254   2.337  13.965 -0.0404 -0.2023 -0.0041
 8838W        W23969  13.933   4.939  15.206 -0.0228 -0.0337 -0.2429
 8839W        W23970   6.062   2.775  14.507 -0.2103 -0.0522  0.1280
 8840W        W23971  14.997  15.690   3.358  0.4495 -0.0653 -0.0310
 8841W        W23972  13.580   0.849  13.984  0.0944  0.1014 -0.0439
 8842W        W23973  15.647  13.282   0.873  0.0909  0.0542  0.2485
 8843W        W23974  17.519   5.612  12.289 -0.0867  0.0673  0.1810
 8844W        W23975  13.047  14.305  10.516  0.1631 -0.1036 -0.0469
 8845W        W23976  14.139   3.861  11.693 -0.2000  0.0459  0.0302
 8846W        W23977  12.391  13.021  12.240 -0.1434 -0.5900 -0.1220
 8847W        W23978   7.786   9.829   4.279  0.1898 -0.1449  0.1437
 8848W        W23979   5.635   8.097   4.506 -0.0654  0.0577 -0.3377
 8849W        W23980  12.853   6.468   3.334  0.2161  0.5538  0.0218
 8850W        W23981   1.336   5.367  15.474 -0.1522  0.2901 -0.3056
 8851W        W23982   3.764   6.325  14.331 -0.0969  0.1446 -0.0448
 8852W        W23983  15.346   8.468   2.870 -0.1736 -0.0405  0.1336
 8853W        W23984  11.942   6.753   1.611 -0.0843  0.2179  0.2116
 8854W        W23985  12.100   4.108   4.762  0.0872 -0.1802 -0.0168
 8855W        W23986  18.268  15.937  12.215  0.1007 -0.0300  0.4830
 8856W        W23987   4.735  18.451   3.954 -0.5279 -0.0183 -0.1351
 8857W        W23988   9.572  12.031   2.900 -0.2388 -0.2646  0.1628
 8858W        W23989   9.637   7.678  13.021  0.2403 -0.1851 -0.1767
 8859W        W23990   1.333   1.270   4.114 -0.0467 -0.5031 -0.1646
 8860W        W23991   3.457  10.601   1.963  0.0136 -0.0170  0.1936
 8861W        W23992   1.175  10.848  15.639 -0.1221 -0.4502 -0.2496
 8862W        W23993   7.294  18.474   0.590 -0.1322  0.0181 -0.0766
 8863W        W23994  13.188   0.424   4.225 -0.0162  0.1261  0.0605
 8864W        W23995   1.968   0.772  15.594  0.1177 -0.1237  0.1704
 8865W        W23996  10.788  16.348  12.891 -0.0870  0.1468 -0.2913
 8866W        W23997  12.609  10.541  11.679 -0.2406  0.1085  0.0818
 8867W        W23998  15.832   3.878  14.778 -0.1703  0.3115  0.1430
 8868W        W23999   8.463  11.068   4.729 -0.1798  0.1831  0.2147
 8869W        W24000  16.152   1.622   0.938 -0.0373 -0.3027 -0.0869
 8870W        W24001   7.784   3.573   0.131  0.2722 -0.0735  0.0170
 8871W        W24002  13.261  14.496   2.250 -0.2628 -0.2412 -0.0114
 8872W        W24003  13.314   8.011  14.289  0.1037 -0.1580  0.0360
 8873W        W24004   6.880   3.636  11.290  0.1581  0.2142  0.2276
 8874W        W24005  12.880  15.341   3.322  0.1468  0.1771  0.0297
 8875W        W24006   3.659  10.089   5.891 -0.0547 -0.4488  0.1081
 8876W        W24007   1.844  11.836   5.796 -0.1696 -0.0182  0.0799
 8877W        W24008   3.554   1.120   3.099 -0.1868 -0.0973 -0.0410
 8878W        W24009   7.162   5.386   1.444  0.1126 -0.0141  0.1561
 8879W        W24010  15.826  14.581   1.725 -0.2803 -0.2551 -0.3452
 8880W        W24011   4.441  16.045  11.035 -0.1444  0.2778  0.0164
 8881W        W24012   8.990   3.429  15.346  0.0053  0.0760  0.3405
 8882W        W24013   4.582   8.588   1.738 -0.2306 -0.0572  0.1625
 8883W        W24014   1.852   9.199  14.629 -0.1723 -0.2128  0.0781
 8884W        W24015  15.027   0.003   4.721  0.1257 -0.2002  0.2377
 8885W        W24016   9.074  14.054   4.581 -0.0948  0.2422 -0.1090
 8886W        W24017   6.423   6.573  13.375  0.3138  0.0638 -0.1026
 8887W        W24018  16.299   3.076  11.564 -0.0136 -0.3556 -0.0669
 8888W        W24019  12.007  17.180  12.853  0.1004  0.4922 -0.2263
 8889W        W24020   2.825  16.262  14.859 -0.4281 -0.2654 -0.2829
 8890W        W24021   1.829   6.072   1.818  0.0643 -0.2448 -0.1141
 8891W        W24022  17.702  13.540   6.465  0.1820 -0.0599 -0.0895
 8892W        W24023  11.028  18.229   4.033  0.0374  0.0171  0.0151
 8893W        W24024  12.535   1.834  12.188  0.3796  0.2098  0.0893
 8894W        W24025   8.493   8.494  10.427  0.3885  0.3191 -0.1882
 8895W        W24026  15.001   7.125   3.238 -0.1477 -0.1365 -0.2313
 8896W        W24027   8.126   2.995   5.690  0.1515  0.0869 -0.1896
 8897W        W24028  17.795  15.918  13.494 -0.2022 -0.0826  0.1364
 8898W        W24029  14.710   4.927   4.647 -0.1671  0.0298 -0.5107
 8899W        W24030   0.172   2.454   2.703  0.1618  0.1263  0.1663
 8900W        W24031  11.829   4.333   2.087 -0.0747  0.1125  0.0788
 8901W        W24032  18.018   2.570   3.273  0.0038  0.1041 -0.2528
 8902W        W24033  17.526  13.642  11.595  0.2297  0.0242  0.0502
 8903W        W24034   9.198   4.526  13.978  0.1192 -0.0379  0.1832
 8904W        W24035  15.443   1.794   4.550 -0.1876 -0.0554 -0.3719
 8905W        W24036   1.123   6.098   1.290 -0.0865 -0.2163 -0.1252
 8906W        W24037  12.180   8.344  13.162 -0.0682 -0.0370  0.0520
 8907W        W24038   5.969  17.873  12.312 -0.0910 -0.1610  0.3332
 8908W        W24039  12.773  12.360   1.517  0.1278  0.2667  0.1901
 8909W        W24040   5.378   5.935  10.542  0.0128  0.2134  0.3343
 8910W        W24041  13.185   2.243   1.348 -0.0111  0.1114 -0.3140
 8911W        W24042   4.102  17.433  14.078  0.4050 -0.2761 -0.3548
 8912W        W24043   4.842   0.658   1.650 -0.1153 -0.1522  0.0169
 8913W        W24044   7.673  14.754  12.960 -0.0087 -0.0495  0.0567
 8914W        W24045   8.896  10.351   0.745 -0.1584 -0.1402  0.0979
 8915W        W24046   3.091   1.679  12.169 -0.5358 -0.0743  0.1191
 8916W        W24047  12.326  15.983   2.090  0.0833  0.0547  0.3734
 8917W        W24048   5.516   6.000   1.176  0.2862  0.0537 -0.2473
 8918W        W24049   3.529  11.619  11.503  0.2254  0.1004  0.2387
 8919W        W24050  14.874   9.478  11.758 -0.0586 -0.0062  0.2185
 8920W        W24051   5.624  17.608  12.193  0.0848  0.2282 -0.1557
 8921W        W24052  11.939  14.257  11.285  0.0129 -0.0484 -0.1254
 8922W        W24053   9.630  17.685   4.652  0.2260  0.1545  0.0798
 8923W        W24054   0.837   5.009   2.714 -0.0829 -0.4409  0.1255
 8924W        W24055   6.593   8.236   1.543 -0.0395 -0.0856  0.2258
 8925W        W24056   0.749   9.022  15.487 -0.0408 -0.3381  0.0479
 8926W        W24057  10.253  18.003  11.653  0.1481  0.0009  0.3231
 8927W        W24058   2.491   8.656   3.302 -0.0450  0.0658  0.1068
 8928W        W24059  10.513  15.307   4.051 -0.3257  0.1026  0.0730
 8929W        W24060  10.702  18.103   4.389 -0.0885  0.1439 -0.2259
 8930W        W24061   8.637  16.670   0.725  0.1754 -0.5351 -0.1179
 8931W        W24062  12.697  12.959   4.788  0.0682 -0.0985 -0.0785
 8932W        W24063   2.403   2.096  10.385 -0.1645 -0.2381  0.4645
 8933W        W24064   0.060   5.280   3.609  0.3684 -0.3733 -0.0176
 8934W        W24065   8.291  14.600   3.068  0.0310 -0.2842  0.3874
 8935W        W24066   2.963   4.781   0.231  0.0839 -0.3750 -0.2529
 8936W        W24067   6.183  11.676   9.776 -0.0076 -0.3120  0.0575
 8937W        W24068   7.377  15.826   1.467 -0.0401  0.0115  0.1494
 8938W        W24069   5.048   9.401   0.437  0.2520  0.1587  0.0057
 8939W        W24070   3.531  18.476   1.276  0.2130  0.2331 -0.0510
 8940W        W24071  15.889   4.874   0.525 -0.0824  0.2126  0.2947
 8941W        W24072   1.720  15.646   4.018  0.2507 -0.0941 -0.0044
 8942W        W24073   1.718  10.600   4.029  0.1847 -0.1258  0.0302
 8943W        W24074  10.421   2.868  12.056 -0.3324  0.0356 -0.2540
 8944W        W24075   0.436   9.522  14.911 -0.1860  0.1087 -0.0433
 8945W        W24076  17.912   4.327  15.334  0.2730  0.0049  0.3093
 8946W        W24077   0.147   2.785  12.450  0.4507  0.0367 -0.0217
 8947W        W24078   5.575   1.428   0.402  0.2224 -0.2366  0.6414
 8948W        W24079   9.020  17.810  12.996 -0.1150 -0.0270  0.0671
 8949W        W24080   3.765   8.666   3.547  0.1727  0.2041  0.2492
 8950W        W24081   4.594  10.212   2.842  0.1948  0.2873 -0.0029
 8951W        W24082  14.102  18.414   4.949  0.1931  0.4086  0.2450
 8952W        W24083   4.451  16.495   5.007  0.1678  0.0748 -0.1495
 8953W        W24084   6.644  16.471   1.200 -0.1750 -0.1224  0.1773
 8954W        W24085  14.368  13.763   2.638 -0.1134  0.1128  0.1263
 8955W        W24086   0.439   5.147   4.002 -0.3025 -0.0012  0.1839
 8956W        W24087   5.270  14.380   1.906 -0.1320 -0.0180  0.0131
 8957W        W24088  18.341   2.712  13.309 -0.1099  0.3220  0.1253
 8958W        W24089  12.424  10.251   0.661  0.3228  0.0243 -0.0479
 8959W        W24090   6.341   5.070  14.621 -0.0501 -0.3810 -0.1122
 8960W        W24091  13.394   8.601  15.445  0.1706 -0.0533  0.0178
 8961W        W24092   9.917  11.885  12.175  0.0376 -0.1168  0.1187
 8962W        W24093  10.639  12.687   0.191 -0.3260 -0.1859  0.1285
 8963W        W24094  11.905   8.525   3.983  0.2023 -0.1640  0.3252
 8964W        W24095  13.710   9.275  11.495 -0.1157  0.1821 -0.5510
 8965W        W24096   3.137   6.269   3.150 -0.1331 -0.1609 -0.1387
 8966W        W24097   0.765  14.437  11.573  0.0732 -0.0387 -0.0021
 8967W        W24098  16.653  16.518   9.908  0.3341 -0.3417 -0.2589
 8968W        W24099   5.392   5.132  14.749  0.3049  0.0820  0.0286
 8969W        W24100  17.521   0.124  15.639 -0.0209  0.0685 -0.0526
 8970W        W24101   5.303   5.963   3.728  0.0020  0.3691 -0.0724
 8971W        W24102   9.565  16.434  14.966  0.1773 -0.0512  0.0802
 8972W        W24103  11.825   5.023  11.793 -0.2837  0.2455  0.0897
 8973W        W24104   8.046   6.031   4.840 -0.0612  0.1308  0.0012
 8974W        W24105  15.084   9.312  14.778  0.0702 -0.2252 -0.2529
 8975W        W24106   1.882  13.520   4.630  0.0697  0.0603  0.0409
 8976W        W24107   6.596   4.924   4.303  0.1008  0.1409  0.1188
 8977W        W24108  15.094   3.072  13.340 -0.4345 -0.1196  0.1388
 8978W        W24109  15.904   2.093   4.101  0.1304 -0.1595 -0.2476
 8979W        W24110   1.673  10.248   9.969 -0.1178  0.1676 -0.3007
 8980W        W24111  17.608   3.417   4.237  0.0424  0.1337  0.2296
 8981W        W24112   4.905  16.017   9.795  0.1735 -0.2144 -0.0164
 8982W        W24113   4.558   5.837   0.593  0.1804  0.0322 -0.0515
 8983W        W24114   8.238   4.021   1.287 -0.0354  0.0712 -0.0902
 8984W        W24115  17.265   6.896   1.700  0.0262 -0.1781  0.0032
 8985W        W24116  15.296   4.625   1.240 -0.1242 -0.0610  0.1596
 8986W        W24117  15.987  18.374   3.706  0.0439 -0.1174  0.2160
 8987W        W24118  16.062  10.820  11.103 -0.4068 -0.3338  0.2416
 8988W        W24119   8.799   8.609  15.033  0.5170  0.0807  0.0592
 8989W        W24120  12.064   6.304  11.029  0.0598 -0.2231 -0.1500
 8990W        W24121  14.044  10.859  13.802  0.0580  0.0402 -0.1438
 8991W        W24122  15.186   1.648  13.329 -0.1956 -0.1016  0.0726
 8992W        W24123  12.063   6.607   2.135  0.2799  0.0890  0.0129
 8993W        W24124   3.628  17.145  11.144 -0.1588  0.1270 -0.2821
 8994W        W24125  11.200   9.443  15.445  0.2079 -0.0537  0.0917
 8995W        W24126   1.431  12.757   4.023  0.1679  0.1707 -0.2222
 8996W        W24127  13.878  11.976   1.929  0.1118  0.2800  0.1760
 8997W        W24128  15.527   0.705   2.901 -0.0971 -0.0342 -0.0957
 8998W        W24129   9.370  16.855   4.334  0.1285 -0.4641  0.1147
 8999W        W24130   5.416   0.850   2.067  0.1566 -0.0863  0.0333
 9000W        W24131   3.471  13.743  10.180  0.0874 -0.0962  0.0901
 9001W        W24132   4.700   1.097   1.284 -0.0670 -0.0407  0.3665
 9002W        W24133  10.338  17.910   5.405 -0.0074 -0.0236 -0.1073
 9003W        W24134   1.086   9.366  14.191  0.1717 -0.1087  0.0672
 9004W        W24135  14.136  16.892  13.893 -0.0312 -0.0304  0.1755
 9005W        W24136  14.951  14.425   2.456  0.2051  0.0076  0.3166
 9006W        W24137   8.846   2.389   5.398 -0.4117 -0.2656 -0.0966
 9007W        W24138   9.060  11.444   3.508 -0.1076  0.2092  0.1266
 9008W        W24139  12.043  14.105   1.233  0.3738 -0.0953  0.1922
 9009W        W24140   3.655   6.252   4.087  0.1020  0.0632  0.1216
 9010W        W24141  17.070   0.456   1.227 -0.0767  0.2912  0.0837
 9011W        W24142  18.402  15.076   4.101  0.1293  0.1594  0.0810
 9012W        W24143   7.125  12.736  11.035  0.1602  0.1202 -0.1548
 9013W        W24144   7.644  16.944   2.451 -0.1372  0.2926  0.3130
 9014W        W24145  14.366   6.810   3.601  0.6571 -0.0123  0.0367
 9015W        W24146   0.890  11.902   3.018 -0.0018  0.1235  0.1637
 9016W        W24147   5.987   3.989  15.027 -0.2064  0.1303  0.2905
 9017W        W24148  16.075  16.496  13.831  0.0611  0.0861  0.3237
 9018W        W24149  13.648  16.728  13.047 -0.4361  0.1023 -0.2709
 9019W        W24150   2.549  11.344  13.677 -0.3196 -0.1051 -0.0178
 9020W        W24151   6.950   9.488  14.577  0.0660 -0.2978 -0.3946
 9021W        W24152  14.176  16.898   5.375 -0.0027  0.1240  0.4592
 9022W        W24153   1.123  18.469   3.424 -0.0759  0.4233 -0.1889
 9023W        W24154   1.394  13.736   5.551 -0.1023 -0.1635  0.2558
 9024W        W24155   6.621   2.041   3.535  0.2407  0.0269  0.0565
 9025W        W24156  11.744  16.220   4.249  0.0384 -0.2110  0.1759
 9026W        W24157  13.627   9.084   0.110  0.0625  0.3557  0.0929
 9027W        W24158  11.451  13.469  11.358  0.1483 -0.0101  0.4395
 9028W        W24159   5.786   2.668   1.772 -0.0813  0.0296  0.1656
 9029W        W24160  10.787   4.163  12.820 -0.0314 -0.2698  0.0109
 9030W        W24161   1.238  17.711  15.181  0.1880  0.2887  0.1804
 9031W        W24162  10.853  12.908  15.000  0.0638 -0.1917 -0.0142
 9032W        W24163  12.352   9.241  15.800  0.0654  0.0758  0.1597
 9033W        W24164   2.537  16.311  14.091 -0.0173 -0.1141 -0.1110
 9034W        W24165  13.303   9.012  14.589 -0.3272 -0.2404 -0.1748
 9035W        W24166   8.333  13.916  15.730  0.1483  0.0911  0.0517
 9036W        W24167   4.804  13.099   3.910 -0.0598 -0.0876  0.0598
 9037W        W24168   0.862  14.794   3.264  0.3351  0.1141 -0.0426
 9038W        W24169  16.036  16.328  13.379  0.3464  0.3343  0.4535
 9039W        W24170  16.343   2.651  12.002  0.0682 -0.0054 -0.2776
 9040W        W24171  17.421  10.662  13.784 -0.0671  0.2663 -0.0770
 9041W        W24172  16.301  11.500   3.243 -0.1866  0.1271  0.3539
 9042W        W24173   3.946  11.730  11.146 -0.2025 -0.3726 -0.2557
 9043W        W24174   8.644  11.168  15.170  0.1243 -0.1253 -0.1540
 9044W        W24175   1.119   2.863   4.187  0.2560  0.0819 -0.0656
 9045W        W24176   3.825  15.209  11.816  0.1508  0.1201  0.4305
 9046W        W24177   1.692   1.744   1.756  0.1057  0.0283  0.0605
 9047W        W24178   2.447   2.610  11.435 -0.0218  0.0819  0.3829
 9048W        W24179  14.675  17.202  11.982 -0.0994  0.2723 -0.0483
 9049W        W24180   8.304   6.150  13.536 -0.2760 -0.2354  0.0997
 9050W        W24181  12.636   3.169   1.101 -0.2714 -0.2375  0.0288
 9051W        W24182   6.496  15.991   1.631  0.2214 -0.0062 -0.2116
 9052W        W24183   6.296  11.179  12.297  0.0923  0.3199 -0.1782
 9053W        W24184   2.363   0.915   4.584 -0.1891 -0.0057  0.0701
 9054W        W24185  10.421  17.628   1.747  0.2313  0.0588 -0.0323
 9055W        W24186   7.997  17.864   1.789 -0.0929  0.0339  0.0255
 9056W        W24187  11.850  10.520   3.818 -0.1278 -0.2187  0.0815
 9057W        W24188   2.007   4.760  12.908 -0.0159  0.4022 -0.3783
 9058W        W24189   8.745   7.295   0.071 -0.0108 -0.0780  0.2465
 9059W        W24190  13.406   0.130  15.039 -0.3487 -0.2136  0.1346
 9060W        W24191   9.280  17.933  11.226  0.1969  0.0233  0.4538
 9061W        W24192   8.450  16.993   1.258 -0.1417 -0.1568 -0.4223
 9062W        W24193   7.042  13.598   1.500  0.3510 -0.1867 -0.0912
 9063W        W24194   5.380   6.512  13.629  0.0951 -0.1439  0.0952
 9064W        W24195  11.087   2.364  11.648  0.0293  0.4296  0.1687
 9065W        W24196   6.349   1.853  14.603 -0.0069  0.1332 -0.1237
 9066W        W24197  11.389  11.178  12.600 -0.0503  0.2411  0.1414
 9067W        W24198  15.895   3.446  13.946  0.0687  0.3328  0.0398
 9068W        W24199  14.334  18.120   3.099 -0.3184 -0.4569 -0.0093
 9069W        W24200   9.549   8.721  14.475 -0.1349  0.1686 -0.1114
 9070W        W24201  14.673   8.677  15.199  0.1657  0.1617 -0.2926
 9071W        W24202   5.203   8.669   5.132 -0.0933 -0.0352  0.0343
 9072W        W24203   2.851   9.715   1.750  0.2320  0.0031 -0.1825
 9073W        W24204  14.226   5.777   4.882  0.0700 -0.1342  0.2264
 9074W        W24205   4.401   9.731   2.733  0.3041  0.1133 -0.0846
 9075W        W24206   4.301   3.049  14.458 -0.0304 -0.0439  0.3924
 9076W        W24207  16.559  13.215  13.148  0.0465  0.1932  0.0768
 9077W        W24208  12.133   4.964   2.399 -0.1378  0.3454 -0.2024
 9078W        W24209  14.426   9.299   0.252 -0.2032  0.2127  0.0526
 9079W        W24210   2.868  10.395  12.507  0.3775 -0.1135 -0.0423
 9080W        W24211  11.691  13.691   0.370  0.2107  0.1168 -0.1643
 9081W        W24212  11.278  10.620   2.889  0.0167 -0.1946 -0.1708
 9082W        W24213   8.822  10.908  13.734 -0.2497  0.3296 -0.1131
 9083W        W24214   8.730   8.125   0.522  0.1825  0.0460  0.1414
 9084W        W24215   2.915  13.346   4.501 -0.1610 -0.3437 -0.1313
 9085W        W24216  17.685  13.634  14.221 -0.0323  0.0957  0.0834
 9086W        W24217   6.366  17.260   2.122 -0.2201  0.1767  0.1408
 9087W        W24218   6.841   4.048  11.543 -0.1489 -0.4548 -0.2786
 9088W        W24219  13.790   3.609  12.039 -0.0870  0.0421  0.1632
 9089W        W24220  18.240   9.445   4.014 -0.0416 -0.2202 -0.0102
 9090W        W24221  16.372   2.126  14.492 -0.2182  0.2457  0.0760
 9091W        W24222  17.192  10.297   4.941 -0.3019  0.0838 -0.0983
 9092W        W24223  16.734  10.869  13.949  0.0858  0.0657  0.0738
 9093W        W24224   0.059   0.268  12.269  0.2560  0.2046 -0.0170
 9094W        W24225  15.074   4.837   5.590  0.1043  0.0593  0.0829
 9095W        W24226   0.562  10.027  13.057 -0.1649  0.2019 -0.0148
 9096W        W24227   1.886  15.461   2.140 -0.0256 -0.3298  0.2808
 9097W        W24228  15.457   0.460   4.358  0.1662  0.2060  0.0502
 9098W        W24229   7.598   5.698   5.757 -0.0532 -0.2096  0.0799
 9099W        W24230   0.281  16.577   1.460  0.1131  0.1602 -0.1146
 9100W        W24231  13.687  11.469  14.258 -0.1848 -0.2426 -0.1765
 9101W        W24232   0.893  14.191  13.145  0.0381 -0.0641  0.2828
 9102W        W24233   8.255  17.134  12.274 -0.2036 -0.1350 -0.3210
 9103W        W24234   9.127  11.291  13.875 -0.1928 -0.0406  0.2365
 9104W        W24235  15.710   9.421  12.882 -0.1101  0.0149 -0.1275
 9105W        W24236   1.197  11.397  12.243 -0.0554 -0.0028  0.2904
 9106W        W24237   0.767   2.452  14.834  0.0243  0.1191  0.0537
 9107W        W24238  14.936   6.178  11.922  0.0113  0.0319 -0.0955
 9108W        W24239   2.344  18.214  12.734  0.2708 -0.0657  0.3570
 9109W        W24240  16.858   2.218  14.252  0.0373 -0.2293 -0.1914
 9110W        W24241  10.876  15.280  15.870  0.1140 -0.2801  0.0923
 9111W        W24242  15.409   8.315   5.090 -0.1480  0.0948  0.0839
 9112W        W24243   4.773  16.495   1.210 -0.2534 -0.2110  0.1566
 9113W        W24244  17.889  10.898   5.305 -0.2521  0.2646 -0.0261
 9114W        W24245  11.738   8.584   1.137 -0.0870  0.1096 -0.0948
 9115W        W24246  12.166   8.979   3.799 -0.0771 -0.0039 -0.1079
 9116W        W24247   8.889   6.560  15.786  0.2659  0.2344  0.1246
 9117W        W24248  10.255   0.799   0.460  0.0816  0.0220  0.1574
 9118W        W24249  16.864  18.014  11.886  0.1803  0.1688  0.3387
 9119W        W24250   7.158   7.230  10.876 -0.1705 -0.1643  0.3103
 9120W        W24251  16.781  12.688   0.824  0.0142  0.0470  0.0688
 9121W        W24252  14.653   6.072  15.146 -0.1215  0.0973 -0.0549
 9122W        W24253  12.770   2.294   5.487 -0.1095 -0.2355  0.0112
 9123W        W24254   7.448   4.330  12.153  0.0270 -0.0448  0.1392
 9124W        W24255   7.323  12.910  13.356 -0.1418  0.0904 -0.1489
 9125W        W24256   3.042  17.576  15.882  0.1895  0.2237  0.3143
 9126W        W24257  14.809   7.460   3.009  0.3382 -0.0854 -0.0017
 9127W        W24258  18.444   0.655   2.270  0.1573  0.3291 -0.1446
 9128W        W24259   0.708  13.784   1.684  0.0131  0.0037  0.1113
 9129W        W24260   7.093   7.881  15.833 -0.1957  0.0758  0.3017
 9130W        W24261   0.406  18.259   4.255 -0.0755 -0.0156 -0.4140
 9131W        W24262  14.049  10.974  12.795  0.2401  0.0046  0.0325
 9132W        W24263   7.895  14.466   3.339 -0.0352  0.1785 -0.2362
 9133W        W24264   0.334  13.674   4.100 -0.1502 -0.2476  0.2799
 9134W        W24265  17.992  11.380   1.159 -0.0563 -0.4384  0.1912
 9135W        W24266  12.845  17.314   0.660 -0.1657  0.2385  0.0598
 9136W        W24267   5.237   1.933   4.157 -0.1128 -0.0669  0.1752
 9137W        W24268   1.932  18.139  14.121  0.1495  0.3457 -0.0280
 9138W        W24269   8.192  17.991   2.544 -0.2799  0.0838 -0.4444
 9139W        W24270   2.200  11.083  12.083 -0.1559 -0.1685 -0.1067
 9140W        W24271   8.820   3.699  15.703 -0.2146 -0.2244  0.0884
 9141W        W24272   9.496  12.841  11.921  0.3398 -0.1074  0.0484
 9142W        W24273  12.792  15.158  11.339 -0.0892  0.2857 -0.1058
 9143W        W24274  10.485  11.471   3.738  0.0339 -0.1733  0.1438
 9144W        W24275  10.603   9.013  11.013  0.2461  0.0309 -0.1664
 9145W        W24276  12.211   8.023   3.286  0.1435 -0.0710  0.1271
 9146W        W24277   0.568   1.665  11.884  0.4440  0.1229  0.0498
 9147W        W24278  17.476  12.042   1.541 -0.2959 -0.1917 -0.2862
 9148W        W24279   9.240  16.066  11.948  0.0239 -0.1150 -0.3364
 9149W        W24280   9.622   0.040   0.298 -0.1773  0.2764 -0.0838
 9150W        W24281  17.892   4.425   4.807  0.0129 -0.0588 -0.1808
 9151W        W24282  16.040   9.095   2.907  0.0782 -0.3944  0.1450
 9152W        W24283  12.394  12.517   2.914 -0.2696 -0.2004 -0.1295
 9153W        W24284  18.307   8.419   1.880  0.1606  0.0112 -0.2708
 9154W        W24285  10.206  14.933   1.652  0.4740 -0.1762  0.0973
 9155W        W24286  10.068   9.978   1.261 -0.0419 -0.1245  0.0762
 9156W        W24287   3.999   8.282   1.037  0.0424  0.2935  0.0078
 9157W        W24288   0.138  11.903  12.646 -0.0907  0.2626 -0.1479
 9158W        W24289  17.278  16.035   4.683 -0.1452 -0.1042 -0.1703
 9159W        W24290   3.872  16.992  12.682  0.2076 -0.0293  0.2589
 9160W        W24291  16.465   2.471  15.246  0.0059  0.0468  0.1454
 9161W        W24292   6.169  16.536   5.711  0.1451 -0.0375 -0.3937
 9162W        W24293   2.697   1.341  14.808  0.1720 -0.3651 -0.0480
 9163W        W24294   8.051   3.172   6.258 -0.1902 -0.1146  0.3306
 9164W        W24295   6.673  14.432   5.706 -0.0367  0.0116 -0.3461
 9165W        W24296  11.932  17.554  11.932  0.3397  0.1505 -0.0357
 9166W        W24297  16.584   3.034  14.587 -0.0907 -0.2210 -0.1690
 9167W        W24298   0.382   7.457  15.813 -0.1630 -0.1876 -0.2862
 9168W        W24299   8.056  10.796  15.012 -0.1102 -0.2123  0.1780
 9169W        W24300   3.207   5.342   5.310  0.1580 -0.0184 -0.3924
 9170W        W24301   3.070  18.029   2.453  0.1067 -0.1589 -0.0048
 9171W        W24302   3.676   9.955  12.311  0.0215  0.0014  0.0695
 9172W        W24303   2.019   0.500   1.853 -0.0617  0.1011  0.1872
 9173W        W24304  18.183   1.650   0.809  0.0280  0.1565  0.1357
 9174W        W24305   9.883   0.950  12.628  0.0043  0.0307  0.0840
 9175W        W24306   0.913   4.682  14.238 -0.2263  0.2009  0.0465
 9176W        W24307  14.096  14.537  14.546  0.2088 -0.2222  0.0834
 9177W        W24308   9.139  10.889   2.781  0.3591  0.2262 -0.1395
 9178W        W24309   4.964  14.035  10.766 -0.1018 -0.2246 -0.0128
 9179W        W24310   8.508  15.387   2.377 -0.2003  0.1838 -0.1208
 9180W        W24311  13.634   3.570   4.709 -0.0777  0.1395 -0.2781
 9181W        W24312   1.419   1.093  12.189 -0.0101 -0.2873  0.2549
 9182W        W24313  15.377  10.064   2.372 -0.3351 -0.1375  0.1260
 9183W        W24314  17.249  11.814   5.231 -0.2131 -0.2632 -0.1052
 9184W        W24315   9.383  12.036   1.729  0.1109  0.0285 -0.1933
 9185W        W24316  10.255  17.249   1.442 -0.2352  0.0774 -0.0655
 9186W        W24317  11.723  12.077  12.118  0.0228 -0.0455  0.2542
 9187W        W24318   7.235  11.129   3.345 -0.1949  0.1648  0.1115
 9188W        W24319  12.780  10.275  15.810 -0.0774  0.2426  0.0129
 9189W        W24320  16.763   0.560  10.634 -0.1155 -0.0060  0.1942
 9190W        W24321   9.949   8.057  12.825 -0.1189 -0.1912 -0.1568
 9191W        W24322  13.408   6.660   5.238  0.1059 -0.1499 -0.7067
 9192W        W24323  14.836   4.473  11.599 -0.0613  0.1176  0.3650
 9193W        W24324   0.715   2.863   2.939  0.4354  0.0427 -0.2963
 9194W        W24325   2.684  16.183  11.248 -0.1944  0.0691 -0.3457
 9195W        W24326  12.553  10.963   2.649  0.2932  0.1915 -0.1577
 9196W        W24327  15.622  12.650   4.192 -0.3254  0.0358  0.0051
 9197W        W24328   5.557  10.235  15.421 -0.0673  0.1102 -0.3420
 9198W        W24329   1.977   5.933   0.124  0.0595 -0.0707  0.0845
 9199W        W24330  17.604  17.518  15.402  0.0823  0.0520  0.2518
 9200W        W24331  11.770   3.005   0.347  0.0678  0.0005 -0.0378
 9201W        W24332  15.383  10.030   4.407  0.0385 -0.0357 -0.0443
 9202W        W24333  11.533  17.287  14.051  0.1171  0.3518  0.1863
 9203W        W24334   4.044  11.224  11.018  0.0777 -0.0020  0.1994
 9204W        W24335  10.048   2.841   2.333 -0.0619 -0.0982  0.0876
 9205W        W24336   0.235  16.602   2.912 -0.1225  0.0311  0.2087
 9206W        W24337  15.050  14.349  12.131  0.2183 -0.0366  0.2682
 9207W        W24338  12.328   0.313  15.116  0.3269  0.2687  0.5055
 9208W        W24339   0.282  14.908   1.241  0.1424  0.0417 -0.3294
 9209W        W24340   2.104  11.417  14.949 -0.0685  0.3955 -0.1724
 9210W        W24341  15.294   1.573   3.846  0.1334  0.2151  0.0142
 9211W        W24342   8.787   2.160   4.481  0.2306 -0.0671 -0.1227
 9212W        W24343  10.227   1.404   0.125 -0.4402 -0.1788  0.0232
 9213W        W24344  10.415   9.284   2.333  0.1721 -0.2044  0.0784
 9214W        W24345  13.905  17.292   2.447 -0.1703 -0.0221  0.1519
 9215W        W24346  10.767  14.596  11.428 -0.1190  0.3684 -0.0027
 9216W        W24347   4.324  11.317  15.382  0.0470 -0.0368 -0.1174
 9217W        W24348  17.774   5.482   1.435  0.1373 -0.3230  0.0835
 9218W        W24349   6.657   6.033   3.081 -0.1013 -0.1912  0.0595
 9219W        W24350  12.595   6.024   1.175  0.3258  0.1363 -0.0363
 9220W        W24351  16.428   9.890  13.977 -0.0703 -0.2331  0.1292
 9221W        W24352  10.841  11.871   2.267 -0.1706 -0.0513 -0.1038
 9222W        W24353   2.219  18.415   4.549 -0.0012  0.0413  0.2699
 9223W        W24354   9.938   0.388  12.910 -0.0562 -0.0457  0.6414
 9224W        W24355   2.961   7.819   2.147 -0.0924 -0.1968 -0.0645
 9225W        W24356   4.029   0.586   1.143  0.0936  0.0497  0.1068
 9226W        W24357  13.418   0.946   9.934 -0.0071  0.0619  0.2488
 9227W        W24358  18.057   2.942   4.558  0.2212 -0.4172 -0.2419
 9228W        W24359  15.915  15.476   4.700 -0.0973  0.0320 -0.5368
 9229W        W24360  16.886  14.321   3.347 -0.1766 -0.1661  0.3574
 9230W        W24361   4.353   8.069  15.335  0.0395 -0.2434 -0.2423
 9231W        W24362   4.231  13.960  14.721  0.0533  0.1795 -0.2935
 9232W        W24363  10.278   2.429  15.786  0.0565 -0.1821  0.1879
 9233W        W24364   3.594  10.762   1.514 -0.0556 -0.5309 -0.0871
 9234W        W24365   0.014   0.276  14.285 -0.0014  0.0118  0.0648
 9235W        W24366   8.005  10.247  10.975 -0.2889 -0.0444 -0.2645
 9236W        W24367  14.274   9.130  12.379  0.0234  0.0719 -0.0448
 9237W        W24368  12.263  11.745   5.919 -0.1301  0.0355  0.5094
 9238W        W24369   3.126  17.117   0.746  0.0230  0.0769  0.0553
 9239W        W24370   8.971  12.830  12.076 -0.2056 -0.1610  0.2594
 9240W        W24371   8.924   4.014   2.011  0.1230 -0.0830 -0.0303
 9241W        W24372  16.185   4.770   1.691 -0.1637 -0.3143  0.3471
 9242W        W24373  16.195  11.414  14.655 -0.0066  0.1610  0.2995
 9243W        W24374   9.745   5.572  13.921 -0.3056 -0.0646  0.2861
 9244W        W24375  17.459   0.856   2.089 -0.1346  0.1538 -0.2400
 9245W        W24376   8.534  16.478   2.720  0.3863 -0.2907  0.1708
 9246W        W24377  16.873   6.879   0.014 -0.0747 -0.2199  0.0584
 9247W        W24378  10.731  17.898  13.450 -0.0917  0.4616 -0.0506
 9248W        W24379  11.294   5.178  15.381 -0.0376  0.0683  0.1790
 9249W        W24380   9.073  10.973   3.719  0.0026  0.1548 -0.1958
 9250W        W24381   4.467  14.969  14.289  0.2935  0.0325  0.0552
 9251W        W24382   5.076  17.083  10.832 -0.0034  0.0302 -0.2392
 9252W        W24383   8.931  15.560  14.149  0.1543 -0.4453  0.1078
 9253W        W24384   4.563  12.927   0.032 -0.2649  0.1341 -0.2031
 9254W        W24385   1.441  15.856  11.042 -0.4012  0.0189 -0.2152
 9255W        W24386   8.071   0.203   2.824 -0.1167  0.0391 -0.1672
 9256W        W24387  13.811  10.126  14.082 -0.1526 -0.0972 -0.2215
 9257W        W24388   9.132   7.124   5.588  0.1033  0.1618  0.0138
 9258W        W24389   3.885   2.672   1.515  0.1894  0.3005 -0.0900
 9259W        W24390   9.185   8.962   1.632  0.3852 -0.1140  0.2622
 9260W        W24391   7.129   1.295  11.391 -0.1239 -0.0558 -0.1573
 9261W        W24392   4.232  11.953   0.949  0.0018  0.4803 -0.0286
 9262W        W24393  18.170  17.878   2.163 -0.1336 -0.1267  0.1898
 9263W        W24394   9.407   5.327  11.093  0.0095  0.0401 -0.2549
 9264W        W24395   3.063  12.655   2.711  0.1458 -0.0418  0.4036
 9265W        W24396  15.482  12.894   0.552  0.1848 -0.0140 -0.0709
 9266W        W24397  12.539  10.337   4.348 -0.2541 -0.0244  0.1828
 9267W        W24398   1.270   5.851  12.726 -0.1364 -0.0771  0.0550
 9268W        W24399  12.443  10.096   3.923  0.4045  0.0171 -0.0205
 9269W        W24400   1.044   0.563  14.443 -0.2082  0.5614 -0.0463
 9270W        W24401   4.082   9.650  12.013 -0.0532  0.0477 -0.1623
 9271W        W24402   5.881  10.598   1.015  0.4718  0.1488 -0.2848
 9272W        W24403  14.682  13.927  15.827  0.2828 -0.0903 -0.2778
 9273W        W24404  17.356   2.890  12.803 -0.0615 -0.1134  0.2122
 9274W        W24405  10.047  15.061   0.054 -0.0935  0.1800 -0.2343
 9275W        W24406  18.194   9.615   2.774  0.0406 -0.0842 -0.1739
 9276W        W24407   1.906  17.607   4.846 -0.3664  0.2853 -0.0565
 9277W        W24408   9.681   5.747  14.885  0.0323 -0.1222 -0.0711
 9278W        W24409   7.403  16.145  11.693 -0.2890 -0.2132 -0.0110
 9279W        W24410  15.093   1.054  11.330 -0.0674  0.1537 -0.2689
 9280W        W24411   3.819   8.362  11.357 -0.1709 -0.4081  0.0932
 9281W        W24412   3.683   0.531   0.209  0.1675 -0.4672 -0.1335
 9282W        W24413  17.930   1.996  15.084 -0.1492  0.0584  0.1406
 9283W        W24414  16.928  12.195   5.370 -0.0328 -0.0268 -0.0889
 9284W        W24415  17.052  14.252  14.650 -0.1973  0.1593  0.1268
 9285W        W24416  15.016   3.905   4.662  0.1088 -0.2861  0.3822
 9286W        W24417   0.513  10.355  12.309 -0.0530 -0.0089  0.1927
 9287W        W24418  18.261  16.686  10.382 -0.2519  0.2094  0.0585
 9288W        W24419  13.280  14.109   0.119 -0.2337  0.1724  0.2763
 9289W        W24420   3.586  11.954  13.472  0.3119  0.0594  0.3952
 9290W        W24421   4.286  17.660  11.714 -0.3042 -0.0451  0.4551
 9291W        W24422   0.080  15.323  13.608  0.1222 -0.0274  0.0243
 9292W        W24423   9.227   2.892  12.971 -0.3466 -0.0896 -0.1830
 9293W        W24424  11.066  14.362   0.327 -0.1629 -0.1282  0.1195
 9294W        W24425   7.373   6.294  15.716  0.1972  0.0151  0.3742
 9295W        W24426   0.381  14.714   0.711 -0.1125 -0.1752 -0.1285
 9296W        W24427   5.546  12.936  14.941 -0.1949  0.0520 -0.0019
 9297W        W24428   3.599  10.276  11.950 -0.3250 -0.1219 -0.1964
 9298W        W24429  13.246   9.591  14.671 -0.3848 -0.0344 -0.0279
 9299W        W24430  16.772  14.393   2.682  0.2567  0.1004  0.2628
 9300W        W24431  16.374   1.039  11.522  0.0756  0.3303 -0.3512
 9301W        W24432  14.201   7.356  15.782 -0.1315 -0.3561 -0.0537
 9302W        W24433  10.988   9.361  12.224  0.1546 -0.1647  0.2271
 9303W        W24434   2.952   1.852  12.570 -0.0597  0.0344  0.0775
 9304W        W24435  14.937   4.912   1.704 -0.2181  0.1971 -0.2945
 9305W        W24436   9.046   0.683  11.210  0.2642  0.2882  0.2210
 9306W        W24437   7.348  17.393   5.061  0.1089  0.3122  0.1330
 9307W        W24438   2.951  13.979  12.305  0.0969  0.0756 -0.0918
 9308W        W24439  16.278  14.191  15.061 -0.0346  0.1662  0.0284
 9309W        W24440  18.483   5.839   2.970 -0.2292 -0.1365  0.0366
 9310W        W24441   7.753   8.764   2.734  0.0750  0.2395  0.0840
 9311W        W24442  11.943  15.271   1.829 -0.1889 -0.1393  0.1664
 9312W        W24443   0.744  14.736  11.992 -0.3358 -0.2053 -0.3163
 9313W        W24444   8.678  16.155   2.353  0.2108 -0.0473  0.2755
 9314W        W24445   9.264  16.582  12.628  0.1420 -0.1142 -0.0880
 9315W        W24446   3.030  16.250  11.668  0.1097 -0.5486  0.0462
 9316W        W24447   1.233   9.496   4.070 -0.1779 -0.1319 -0.1889
 9317W        W24448  17.916   9.418  12.419 -0.2153  0.1750  0.1033
 9318W        W24449  17.587  17.086  14.249 -0.1846  0.0904 -0.1118
 9319W        W24450   1.923  17.192  14.682 -0.0530 -0.0379  0.1065
 9320W        W24451  11.689  13.054  13.943 -0.0465  0.3238 -0.1312
 9321W        W24452  11.078   9.662  15.866  0.0290  0.0195  0.1436
 9322W        W24453   3.137  17.966  14.339 -0.1781 -0.3510 -0.0941
 9323W        W24454  17.210   1.993  12.880  0.2105 -0.0820 -0.1236
 9324W        W24455   1.866  17.379  13.212  0.0948 -0.0939 -0.1358
 9325W        W24456  11.078  18.342   9.473  0.1807  0.3191  0.2112
 9326W        W24457   9.886  17.713  14.586  0.0613 -0.0518  0.0100
 9327W        W24458   7.385   0.769   2.177 -0.0643  0.0996 -0.0490
 9328W        W24459   2.204  10.604  10.201 -0.2449 -0.0793  0.2755
 9329W        W24460   4.641  17.790  13.270 -0.1631  0.0556  0.2920
 9330W        W24461  14.878   8.099   2.963 -0.0124 -0.5578 -0.0414
 9331W        W24462   8.477  11.953   1.120 -0.2711  0.0280 -0.0424
 9332W        W24463  13.744   4.031   0.182 -0.0247  0.4184  0.0732
 9333W        W24464  14.283  18.499  11.600 -0.2178  0.3771 -0.0604
 9334W        W24465  16.834   3.182  15.582 -0.2664 -0.2760  0.0993
 9335W        W24466   6.828   1.023   3.244 -0.1973 -0.1755  0.0067
 9336W        W24467  16.039   2.170  15.130  0.1194 -0.1578  0.1849
 9337W        W24468   6.757   2.993  13.983  0.0235 -0.1370 -0.1028
 9338W        W24469  18.316   4.713  14.228  0.1722  0.1846 -0.2291
 9339W        W24470   6.139   6.530  15.664  0.1725  0.2057  0.1104
 9340W        W24471  17.553  11.978  13.954  0.1669  0.0537 -0.2515
 9341W        W24472   0.954  17.099   1.933 -0.0701 -0.1803 -0.1726
 9342W        W24473  14.784  12.722  15.623 -0.3943 -0.1617  0.1952
 9343W        W24474   6.689  16.964   3.399  0.1985 -0.0778 -0.0136
 9344W        W24475   0.397  13.470   5.211  0.0220  0.1032 -0.0414
 9345W        W24476  14.498   9.570  15.337  0.1004 -0.2573 -0.3041
 9346W        W24477  12.142  11.804  15.405 -0.3958  0.2930 -0.0856
 9347W        W24478   0.360   2.413   4.185 -0.1574  0.2570  0.1514
 9348W        W24479  10.586   2.915  15.357 -0.0961 -0.5310 -0.1214
 9349W        W24480   8.087   8.288  14.294 -0.0637 -0.0420  0.1845
 9350W        W24481   8.771  13.770   4.331  0.3391 -0.0354 -0.0774
 9351W        W24482   2.575  13.655   0.019 -0.2048 -0.2030 -0.1726
 9352W        W24483   4.178   5.343  12.485 -0.0038  0.0709  0.0407
 9353W        W24484  16.399   6.129  13.924  0.0241 -0.2007  0.0996
 9354W        W24485  12.521   7.392   1.657  0.0125 -0.0816  0.1777
 9355W        W24486  17.822   2.716   2.307 -0.0082 -0.1291  0.1951
 9356W        W24487  12.948  16.102   5.074 -0.0981 -0.0534  0.2044
 9357W        W24488  12.466   1.475   3.456  0.0328 -0.1610 -0.1488
 9358W        W24489  16.771  11.252   3.390 -0.2282  0.1682  0.1674
 9359W        W24490   0.342   6.022  12.931 -0.2391 -0.1428 -0.2487
 9360W        W24491   7.874  15.929  14.641 -0.0534  0.2574  0.3560
 9361W        W24492   4.721  10.047   4.954  0.1069  0.0278 -0.2401
 9362W        W24493   4.785  18.217   1.896  0.1665 -0.0778  0.3059
 9363W        W24494   4.524   2.454   3.218 -0.1206  0.1740 -0.0416
 9364W        W24495   4.598   8.307  14.961 -0.1664  0.0369 -0.1345
 9365W        W24496  16.529  15.554  12.345 -0.4124  0.1540  0.0466
 9366W        W24497   6.276  15.923  11.625  0.0286  0.0397  0.0546
 9367W        W24498   1.249   3.370   4.903 -0.3220  0.4306  0.1350
 9368W        W24499  15.921  13.924  13.023 -0.2861  0.0291 -0.1890
 9369W        W24500  13.821  12.030   5.282 -0.1265  0.0657  0.1958
 9370W        W24501   2.939  17.218   0.310  0.0094  0.0190  0.5081
 9371W        W24502   7.631  16.309  14.855  0.0177 -0.1017 -0.0889
 9372W        W24503  17.216   7.239   1.327 -0.0779 -0.1877 -0.2106
 9373W        W24504   4.154  11.106  13.591  0.2147 -0.0660 -0.1158
 9374W        W24505   5.346   2.113  13.627  0.1006  0.0827 -0.1181
 9375W        W24506   0.754  15.728   1.814 -0.0515  0.0061  0.0720
 9376W        W24507   2.975  10.889  12.356  0.2307  0.1530  0.0338
 9377W        W24508  17.710  18.479   0.189  0.0590 -0.1266 -0.2957
 9378W        W24509  16.231   3.802  15.620 -0.0328  0.0769  0.1216
 9379W        W24510   8.434   2.495   5.157 -0.2266  0.0559 -0.2258
 9380W        W24511   1.030   2.906  14.936  0.0331 -0.1992  0.1100
 9381W        W24512  12.830  10.123  11.646 -0.0346 -0.0493  0.2023
 9382W        W24513   0.851  13.665  13.932  0.0563  0.0288  0.1452
 9383W        W24514   4.380   8.335  11.774  0.0822 -0.2600 -0.2379
 9384W        W24515   1.695   0.894   3.951  0.1120 -0.2275  0.2628
 9385W        W24516  16.852   8.879   4.534  0.1814 -0.1396 -0.0970
 9386W        W24517  15.427   2.808  15.786 -0.0385  0.1096  0.1210
 9387W        W24518   1.054   8.201  12.402  0.3505  0.2416 -0.1711
 9388W        W24519  14.661   8.290   3.427  0.1896 -0.4063  0.0168
 9389W        W24520  13.767  10.968   3.907 -0.3117  0.2264 -0.0649
 9390W        W24521  15.791  10.866  14.046  0.3594  0.0113  0.1557
 9391W        W24522   2.431   4.247   3.326  0.0622 -0.2807  0.0257
 9392W        W24523  10.054  18.374   0.472  0.0290 -0.0999  0.0368
 9393W        W24524  13.101  13.142  11.333  0.2196  0.2653  0.1540
 9394W        W24525  14.505  10.223   4.376 -0.5001  0.1065  0.0326
 9395W        W24526   5.675   6.720  13.928 -0.2655 -0.1506  0.2272
 9396W        W24527  10.359   6.463  11.390  0.1739 -0.1803 -0.1873
 9397W        W24528  10.968  10.375  12.672  0.0781  0.1074 -0.2300
 9398W        W24529   0.403   1.914   3.284 -0.0190 -0.2037  0.1422
 9399W        W24530  14.688   3.007  15.893  0.1577  0.1272  0.1172
 9400W        W24531   0.082  14.061   2.363 -0.1532 -0.5026  0.1958
 9401W        W24532  17.643   7.872   5.426  0.0136  0.1365  0.0022
 9402W        W24533   5.482  10.381   2.756 -0.2045  0.1498  0.0661
 9403W        W24534   9.915  14.827   4.754 -0.2258 -0.2949 -0.1528
 9404W        W24535  16.714  12.405  13.061  0.3781  0.1890  0.0710
 9405W        W24536   7.747   3.968  11.021  0.5380  0.0811 -0.0258
 9406W        W24537  11.048  13.221   0.070 -0.0424 -0.1860  0.0715
 9407W        W24538  15.203   9.636  11.405 -0.0898  0.1431  0.0664
 9408W        W24539   4.708  13.100  14.480 -0.0210  0.1605  0.0366
 9409W        W24540   2.380   8.859   3.746 -0.3422 -0.1511 -0.0473
 9410W        W24541   7.961   1.681  13.915  0.1739  0.4056 -0.0555
 9411W        W24542  15.765   8.934  11.796  0.0005 -0.1414  0.0019
 9412W        W24543  18.161   4.983   3.678  0.1577 -0.1191  0.1109
 9413W        W24544   2.089  12.901  12.334  0.0191  0.0891  0.0767
 9414W        W24545   9.439   4.514  10.950 -0.2602  0.2133 -0.0115
 9415W        W24546   4.529   4.682   0.983  0.2126 -0.2120  0.1198
 9416W        W24547   1.821   6.629  14.957  0.0493 -0.2606  0.2197
 9417W        W24548  16.166   0.728   4.238 -0.0564 -0.1708  0.1185
 9418W        W24549   0.671   1.180  11.708  0.1154  0.1328 -0.0188
 9419W        W24550  16.974   8.433   0.367  0.2023  0.0982 -0.1788
 9420W        W24551  17.213   7.954  13.735  0.2398 -0.1482 -0.0096
 9421W        W24552   8.257   1.704   1.172  0.1479  0.0133  0.0303
 9422W        W24553   1.128  16.899   0.499  0.0825  0.4972 -0.2574
 9423W        W24554   4.781   4.837  11.453 -0.0499  0.2075 -0.1791
 9424W        W24555   8.066  17.907   4.835  0.4298 -0.0742  0.0739
 9425W        W24556   5.676   6.277   1.556  0.0643  0.1851  0.2321
 9426W        W24557  13.776  17.768   3.511  0.0917 -0.2792  0.5200
 9427W        W24558  11.072  12.282   3.047 -0.3225 -0.1747  0.1572
 9428W        W24559  14.112  16.864   3.134 -0.1965 -0.3850  0.1895
 9429W        W24560   3.794   3.327   2.283 -0.0884 -0.0549  0.2197
 9430W        W24561   9.388  14.443  14.273 -0.1430  0.1127 -0.0303
 9431W        W24562   0.470  17.701  14.275  0.1506  0.0788  0.2852
 9432W        W24563   1.309  15.574  15.576  0.0366 -0.2231 -0.2831
 9433W        W24564  16.025  17.019   2.562  0.0705  0.2869  0.3768
 9434W        W24565   0.985  16.983   4.557 -0.0973 -0.1611 -0.0510
 9435W        W24566   3.150  16.249   0.358  0.0552 -0.0670  0.0860
 9436W        W24567   8.617   6.256  12.229 -0.1319  0.1102  0.0528
 9437W        W24568  17.562   0.764   1.161 -0.0958  0.1974  0.0370
 9438W        W24569   1.075   1.403   0.894  0.4190  0.0528 -0.0193
 9439W        W24570   8.113   5.843  11.506  0.0981 -0.1600 -0.2633
 9440W        W24571   5.044   9.225  13.965  0.1929 -0.1216  0.3615
 9441W        W24572   7.234   4.683  13.331 -0.2341  0.0067 -0.0152
 9442W        W24573  17.442  16.823   5.324 -0.1854  0.1242 -0.0095
 9443W        W24574  14.509  13.563  15.395  0.3030  0.0606  0.1432
 9444W        W24575   0.052   0.281  11.113 -0.1735  0.0400 -0.1800
 9445W        W24576   8.547  17.244  11.723  0.1415  0.0263  0.1812
 9446W        W24577   1.177  17.056   1.518  0.1794 -0.1838  0.2232
 9447W        W24578  17.212   4.976  14.836  0.0026  0.1183 -0.2157
 9448W        W24579  12.028  17.229   0.409  0.2639 -0.0031 -0.1381
 9449W        W24580   5.572   5.198  12.624  0.0378 -0.2232 -0.0900
 9450W        W24581   5.192   3.726  13.175 -0.0758 -0.0488 -0.0629
 9451W        W24582   9.629  14.816  14.461  0.0093 -0.1857  0.0070
 9452W        W24583   5.074  10.230  15.751 -0.1001  0.0488 -0.2925
 9453W        W24584   9.890   5.213   2.057 -0.0312 -0.2194 -0.1726
 9454W        W24585  13.655  12.564  12.244  0.1600  0.3019 -0.2601
 9455W        W24586   1.626  13.431   1.040 -0.1185 -0.2365 -0.1471
 9456W        W24587  11.885  14.968   1.430 -0.1223 -0.0198 -0.2807
 9457W        W24588   5.353   8.985  11.176 -0.3333  0.1249 -0.0676
 9458W        W24589   7.307   9.080  11.250 -0.0696 -0.2431 -0.0038
 9459W        W24590  13.539  15.628   0.756  0.0921 -0.0090  0.0203
 9460W        W24591   1.140   4.273  10.776 -0.0196  0.4064 -0.2144
 9461W        W24592   3.032   9.468  14.439 -0.1691 -0.2550 -0.1643
 9462W        W24593   9.037  17.446   0.981  0.1745 -0.1410  0.1371
 9463W        W24594  11.673  17.855  13.586 -0.2787 -0.3595 -0.3064
 9464W        W24595  10.799   4.171   0.854  0.1406 -0.0664  0.0828
 9465W        W24596  12.675  11.992   3.901 -0.0130  0.1505 -0.2220
 9466W        W24597   0.822   7.377   5.861  0.0416  0.3826  0.0118
 9467W        W24598   9.968  15.826  12.954  0.1358  0.4113  0.1898
 9468W        W24599   4.938  17.417  11.198  0.5790 -0.1946  0.0698
 9469W        W24600  14.581  12.080  15.065  0.4082 -0.2330 -0.0923
 9470W        W24601   6.914  14.195  11.050 -0.0118  0.2580 -0.2086
 9471W        W24602   6.220   1.230   0.805  0.0177 -0.0737  0.2426
 9472W        W24603  16.717  15.476  11.305 -0.0723 -0.0294  0.0553
 9473W        W24604   7.210   1.816   1.093  0.2044  0.1613 -0.2692
 9474W        W24605  11.727  11.323  12.987  0.1417  0.1591  0.3917
 9475W        W24606  17.488  11.491  12.208  0.0338  0.1441  0.0797
 9476W        W24607  12.612   5.720  11.026  0.2535  0.1201 -0.0743
 9477W        W24608   4.864   6.469  12.902  0.2371  0.1301  0.2236
 9478W        W24609   1.736  11.801  15.634  0.2404  0.2139 -0.2288
 9479W        W24610  15.320   8.797   5.067  0.1657 -0.2576  0.0252
 9480W        W24611  10.211   9.235  10.718 -0.0933 -0.0866  0.2670
 9481W        W24612   4.640   6.186  14.196 -0.2106  0.1072  0.5574
 9482W        W24613   0.162   3.397   2.459  0.0233  0.1164 -0.1026
 9483W        W24614   1.270   5.514  13.630  0.0499  0.0018 -0.1145
 9484W        W24615  15.914   0.654  11.178  0.0267  0.3755 -0.0350
 9485W        W24616   3.563  11.616  13.958 -0.0175  0.2002 -0.1265
 9486W        W24617   1.358   6.656   1.152 -0.1567 -0.0160 -0.0320
 9487W        W24618   1.320   4.943   1.649  0.1119  0.2474  0.3085
 9488W        W24619   8.306   7.439  15.708 -0.0293 -0.1594  0.0121
 9489W        W24620  15.721   7.002   4.020  0.0069 -0.2612 -0.3477
 9490W        W24621   8.434  10.855  13.383 -0.3694  0.2624  0.2841
 9491W        W24622   3.639  15.134   1.706  0.1264 -0.0858 -0.2154
 9492W        W24623   1.479   7.682  13.309  0.1800  0.0206  0.1292
 9493W        W24624  17.630  15.785   0.670 -0.1822  0.1311  0.1828
 9494W        W24625   6.028  14.300  11.366 -0.3553 -0.2252  0.1220
 9495W        W24626   6.501  12.044  10.973 -0.1294 -0.2451  0.0814
 9496W        W24627  18.154   1.609  14.873  0.0717 -0.0060 -0.2969
 9497W        W24628   1.957  13.332  13.105  0.0692  0.3461 -0.0604
 9498W        W24629  11.717   7.614   1.267 -0.1064 -0.2832 -0.0020
 9499W        W24630   4.241  17.910   3.298 -0.0674  0.2288  0.1551
 9500W        W24631   4.397   8.112  12.743  0.0941  0.0827 -0.1138
 9501W        W24632   9.844   7.574  12.202 -0.4190  0.0362  0.2121
 9502W        W24633  18.398  10.671   6.009 -0.0605 -0.2262 -0.0851
 9503W        W24634   7.061   1.352   2.887 -0.3975  0.2967 -0.0601
 9504W        W24635   7.137  11.883  15.822  0.2469 -0.1613 -0.0561
 9505W        W24636   3.796  11.089   2.850  0.1949 -0.1412  0.1056
 9506W        W24637  10.410   2.220   4.983  0.1540 -0.0797 -0.4027
 9507W        W24638   6.059   3.135   5.380  0.0219  0.1662 -0.2919
 9508W        W24639  16.353   6.185   2.281  0.3411  0.1503  0.0080
 9509W        W24640   4.802   6.663   1.414  0.0788 -0.1253 -0.2555
 9510W        W24641   1.676  18.491  13.878 -0.0862  0.3037  0.0165
 9511W        W24642   2.636  14.054  13.840  0.1989 -0.1276  0.2394
 9512W        W24643  17.132   5.489  12.752 -0.2924  0.0794  0.0001
 9513W        W24644   7.817   8.111   5.067  0.1551  0.1138  0.1554
 9514W        W24645  15.408   6.991  14.800  0.0965 -0.0324  0.0361
 9515W        W24646   3.083  14.381   4.837  0.0389  0.0073  0.0318
 9516W        W24647  10.160   6.897  11.209 -0.1072 -0.4018  0.3816
 9517W        W24648  17.612   3.304  12.555  0.1416  0.2354  0.0449
 9518W        W24649   5.001   7.662  11.695 -0.0081 -0.0831 -0.0825
 9519W        W24650   5.905   3.510  12.576  0.0312 -0.0934  0.1453
 9520W        W24651   5.780  15.356  12.332  0.1929 -0.0019 -0.1791
 9521W        W24652  12.002   6.665   0.327  0.0696 -0.2319 -0.1190
 9522W        W24653  15.955   9.002   4.270  0.0936  0.0221  0.1087
 9523W        W24654   9.609   1.267   0.824  0.3465 -0.3181  0.2716
 9524W        W24655   4.341   2.374  12.434 -0.1876 -0.0145  0.1389
 9525W        W24656   0.299   1.577  10.995 -0.1308  0.2816  0.1359
 9526W        W24657   3.042   0.702   0.930 -0.1899 -0.2552  0.1771
 9527W        W24658  11.894  18.214   0.323 -0.0744  0.1008  0.2543
 9528W        W24659  13.968   8.157   1.886 -0.0525  0.1157 -0.0088
 9529W        W24660   0.492  15.145  12.144 -0.1443  0.0864 -0.4020
 9530W        W24661   4.882   1.670   5.428 -0.0802  0.3061 -0.0807
 9531W        W24662  12.186   7.378   2.878  0.1767 -0.0470 -0.0153
 9532W        W24663   5.670   1.035   0.769  0.1868  0.2759  0.1387
 9533W        W24664   5.630  16.356   2.015  0.2769 -0.0901 -0.0257
 9534W        W24665   4.995   3.148   2.246 -0.1525 -0.1005 -0.0051
 9535W        W24666   9.569  11.522   3.543 -0.0841  0.0774  0.2585
 9536W        W24667   5.468  17.689   3.060  0.0164 -0.2302 -0.0970
 9537W        W24668  15.996   3.500   3.427 -0.3994 -0.0948  0.2482
 9538W        W24669  15.718  14.034  12.543 -0.1553  0.1961 -0.1172
 9539W        W24670  13.313   3.360   1.907 -0.1358  0.3857 -0.0159
 9540W        W24671   8.018   2.904  13.148  0.0949 -0.0244  0.2445
 9541W        W24672  17.207   3.128   4.230  0.1619  0.1508 -0.0959
 9542W        W24673   7.466  17.322  10.668 -0.0082 -0.1145 -0.0229
 9543W        W24674   8.750  17.553  13.419 -0.0344 -0.1425  0.2296
 9544W        W24675  13.276   9.373  12.871 -0.1823 -0.0193  0.2577
 9545W        W24676   0.159  13.580   1.842 -0.0962 -0.2337 -0.0366
 9546W        W24677  15.886  12.975  12.605 -0.4548 -0.0115 -0.1586
 9547W        W24678   5.589   1.698  13.501  0.0372  0.3278 -0.2235
 9548W        W24679  17.065  10.894  14.764  0.0485 -0.0219  0.2373
 9549W        W24680   3.721   2.263  15.565 -0.1659 -0.2389 -0.0565
 9550W        W24681   7.390  13.166  11.063  0.1379  0.1329  0.0208
 9551W        W24682   6.627   8.529  12.826 -0.0197 -0.0412 -0.0837
 9552W        W24683   9.847   1.591   5.224 -0.0955  0.0803  0.2032
 9553W        W24684  18.178   8.411  12.385  0.3197  0.2830  0.4324
 9554W        W24685  10.573  17.574   4.517  0.0309  0.1564 -0.2717
 9555W        W24686   2.325   5.102  13.134  0.0850 -0.0118 -0.1626
 9556W        W24687   0.670   3.130   0.391  0.1392  0.1894  0.1692
 9557W        W24688  17.149  14.813  11.541  0.0258 -0.0063  0.0087
 9558W        W24689  13.980  13.126   5.612 -0.2922  0.2109 -0.1295
 9559W        W24690  15.441  15.531  15.493  0.1734 -0.2572  0.0187
 9560W        W24691  17.637   3.256   1.892  0.0670  0.0688 -0.1703
 9561W        W24692   1.113   2.159   3.732  0.0209  0.0454  0.0541
 9562W        W24693   9.155  14.507  10.648 -0.1075 -0.1921 -0.1415
 9563W        W24694   2.390   6.096   5.446 -0.2732  0.0916 -0.0863
 9564W        W24695   9.575  11.107   2.548 -0.0892 -0.1045  0.2204
 9565W        W24696   2.658  17.301  15.787  0.2963 -0.1835 -0.1772
 9566W        W24697   1.379  11.562   2.454 -0.0915  0.2812 -0.2624
 9567W        W24698  17.217  18.152   3.053  0.1580 -0.1993  0.1367
 9568W        W24699  12.914   9.524   5.441 -0.0465 -0.3216 -0.1225
 9569W        W24700  12.744  18.077  15.033  0.0972  0.2086 -0.2985
 9570W        W24701   8.263  13.303  14.895  0.3732  0.4168  0.1924
 9571W        W24702   3.331  13.431   2.656 -0.0047 -0.0039  0.0111
 9572W        W24703  13.582  13.707  11.308  0.1701 -0.0960 -0.0462
 9573W        W24704   6.712   3.132  13.499 -0.0579 -0.0871  0.0705
 9574W        W24705   2.031  10.987  11.177 -0.0486 -0.0088 -0.3178
 9575W        W24706   2.885   0.127   1.821 -0.1540 -0.0019 -0.0286
 9576W        W24707  12.956   2.503  13.360  0.1438 -0.0063  0.4318
 9577W        W24708  15.049   3.800   0.871 -0.2517  0.1400 -0.3141
 9578W        W24709  13.477  11.702   4.242 -0.3115 -0.1294 -0.3023
 9579W        W24710   5.871   5.333  13.046  0.0936  0.1608  0.3022
 9580W        W24711  11.657   9.042  10.592  0.3213  0.1224  0.1574
 9581W        W24712  10.065   0.901  15.610  0.0772 -0.2064  0.0804
 9582W        W24713  17.711   7.041   4.436  0.1184  0.1951  0.0604
 9583W        W24714   5.251   7.463   1.520  0.1945  0.0893 -0.2646
 9584W        W24715   9.781  17.060  13.342  0.1429  0.1571  0.3422
 9585W        W24716  13.028   3.476  15.748  0.2318  0.0467  0.1587
 9586W        W24717  11.140   2.019  12.109 -0.2139 -0.0684 -0.0665
 9587W        W24718   7.547   9.140   3.701 -0.1360  0.2529 -0.3764
 9588W        W24719  14.212  12.920   3.109  0.1181  0.1229  0.1076
 9589W        W24720  13.434  12.150  15.792  0.2961  0.1291  0.1164
 9590W        W24721  15.595  14.697  14.980 -0.0148  0.2588  0.2012
 9591W        W24722  15.121   6.250   1.869  0.1602  0.2312 -0.1405
 9592W        W24723   8.044  13.588  12.505  0.1076  0.0442  0.0548
 9593W        W24724  12.861  15.720   2.049  0.0540 -0.1219  0.1411
 9594W        W24725   7.530  18.127   0.938 -0.2654 -0.1870  0.0075
 9595W        W24726   0.325   3.922   4.314 -0.1287  0.1185 -0.3046
 9596W        W24727   5.092   6.194  14.410  0.0517  0.0362  0.1610
 9597W        W24728  15.837   8.753  12.295  0.0826 -0.0596 -0.0506
 9598W        W24729   5.525   8.224   5.058 -0.0537 -0.0663  0.0854
 9599W        W24730   9.175   8.185  12.405  0.1035  0.0871  0.1533
 9600W        W24731  12.637   3.260   4.518 -0.0924 -0.3144 -0.2089
 9601W        W24732   8.636   3.059   1.059 -0.0818 -0.0815 -0.2981
 9602W        W24733   7.144   5.563  12.807  0.3009  0.2283 -0.2888
 9603W        W24734   7.994  12.628  14.591 -0.2803 -0.0192  0.3096
 9604W        W24735   8.235  11.522   4.912  0.1869  0.0138  0.0956
 9605W        W24736  10.454   0.094  14.164  0.0449  0.1738 -0.0502
 9606W        W24737   6.925  18.153   0.830 -0.0868 -0.1378 -0.1331
 9607W        W24738   1.815  11.583  12.982  0.0266 -0.2680 -0.3742
 9608W        W24739  14.768  11.362  13.544  0.0120 -0.1814 -0.0742
 9609W        W24740  16.711  14.766   4.265  0.2602  0.0726 -0.1832
 9610W        W24741  17.990  15.241   2.434  0.0394  0.3019  0.1189
 9611W        W24742   7.344   9.175   1.033  0.1689  0.1254 -0.2306
 9612W        W24743  11.010  13.401  11.036  0.3966 -0.0626 -0.0494
 9613W        W24744   9.538  16.571  10.597  0.1224  0.2244  0.3645
 9614W        W24745   2.438  12.040  12.535 -0.2571  0.0827 -0.0655
 9615W        W24746   1.635  11.763  14.050  0.0053 -0.1481 -0.0017
 9616W        W24747   1.465   6.514  15.326  0.2876  0.1118 -0.1539
 9617W        W24748   6.982   9.344   2.338 -0.0174  0.1009 -0.0741
 9618W        W24749   6.883   5.723  15.367 -0.1258  0.3431 -0.1514
 9619W        W24750   0.097   7.089  15.408  0.0224 -0.0477  0.0971
 9620W        W24751  13.103   6.038   3.477 -0.2493  0.1421  0.1453
 9621W        W24752   1.003  16.438   0.830 -0.3551  0.2336 -0.0204
 9622W        W24753   3.996  13.131  12.157  0.3023  0.3232  0.0696
 9623W        W24754   2.048  16.018   3.777 -0.0971  0.0960 -0.1392
 9624W        W24755  16.374  17.589   0.697  0.2247  0.1349  0.0422
 9625W        W24756  11.501  10.070   4.199 -0.1188 -0.3631  0.0063
 9626W        W24757   6.374  18.402   2.696 -0.0611  0.1219  0.0846
 9627W        W24758   2.148  13.643   1.042 -0.0944 -0.0765 -0.2445
 9628W        W24759  12.939  18.121   4.503  0.1935  0.1311  0.2551
 9629W        W24760  17.213  12.121   3.483  0.2169  0.0954  0.2159
 9630W        W24761  17.892   2.470  14.757  0.0207 -0.1372 -0.0028
 9631W        W24762   2.742   7.628   6.127  0.1225  0.0288  0.3016
 9632W        W24763   5.896   5.335   4.709  0.0462  0.2685  0.2064
 9633W        W24764   8.710   5.513   5.249 -0.0197 -0.0755  0.1434
 9634W        W24765  13.045   7.477  12.910  0.1115  0.0833 -0.1516
 9635W        W24766   9.504   9.855  15.008 -0.0301 -0.3435  0.2693
 9636W        W24767   2.421  10.167  11.485 -0.0194 -0.3299 -0.2192
 9637W        W24768  11.883   3.582   5.469 -0.0491  0.2931  0.3368
 9638W        W24769  16.489  12.504  15.416  0.3760 -0.1832  0.0564
 9639W        W24770   3.873   1.588  13.461 -0.0574 -0.2440  0.3015
 9640W        W24771  10.144  13.376  11.501  0.0702  0.0822 -0.0972
 9641W        W24772  14.571  12.374  15.884 -0.0492 -0.0632 -0.0487
 9642W        W24773   8.776  14.888  11.483 -0.1016  0.2483  0.2000
 9643W        W24774   0.589   5.523   1.819  0.1771  0.1674 -0.1415
 9644W        W24775   7.567   8.093  14.436  0.0187 -0.1622 -0.2145
 9645W        W24776   4.412   2.241   2.337 -0.3421 -0.0295  0.0339
 9646W        W24777  17.994   9.394  15.058  0.1966  0.1018 -0.0109
 9647W        W24778   5.239  12.041  11.320 -0.3319 -0.4281 -0.0097
 9648W        W24779   8.466  14.884   3.998 -0.0308 -0.1533 -0.2402
 9649W        W24780  10.045   8.043   2.919  0.2104  0.0761 -0.1178
 9650W        W24781  16.955   5.934   3.356 -0.0642 -0.2400  0.2764
 9651W        W24782  11.594  12.422   3.848  0.4516 -0.1216 -0.2005
 9652W        W24783   5.598   9.945   1.822  0.1635 -0.1984  0.0866
 9653W        W24784   5.048  11.615  15.009  0.2613  0.1543 -0.1335
 9654W        W24785   2.453   7.775  12.941 -0.0243 -0.2853 -0.0182
 9655W        W24786  13.357   8.173   5.240  0.2329 -0.0252  0.0401
 9656W        W24787   2.853   6.445  12.356 -0.0059  0.1963  0.0446
 9657W        W24788  10.594   4.156   9.879  0.3510  0.1021 -0.0068
 9658W        W24789  13.072  13.558   2.331  0.1117  0.2103  0.0175
 9659W        W24790  12.742  11.884  15.369 -0.0982 -0.1747  0.3068
 9660W        W24791   1.359  14.099  12.228  0.0674  0.1134 -0.0099
 9661W        W24792  17.109  10.259   0.892 -0.2284  0.2474  0.1641
 9662W        W24793  17.825   3.794  10.820 -0.1114 -0.1975  0.2968
 9663W        W24794  12.299   6.361   1.564  0.0764 -0.1706 -0.2837
 9664W        W24795   0.568  12.683   5.682 -0.0645 -0.2425 -0.1917
 9665W        W24796  12.316   2.354  13.865  0.3127  0.0998  0.2047
 9666W        W24797  15.729  18.290   2.669  0.2959  0.1502 -0.0022
 9667W        W24798   5.417  14.711   5.122  0.0222  0.0657 -0.1219
 9668W        W24799   0.168  16.594  14.427  0.2495 -0.1353 -0.0859
 9669W        W24800   1.610   0.993  14.011 -0.0772 -0.1279 -0.2135
 9670W        W24801   9.007  12.907   1.958  0.1930 -0.1665 -0.0544
 9671W        W24802  10.082   3.078   0.459 -0.1963  0.2811 -0.1621
 9672W        W24803   6.342  10.820   0.941 -0.1733 -0.3924 -0.1482
 9673W        W24804   8.782   8.850  13.013 -0.2747  0.3584 -0.3617
 9674W        W24805  10.472  16.959  15.448  0.1124  0.2241  0.1158
 9675W        W24806   8.136   9.630   1.577  0.0068  0.0245 -0.2113
 9676W        W24807  11.262   8.549  15.122 -0.0477  0.3193  0.2137
 9677W        W24808  16.941  14.361  15.838 -0.0423 -0.2205  0.3933
 9678W        W24809  14.686   1.375   2.066  0.0114 -0.2458  0.0419
 9679W        W24810  15.842   7.744   0.502  0.1783  0.5512  0.2927
 9680W        W24811  11.146   1.176  15.026  0.0106  0.0876  0.1965
 9681W        W24812  17.204   4.948  11.776  0.1634  0.1542 -0.1244
 9682W        W24813  10.890  12.462   1.140 -0.3579  0.0310  0.0941
 9683W        W24814  10.205  14.530   5.345 -0.3722  0.0697  0.3380
 9684W        W24815  13.110  11.297   2.812  0.0024 -0.1699  0.2053
 9685W        W24816   4.700   2.097   3.541  0.0473 -0.0491  0.2161
 9686W        W24817   4.915  15.233  10.391  0.2039  0.5259  0.0240
 9687W        W24818   0.805   9.984  10.273 -0.0941 -0.0637 -0.1245
 9688W        W24819   5.847   5.895   4.097  0.1248  0.0877 -0.0207
 9689W        W24820   4.726   8.913  11.118 -0.2284 -0.0685 -0.1194
 9690W        W24821  16.072  16.759  12.940 -0.0164  0.0344  0.1709
 9691W        W24822   2.974   3.765   3.923 -0.0369 -0.1701 -0.0713
 9692W        W24823   4.794   8.127   1.557  0.2756 -0.2211 -0.0940
 9693W        W24824   9.183   9.832   5.175  0.1228  0.0315  0.2800
 9694W        W24825  11.974   6.986  14.810  0.0272  0.1383  0.1004
 9695W        W24826   9.690  16.576   4.715 -0.2754  0.2791  0.0148
 9696W        W24827   5.312  10.602  14.873 -0.2281  0.0717 -0.1675
 9697W        W24828   3.678  13.324   1.284  0.2051 -0.1154 -0.0656
 9698W        W24829   6.340   6.156  14.273  0.1630  0.3232  0.0934
 9699W        W24830   3.911   5.409  14.786 -0.1740 -0.3380  0.1645
 9700W        W24831   2.776   8.196  13.041  0.1950 -0.2581  0.1265
 9701W        W24832  15.874  15.242   1.809 -0.2239 -0.2215  0.1359
 9702W        W24833   9.602  17.551   1.484 -0.0426 -0.0170  0.1222
 9703W        W24834   0.829   4.132  13.007  0.0734  0.1723 -0.1970
 9704W        W24835   3.275   6.274  12.134  0.0012  0.1579 -0.0070
 9705W        W24836  13.701  14.592  15.854  0.2325  0.2711  0.0943
 9706W        W24837   7.802   3.146   1.661 -0.1476 -0.1474  0.0402
 9707W        W24838   4.088   9.621   4.455 -0.0323 -0.3521  0.1776
 9708W        W24839  14.258  15.373  14.520  0.0383  0.0633  0.0631
 9709W        W24840   5.076  17.973  12.010  0.0038  0.0014 -0.1471
 9710W        W24841   9.869   8.507  14.033  0.1607 -0.0347  0.1819
 9711W        W24842   4.041   6.036   5.375  0.0066  0.0136 -0.0041
 9712W        W24843   8.037   9.915   1.083 -0.0177 -0.1818  0.2457
 9713W        W24844  10.804  10.754  15.122 -0.2812 -0.0054 -0.0225
 9714W        W24845   3.800   8.451  12.065  0.3370  0.3524  0.0373
 9715W        W24846   8.973   0.589   3.188  0.1804 -0.1720  0.0157
 9716W        W24847  14.397   2.180   3.434 -0.2771  0.1072 -0.0011
 9717W        W24848   8.108   3.986  13.185  0.0108  0.0155  0.2347
 9718W        W24849   6.960   9.991  14.701  0.0050 -0.0598 -0.0597
 9719W        W24850   9.085  18.138  12.146  0.2113 -0.1326 -0.1267
 9720W        W24851   1.513  13.336   3.743  0.2155  0.0926  0.1675
 9721W        W24852   8.795   3.099   0.426  0.1138  0.1942  0.1728
 9722W        W24853   4.432  14.594   1.867 -0.0117 -0.3887  0.1640
 9723W        W24854   5.195   7.843   4.934 -0.1616 -0.0661 -0.0153
 9724W        W24855  13.068   5.733  12.830  0.0311  0.0470 -0.0175
 9725W        W24856  18.071  10.212   4.561  0.1306 -0.1940 -0.2604
 9726W        W24857   0.362  12.006   0.299 -0.2243  0.2751  0.0977
 9727W        W24858   4.487   6.460   4.673  0.1014 -0.0209 -0.0527
 9728W        W24859   5.561   6.557   3.829 -0.1457  0.2198 -0.3364
 9729W        W24860   8.508   3.293  15.443  0.1244  0.0880 -0.2017
 9730W        W24861  14.050   7.549   1.792  0.0264  0.1312  0.0122
 9731W        W24862  17.679  12.886  10.064 -0.1072 -0.2196  0.0467
 9732W        W24863   8.535  10.324  13.250  0.0099 -0.1474  0.0546
 9733W        W24864   5.524   8.344   0.590  0.1865  0.1114  0.1439
 9734W        W24865  17.508  13.139  12.079 -0.3524 -0.0769 -0.0346
 9735W        W24866   2.760  17.887  14.690 -0.3224 -0.0302  0.0630
 9736W        W24867   5.048  14.711   3.975  0.0938  0.0084  0.0369
 9737W        W24868  15.816   1.989   2.070 -0.0405 -0.0104  0.3159
 9738W        W24869  10.518   5.822   2.067 -0.2789 -0.2305  0.1850
 9739W        W24870   6.601   9.343  11.984 -0.2322 -0.2883  0.0342
 9740W        W24871  10.279  15.433  13.160 -0.1077 -0.4816 -0.0931
 9741W        W24872  17.298  18.513   2.583 -0.0373 -0.0181 -0.0808
 9742W        W24873   9.535   0.428  11.177 -0.1994 -0.2398 -0.2486
 9743W        W24874  18.333   8.903   1.237  0.5064  0.0647  0.0703
 9744W        W24875   8.087   7.454  13.658 -0.1219  0.2202 -0.1479
 9745W        W24876   1.395  12.806   0.772  0.0050  0.0592  0.0401
 9746W        W24877   2.380   7.109   5.883 -0.1947 -0.1809  0.0964
 9747W        W24878  14.666   7.439  13.363  0.0419 -0.1483  0.3970
 9748W        W24879  13.884   3.051  14.957  0.1784 -0.1567 -0.1414
 9749W        W24880   5.137   2.447  14.457  0.0340 -0.0802 -0.2809
 9750W        W24881   7.543   2.164   2.070  0.5320  0.1493  0.0547
 9751W        W24882  10.356   7.705   3.227  0.0983 -0.2073  0.3380
 9752W        W24883   8.078  14.561   2.588 -0.0450  0.0029  0.0341
 9753W        W24884  13.866  13.783  14.063  0.1639 -0.0085 -0.1078
 9754W        W24885  18.150  17.439   1.975 -0.2577 -0.0367  0.1045
 9755W        W24886  13.106  17.798  10.178  0.1767  0.1367 -0.0461
 9756W        W24887   6.694  12.097  11.872 -0.3857  0.0470  0.0659
 9757W        W24888   0.521   5.483   3.622  0.0057  0.0120  0.3446
 9758W        W24889   5.406  12.582   0.051 -0.0845 -0.1821  0.0561
 9759W        W24890  13.495  10.549   3.652  0.2266  0.1555  0.1093
 9760W        W24891   1.472   0.057   3.837 -0.0121 -0.1368 -0.1842
 9761W        W24892   0.788  15.008  10.532  0.1756  0.2889  0.2090
 9762W        W24893   5.971   8.588   2.616  0.0947  0.1555 -0.0051
 9763W        W24894  12.418  10.186  13.082  0.1975 -0.3611  0.2871
 9764W        W24895  12.793   0.593  13.390  0.3479  0.0650 -0.1832
 9765W        W24896   4.936  11.320  11.560  0.0672  0.3410  0.1243
 9766W        W24897   1.971  14.893   0.682  0.0818 -0.0712 -0.2030
 9767W        W24898  16.458  11.141   2.323 -0.0769 -0.2189 -0.2853
 9768W        W24899  17.962   9.420   5.429  0.0601  0.0013 -0.3013
 9769W        W24900  15.357   6.599   4.431  0.0621 -0.1889  0.3905
 9770W        W24901   0.102   8.919   3.787  0.1460 -0.0358 -0.0490
 9771W        W24902   0.855   7.852  14.339 -0.0036  0.3283  0.0447
 9772W        W24903  15.810   7.535   1.683 -0.1473  0.1971 -0.0228
 9773W        W24904  18.019  11.077  14.035  0.0971  0.2944  0.0658
 9774W        W24905  18.306   2.689   0.907 -0.2523 -0.1361 -0.1896
 9775W        W24906   5.065  13.868  11.412 -0.0916 -0.2739 -0.4200
 9776W        W24907   5.041   3.479   0.390  0.3017 -0.1774 -0.0259
 9777W        W24908  10.837   7.355  15.835 -0.3741  0.1846  0.3576
 9778W        W24909  16.468  12.406  10.758 -0.1911  0.1576  0.0995
 9779W        W24910   7.782  11.472  13.630  0.2685 -0.0450  0.4275
 9780W        W24911  13.482   2.334   0.942 -0.2651  0.6941  0.1187
 9781W        W24912   0.590  15.494  14.395  0.2694  0.0788  0.0985
 9782W        W24913   2.555   0.555   2.742  0.1328 -0.3468 -0.1272
 9783W        W24914   7.695   5.266  12.717  0.0643  0.0825  0.0176
 9784W        W24915   9.661  11.039  10.972  0.0554 -0.3598 -0.0324
 9785W        W24916  11.400   4.241  12.155 -0.1160 -0.0498  0.2458
 9786W        W24917  18.474   6.836   2.625 -0.0552 -0.1302  0.4628
 9787W        W24918   7.959   0.917  11.548 -0.3299  0.2577  0.2114
 9788W        W24919   1.489   1.221  14.449 -0.0203 -0.3353 -0.0339
 9789W        W24920  16.263   3.522  14.242 -0.1496 -0.1019 -0.1817
 9790W        W24921  11.948  10.174   0.567  0.0275 -0.0172  0.2990
 9791W        W24922   7.175   6.504   5.626  0.4640  0.1267  0.0547
 9792W        W24923  18.069   1.675  14.335 -0.0087 -0.0472 -0.1583
 9793W        W24924  10.731  13.777  13.172 -0.0435  0.2654  0.0355
 9794W        W24925  13.808  14.656  10.913  0.0208 -0.3397  0.0434
 9795W        W24926  18.329   6.434   2.370 -0.0157  0.0497  0.1272
 9796W        W24927   6.627   7.002  15.390  0.0145 -0.0307  0.2391
 9797W        W24928   1.391   6.354   3.317  0.1593 -0.2053 -0.2274
 9798W        W24929   2.719   6.910  11.607  0.1893  0.3149 -0.0891
 9799W        W24930  10.360  12.574   2.578  0.1183  0.1823  0.0389
 9800W        W24931  15.973  11.588  11.815  0.0751 -0.2027  0.2271
 9801W        W24932   0.969   9.449   3.656 -0.0150  0.0651 -0.3691
 9802W        W24933  15.851   1.190  12.632 -0.1190  0.2567  0.0022
 9803W        W24934  18.323  17.856  12.624 -0.0432 -0.1132 -0.1075
 9804W        W24935   5.354   7.766  14.485 -0.2328  0.1101  0.0690
 9805W        W24936   4.033  12.295   0.378 -0.1888  0.0986 -0.1534
 9806W        W24937   7.252   5.754   1.749  0.0119  0.1569 -0.0629
 9807W        W24938  14.834  17.093   0.994 -0.1838  0.1117 -0.4356
 9808W        W24939  18.435   6.771   0.374 -0.1620 -0.0245 -0.1173
 9809W        W24940   0.350   3.893   2.699  0.1109 -0.1809  0.0998
 9810W        W24941  12.436  18.477   9.897 -0.0346 -0.0808  0.4831
 9811W        W24942  17.761   8.025   4.494 -0.3498 -0.0159  0.0057
 9812W        W24943   2.197  16.105  11.520 -0.0075  0.1003  0.0607
 9813W        W24944  17.029  10.023  11.087 -0.0149 -0.0369 -0.0155
 9814W        W24945  12.522   2.031  12.683  0.1941 -0.0961  0.1897
 9815W        W24946  12.786   4.453  11.786 -0.0238  0.0785  0.0327
 9816W        W24947  13.901   0.667  11.807 -0.2178 -0.0558 -0.2008
 9817W        W24948   6.572   6.369  12.899  0.2823  0.1230 -0.0798
 9818W        W24949   7.896   1.697  13.143 -0.5130 -0.0955 -0.2600
 9819W        W24950  12.186  16.605   3.210  0.1440 -0.1307  0.0114
 9820W        W24951  13.117  15.766   3.388  0.2750  0.1786  0.1038
 9821W        W24952   1.074  16.737  14.566 -0.1728  0.0746 -0.2835
 9822W        W24953  11.732   2.762   0.798 -0.0210  0.1217  0.0381
 9823W        W24954   5.307   7.672  10.764 -0.1444  0.1307 -0.0091
 9824W        W24955  12.949   0.325  12.977 -0.0699 -0.1816 -0.0461
 9825W        W24956  18.146   9.043  11.673  0.4100  0.2364  0.0871
 9826W        W24957  14.906  11.879  11.035  0.1126 -0.1019 -0.1990
 9827W        W24958   0.300  10.831   5.632 -0.0849  0.2594 -0.0013
 9828W        W24959   6.483   6.879   0.762  0.1676 -0.1676 -0.2120
 9829W        W24960  16.202  11.028  12.307  0.3765 -0.1174  0.1303
 9830W        W24961   7.804  18.158   5.274 -0.2923 -0.0181 -0.2188
 9831W        W24962   8.825   2.753   3.083  0.1703 -0.0037  0.1207
 9832W        W24963   3.392   7.506   5.109 -0.1161 -0.1558 -0.2273
 9833W        W24964   5.096   1.157   2.462 -0.0277 -0.0373  0.0139
 9834W        W24965  14.028   3.121   4.650 -0.0629  0.2002  0.0464
 9835W        W24966   3.219  14.348  11.399 -0.2241 -0.1073 -0.0255
 9836W        W24967  12.857  17.447  12.731 -0.0521 -0.1330 -0.1365
 9837W        W24968   4.777  17.955  12.387 -0.1420  0.2044 -0.1784
 9838W        W24969  13.612  10.768  15.837 -0.0502 -0.0500  0.1846
 9839W        W24970   6.763   6.523  11.806  0.3654 -0.1608 -0.1062
 9840W        W24971  12.570   5.332   5.127 -0.0259 -0.1410  0.1365
 9841W        W24972   6.430   9.977  13.966  0.1502  0.1816  0.2617
 9842W        W24973  12.206  15.993   4.351  0.2095 -0.1430 -0.3562
 9843W        W24974   0.170  10.789  13.335  0.1432  0.3923  0.0035
 9844W        W24975   1.121   9.865  14.796  0.1297 -0.2342 -0.2865
 9845W        W24976   6.415   3.366   3.996 -0.0350  0.1672  0.1733
 9846W        W24977   8.705  12.553  15.685  0.1418  0.0210 -0.2261
 9847W        W24978   9.139   9.358   0.337 -0.2060  0.3144  0.1287
 9848W        W24979  18.075   3.335  15.386  0.4537  0.3631  0.0291
 9849W        W24980   3.546  17.290  15.700 -0.0682 -0.2980 -0.2631
 9850W        W24981  12.413  15.560   2.325  0.1077 -0.0018 -0.1658
 9851W        W24982   5.620  11.069   9.906  0.3465 -0.4184  0.0657
 9852W        W24983   3.919   4.826  14.226  0.0448 -0.3018 -0.0380
 9853W        W24984   6.192  16.415   2.414 -0.4349 -0.3058 -0.2894
 9854W        W24985   1.442  12.853   2.295 -0.0587 -0.2349 -0.2251
 9855W        W24986  10.341   3.765  13.150 -0.0684  0.1097 -0.1114
 9856W        W24987  16.770  15.342  10.757  0.1861 -0.0323  0.4670
 9857W        W24988  10.877  17.306  13.806  0.0325 -0.1451 -0.0366
 9858W        W24989   6.494   0.521   4.508 -0.0556 -0.0501  0.4897
 9859W        W24990   5.958  10.858  12.609  0.2672 -0.1076 -0.1044
 9860W        W24991   4.007   6.899  12.253 -0.2946  0.1294  0.2226
 9861W        W24992  11.495  15.543   2.012  0.0186  0.0571 -0.2257
 9862W        W24993   3.679   8.356  13.037  0.2518  0.1997  0.2221
 9863W        W24994  12.439   6.066  15.632 -0.0580  0.1951  0.6077
 9864W        W24995   7.471   4.861  12.853  0.0519  0.1004  0.0127
 9865W        W24996   4.201   8.086   1.454 -0.0101 -0.2709 -0.0151
 9866W        W24997   9.412   8.664  12.383 -0.1788 -0.3194 -0.1389
 9867W        W24998  11.285  15.514  11.255 -0.1018  0.0264 -0.1474
 9868W        W24999   5.201   1.021  13.395 -0.2901 -0.1525 -0.1713
 9869W        W25000   5.043   2.159  14.068  0.0455 -0.2106  0.1540
 9870W        W25001  14.096   5.028  15.725  0.4602  0.4187 -0.0201
 9871W        W25002   9.373  10.416  13.282 -0.1548  0.1336  0.1170
 9872W        W25003   1.630   1.023   2.867  0.0758 -0.2490  0.0429
 9873W        W25004   3.261   3.232   2.138  0.2625  0.0198 -0.0892
 9874W        W25005  13.471  12.288   4.244 -0.0201 -0.0428 -0.1658
 9875W        W25006   8.145  10.468   2.864  0.4090  0.0286 -0.0178
 9876W        W25007   0.030   2.822  10.474 -0.5210 -0.0786  0.0101
 9877W        W25008   2.187   7.015  15.044 -0.1449 -0.2858 -0.0754
 9878W        W25009   1.749  11.512   1.497 -0.3277 -0.2544 -0.2868
 9879W        W25010  16.060  12.959   2.895  0.0305  0.0041 -0.0054
 9880W        W25011   0.740   4.363   4.496 -0.0013  0.0471 -0.1119
 9881W        W25012  18.381  10.031   4.270  0.1203  0.2407 -0.1849
 9882W        W25013   9.087   7.924   2.852 -0.0140  0.0511 -0.0379
 9883W        W25014   5.517  10.130  13.700 -0.2452  0.1946 -0.1174
 9884W        W25015   1.999  10.349   4.787 -0.1986 -0.0878 -0.0394
 9885W        W25016  14.807   9.209  15.199 -0.0903 -0.1785 -0.2503
 9886W        W25017  15.711   7.252   2.597  0.0699  0.1433  0.1378
 9887W        W25018   3.735   5.413   4.033  0.2051  0.2554 -0.0148
 9888W        W25019   8.623   6.688   4.006  0.0505  0.1513  0.0696
 9889W        W25020  17.078   7.040  15.065 -0.2173 -0.0811 -0.1999
 9890W        W25021   3.962  14.700  10.271 -0.1356 -0.1241  0.0142
 9891W        W25022   3.900   5.051  12.868  0.0582  0.1804 -0.3286
 9892W        W25023  10.573   4.352  12.317 -0.1273 -0.1738 -0.0701
 9893W        W25024   2.971   1.374   1.451  0.2506 -0.4579 -0.1123
 9894W        W25025  12.110  10.265  12.226  0.1370  0.0566  0.1974
 9895W        W25026  14.795   8.015  12.344  0.0904  0.0345 -0.2239
 9896W        W25027   5.160  16.011  15.896 -0.0644  0.1761 -0.3677
 9897W        W25028   7.167   6.068   3.033 -0.0234 -0.0501  0.2328
 9898W        W25029   8.418   6.977  11.327  0.1864 -0.3992 -0.0120
 9899W        W25030  14.021   1.680  12.289  0.1463  0.2552  0.0707
 9900W        W25031  16.814  12.819  13.903  0.0008  0.1642 -0.0983
 9901W        W25032   1.652   5.019   4.687  0.3124  0.0092  0.0692
 9902W        W25033  12.659   7.395  12.156 -0.0429  0.3419 -0.2245
 9903W        W25034   1.226   9.454   5.499  0.2118  0.0955 -0.0978
 9904W        W25035  14.862   1.940  11.928 -0.0950  0.1358 -0.0509
 9905W        W25036  13.354  11.886   1.837 -0.1203  0.0093 -0.3757
 9906W        W25037   5.869   9.231  12.007 -0.1174  0.0053  0.1070
 9907W        W25038   1.468  16.851   3.942  0.0345  0.3980  0.2031
 9908W        W25039   8.801   6.940  14.469  0.0705 -0.0185 -0.0583
 9909W        W25040  10.862   6.104   1.750  0.4018 -0.2857 -0.1111
 9910W        W25041  15.128   9.151  11.265 -0.1582 -0.0792  0.1279
 9911W        W25042   4.210  14.542  11.088  0.0170 -0.0743  0.4073
 9912W        W25043   7.278   2.491  12.989 -0.2778  0.0429 -0.3900
 9913W        W25044  11.540   3.636  15.221 -0.0344 -0.1567 -0.3260
 9914W        W25045   6.605   6.515  14.033 -0.0573 -0.0297 -0.1441
 9915W        W25046  10.893  10.664   2.451 -0.0604 -0.1260 -0.2831
 9916W        W25047   2.825  16.771   1.129 -0.1074 -0.2437  0.0651
 9917W        W25048  18.051   6.084  11.343  0.1755  0.1604 -0.0688
 9918W        W25049  15.999  15.891  13.713  0.2663 -0.1080 -0.1256
 9919W        W25050   9.517  16.308   2.439  0.1941 -0.3012  0.1826
 9920W        W25051  16.149   4.027  13.363  0.1226 -0.0698  0.1604
 9921W        W25052   8.223  18.443  12.722  0.2063  0.2078  0.0077
 9922W        W25053  11.019  18.094   0.011 -0.0145 -0.3461 -0.0892
 9923W        W25054  18.077   7.904   4.112  0.3680 -0.1184 -0.1410
 9924W        W25055   4.983   1.111  11.769 -0.0958  0.5662  0.0627
 9925W        W25056   9.247  10.773   1.561 -0.0066 -0.1551 -0.0865
 9926W        W25057   7.821   3.371   4.960 -0.1162 -0.0449  0.1211
 9927W        W25058   7.804   0.141  15.319  0.1874  0.2147 -0.0471
 9928W        W25059  11.422   3.781   1.533  0.3151 -0.1303  0.0600
 9929W        W25060  17.750  13.553   4.029 -0.1412  0.1157  0.2973
 9930W        W25061   0.396  11.609  11.337  0.3063 -0.1253 -0.3702
 9931W        W25062  15.406  10.630  13.825 -0.2297 -0.0352 -0.3963
 9932W        W25063   0.201   6.360   2.137 -0.0356 -0.0513 -0.1912
 9933W        W25064   4.699   9.587  14.657  0.1557 -0.0201 -0.0376
 9934W        W25065   0.327  18.009  12.399 -0.1739  0.2895 -0.2489
 9935W        W25066   4.615  17.243  13.125 -0.2839 -0.0738 -0.0144
 9936W        W25067   5.454   2.729  11.506  0.3258  0.1699 -0.1781
 9937W        W25068  12.652   4.953  15.795  0.0501 -0.1152 -0.2128
 9938W        W25069  11.025   5.968  14.397  0.0497  0.0947  0.0650
 9939W        W25070  14.142   8.750   2.609 -0.0554 -0.2371  0.0240
 9940W        W25071   6.104   9.761  12.468  0.1936  0.0762 -0.2738
 9941W        W25072   0.394  14.344   2.115  0.0040  0.1011 -0.0017
 9942W        W25073   8.767  13.898   2.004  0.0562  0.1483  0.0277
 9943W        W25074   6.023  12.897   5.049  0.0428  0.2502  0.0931
 9944W        W25075  16.039  14.712   2.209  0.5188  0.0060 -0.1015
 9945W        W25076  10.740  16.571  11.763  0.0441  0.1185  0.2634
 9946W        W25077  17.639   1.144   4.266 -0.1011  0.3196  0.0556
 9947W        W25078  12.212   8.000   0.675  0.0019  0.0191 -0.2004
 9948W        W25079   0.895   2.243   5.271  0.0058  0.0103 -0.1286
 9949W        W25080  14.726   8.191  15.680 -0.1104 -0.0376  0.1007
 9950W        W25081  17.735  17.488  11.619  0.1066 -0.2281  0.0364
 9951W        W25082   3.484  14.283  12.919  0.1008 -0.2723 -0.2559
 9952W        W25083  12.390  16.995   1.885  0.0149  0.0201  0.0298
 9953W        W25084  15.481   1.707  10.725  0.0866  0.1891 -0.1755
 9954W        W25085   1.311  16.074  13.757  0.0631 -0.4024  0.2394
 9955W        W25086   9.101  18.363  13.222  0.0648  0.2600  0.0729
 9956W        W25087   0.008   9.238  14.082  0.1173  0.1552 -0.0493
 9957W        W25088  13.218  12.788  13.004 -0.0961  0.1386 -0.0579
 9958W        W25089   5.675  18.041  15.894  0.0751  0.0681 -0.5007
 9959W        W25090   3.916  13.576   0.231 -0.0811  0.2858  0.3672
 9960W        W25091   1.372  15.953  14.223 -0.2204  0.2376  0.0917
 9961W        W25092   3.069  17.925  15.056 -0.3512 -0.2665 -0.0316
 9962W        W25093  10.735  10.983   3.766  0.0775 -0.1718  0.1692
 9963W        W25094   8.732   9.422   0.798  0.0777  0.1145 -0.1471
 9964W        W25095   2.232   3.844  15.149 -0.1380  0.0955  0.1187
 9965W        W25096  18.444  16.939  11.628  0.1315 -0.1017 -0.0483
 9966W        W25097  12.172  14.296  12.389 -0.2346  0.0102 -0.1264
 9967W        W25098   2.139   9.955   4.441 -0.0297 -0.5482  0.2359
 9968W        W25099   3.497   4.344  13.568 -0.1752 -0.0828  0.1917
 9969W        W25100   4.061  17.627   4.219  0.0772  0.1891 -0.0728
 9970W        W25101  11.309   9.379   0.440 -0.0740 -0.1455  0.0223
 9971W        W25102   5.217   4.038   5.109  0.0266 -0.0248 -0.0698
 9972W        W25103   8.044   3.571   0.529  0.2183  0.2144 -0.0374
 9973W        W25104  13.097   3.882   4.671 -0.2029  0.0644 -0.2699
 9974W        W25105   4.830   6.653   3.191 -0.1186  0.1030 -0.1472
 9975W        W25106   1.112  18.275   6.456  0.0918 -0.2955  0.0563
 9976W        W25107   1.178   9.434  11.870  0.0052  0.0144 -0.1770
 9977W        W25108   2.802   2.671   5.070  0.0124 -0.5476 -0.0115
 9978W        W25109  10.602   8.468   2.643  0.3409  0.0381  0.0171
 9979W        W25110   1.094  14.474   0.484  0.2798  0.0806 -0.2607
 9980W        W25111  15.193  10.245   5.462 -0.2675  0.1068 -0.1266
 9981W        W25112   9.895   3.895  13.385 -0.0953 -0.2408 -0.0338
 9982W        W25113   3.198   5.282  11.840 -0.2489 -0.1307  0.2362
 9983W        W25114   6.384   2.071   1.285  0.0986  0.0688 -0.1239
 9984W        W25115  12.230   6.305  14.807  0.2167  0.1794  0.2106
 9985W        W25116  12.628  11.455  11.405 -0.0278 -0.0145 -0.2354
 9986W        W25117   8.432   5.858   2.622  0.1864  0.2240  0.2533
 9987W        W25118  13.954   5.638   0.675 -0.3309  0.0636  0.0054
 9988W        W25119   7.821   8.301   3.463  0.0712  0.0341 -0.0456
 9989W        W25120   9.189  12.300   3.263  0.1988  0.0421 -0.3046
 9990W        W25121   4.964   7.975   2.408 -0.0866 -0.0023  0.0071
 9991W        W25122   1.319  14.229  14.581 -0.0652  0.1054 -0.3189
 9992W        W25123   3.715   0.265   4.873  0.0724  0.3136 -0.0675
 9993W        W25124   7.621  10.507  12.101 -0.1541  0.3354  0.1083
 9994W        W25125  13.836  10.255  15.857  0.3158 -0.1894 -0.0833
 9995W        W25126   8.485  17.734   4.533 -0.0604 -0.4050 -0.3417
 9996W        W25127  16.899   5.216  11.426  0.1158 -0.0391 -0.0325
 9997W        W25128   1.897  12.557  12.751 -0.1753 -0.1028  0.1077
 9998W        W25129  18.183   0.505   3.225  0.0088 -0.0028  0.3421
 9999W        W25130   4.453  15.951  13.136 -0.1858  0.2647 -0.2532
10000W        W25131   3.568   7.373  13.090  0.0310 -0.0939 -0.1331
10001W        W25132  10.291   7.628   4.101 -0.0262  0.2198 -0.1018
10002W        W25133  15.136   6.320  15.332  0.2868 -0.0520  0.1880
10003W        W25134  13.320   1.014  11.438  0.1125 -0.0170 -0.2873
10004W        W25135   7.954  16.428  15.816 -0.0961  0.0508  0.3608
10005W        W25136  16.495   7.234  12.892  0.1827  0.1708  0.1538
10006W        W25137   8.586  15.393  13.028  0.1841  0.0131  0.0682
10007W        W25138   7.661  15.132   0.713 -0.0802 -0.0807 -0.2949
10008W        W25139   6.275  13.775   3.814 -0.0505  0.3258 -0.0371
10009W        W25140   7.630  13.765  13.298  0.1642  0.3091 -0.1357
10010W        W25141   9.802   9.398  12.583 -0.0354 -0.2893 -0.4246
10011W        W25142  13.754   2.809  11.470  0.2001  0.0626 -0.3846
10012W        W25143  16.591   1.597   2.692 -0.0453 -0.5434 -0.1047
10013W        W25144   1.228  17.547  13.737  0.0629 -0.0290  0.4212
10014W        W25145  12.930  16.543  12.141 -0.1877 -0.1770  0.0945
10015W        W25146  12.383  10.370  13.585  0.0247 -0.0485 -0.0657
10016W        W25147   1.115  15.583   3.846 -0.2769  0.1913 -0.2536
10017W        W25148  10.516  16.276  12.133  0.1353  0.1769 -0.3347
10018W        W25149   2.831   9.513  12.661  0.1267 -0.2236  0.2370
10019W        W25150   6.088   4.470  15.102  0.1455  0.3344 -0.0275
10020W        W25151  10.349  15.379  15.380  0.1271  0.0172 -0.1006
10021W        W25152   0.192   9.339  13.238 -0.3343  0.1180  0.1547
10022W        W25153   8.962  15.817   0.761 -0.0078 -0.0888  0.0056
10023W        W25154   4.711   2.174  15.066 -0.1612 -0.1246  0.3755
10024W        W25155  15.317   2.233   2.283 -0.1998 -0.0402 -0.1770
10025W        W25156   3.067   4.933  15.240  0.1046 -0.0128  0.0527
10026W        W25157   4.674  13.523   5.380 -0.0203  0.3553 -0.2228
10027W        W25158   0.279  16.555   5.152 -0.1979  0.0646  0.0121
10028W        W25159   8.016  14.565  15.024 -0.1505  0.3332  0.0539
10029W        W25160   2.398  13.981   4.717 -0.1665  0.0583  0.2399
10030W        W25161   6.534  11.286  12.767  0.2354  0.0010 -0.1732
10031W        W25162   1.803   9.764  12.305  0.0764 -0.1337  0.0039
10032W        W25163  11.539   0.154   4.439 -0.1188  0.0068 -0.0560
10033W        W25164   2.673   9.062   0.284 -0.1338 -0.0088 -0.0985
10034W        W25165   9.166   5.904   0.029  0.1484  0.0395  0.1120
10035W        W25166   2.021   1.919  11.673  0.1845  0.1370 -0.0817
10036W        W25167  15.542   3.054   2.655  0.1639  0.1251  0.2994
10037W        W25168  16.386  13.693  13.016 -0.2016 -0.2112 -0.0898
10038W        W25169   6.714   6.404   4.408 -0.1090 -0.0254 -0.0376
10039W        W25170   9.435  10.895   5.195  0.2835  0.2066  0.0792
10040W        W25171   6.399   5.129  12.193  0.1560 -0.0294 -0.1547
10041W        W25172  16.576   1.101  12.013  0.0801 -0.2720  0.0203
10042W        W25173  14.834   2.045   0.359  0.2823 -0.3194  0.0986
10043W        W25174  15.391  15.270   4.684  0.0500 -0.1203 -0.1986
10044W        W25175  14.446  15.156   4.673 -0.1161  0.0973 -0.2331
10045W        W25176  14.981   2.585   0.156  0.1157  0.1419 -0.0057
10046W        W25177   0.507  12.044  13.137 -0.2823  0.2564 -0.0869
10047W        W25178   1.911   5.937   1.132  0.0203  0.0328  0.0488
10048W        W25179   7.968  10.124   1.824 -0.2449  0.0749  0.1316
10049W        W25180  10.071  15.670  15.087  0.2297  0.0986 -0.0636
10050W        W25181  17.495   0.462   5.446  0.2111  0.2316  0.2767
10051W        W25182   5.294  12.162   3.679 -0.2194 -0.1880 -0.1139
10052W        W25183  17.479   7.241   4.097  0.0564  0.1747  0.2462
10053W        W25184  17.849   9.296   5.934 -0.1861 -0.0272 -0.0302
10054W        W25185  15.034  13.936   1.978 -0.0180 -0.2120  0.1591
10055W        W25186  15.506   2.518  13.882  0.0717 -0.1941  0.1655
10056W        W25187  16.596  13.082   0.540  0.2204 -0.2291 -0.2367
10057W        W25188  14.446  10.572   2.836 -0.0222 -0.1348  0.1095
10058W        W25189   8.256  15.137   2.963  0.0607  0.3690 -0.1981
10059W        W25190   3.827  10.876  13.257 -0.0356 -0.3017 -0.0084
10060W        W25191  10.044  12.927   2.497  0.1749  0.1525 -0.1796
10061W        W25192  18.181  14.323  13.174  0.0209 -0.1940  0.2228
10062W        W25193   6.562   4.121   3.520 -0.2307  0.3424 -0.0214
10063W        W25194  11.819   3.459   4.558  0.1035 -0.3976  0.2091
10064W        W25195   8.900   3.661  11.955 -0.0435  0.2230  0.0463
10065W        W25196   1.092   9.726   3.220  0.1264 -0.4260  0.0175
10066W        W25197   1.837  16.762   5.440 -0.1220  0.1538 -0.0056
10067W        W25198   7.557  10.651  13.481  0.0102 -0.1540 -0.2778
10068W        W25199  16.603  17.506   2.096  0.1471 -0.0213 -0.0763
10069W        W25200   4.582   2.782  15.273  0.0028 -0.2696  0.1573
10070W        W25201   7.867  16.906  15.612 -0.0887  0.3901  0.1244
10071W        W25202   6.203  16.476   5.241 -0.0533 -0.2881 -0.4536
10072W        W25203   9.701  11.992  15.713 -0.0051  0.0960  0.1686
10073W        W25204   7.762   6.434  15.292 -0.0161  0.0281 -0.0932
10074W        W25205  10.921  12.658  14.356 -0.2407  0.2101 -0.0862
10075W        W25206   6.764   1.913   0.982  0.3188  0.3916  0.3944
10076W        W25207  12.301   1.341  10.198 -0.2144 -0.2094  0.0668
10077W        W25208  18.315  11.856   1.350  0.2116  0.0072  0.5162
10078W        W25209   7.401   0.356  11.279  0.1242  0.2235 -0.1614
10079W        W25210   1.477  12.152   0.693 -0.1561  0.0021 -0.1926
10080W        W25211  15.771   9.810   0.572 -0.1419  0.1626  0.2359
10081W        W25212  10.599  12.294  11.225  0.1487  0.1218 -0.3376
10082W        W25213   4.232   3.417   2.531  0.0658  0.0726  0.0356
10083W        W25214  14.641  17.665   2.937 -0.3897 -0.2608 -0.3269
10084W        W25215   4.349   7.805  11.020 -0.0839  0.0951  0.0456
10085W        W25216   2.965   1.102  12.422 -0.0220 -0.1950 -0.0497
10086W        W25217  12.823   3.100  14.228 -0.1027 -0.2910  0.0059
10087W        W25218  11.027   8.998   3.133  0.1331 -0.0661 -0.1147
10088W        W25219   3.540   7.292  15.318  0.1743 -0.0086  0.1197
10089W        W25220   7.982   3.122  10.541 -0.0134 -0.3441 -0.0927
10090W        W25221   6.485  15.681   1.261 -0.1710 -0.0008 -0.2126
10091W        W25222   4.890   8.639  10.313  0.1111  0.3767  0.1338
10092W        W25223   9.120   5.190  10.164 -0.2146 -0.1919 -0.0680
10093W        W25224  11.860   7.629  14.301 -0.2183  0.4371  0.1782
10094W        W25225   9.259   4.610   4.728  0.3285 -0.2639 -0.2671
10095W        W25226   2.607  14.837   3.616  0.0855 -0.2036 -0.0242
10096W        W25227   4.764   2.240  12.609 -0.2639 -0.0556 -0.3019
10097W        W25228   5.302  17.004   2.640  0.0456 -0.0371  0.2934
10098W        W25229   2.189  17.741  12.899  0.0101  0.2005  0.0780
10099W        W25230   9.567   9.359   1.982 -0.0056 -0.0848  0.1061
10100W        W25231   9.266   3.225  11.215  0.2098  0.0031 -0.0786
10101W        W25232   5.334   6.619  12.750  0.6276 -0.2165 -0.0487
10102W        W25233  10.625  17.167   0.072 -0.6110  0.2405  0.1086
10103W        W25234   8.645  13.410  14.556 -0.0076 -0.0902 -0.1601
10104W        W25235   1.737   7.975   4.768 -0.2433  0.0666 -0.0925
10105W        W25236   8.535  12.787   4.135 -0.3836 -0.1057  0.2118
10106W        W25237   2.083  18.234   3.393  0.2234  0.3245 -0.1556
10107W        W25238   1.885   0.318  10.334  0.2875  0.3111  0.0023
10108W        W25239   0.007   0.498   4.774  0.0186  0.0927 -0.0197
10109W        W25240  11.419   0.374  10.724 -0.1171  0.0266  0.1654
10110W        W25241  14.721  15.613  13.167  0.2198 -0.0406 -0.2166
10111W        W25242  12.791   7.599   2.134 -0.0206  0.1942 -0.0173
10112W        W25243   2.647   8.917  13.890  0.1273 -0.0090  0.0027
10113W        W25244  11.003   9.942  13.547  0.0034 -0.2465  0.1120
10114W        W25245   7.151  15.358  13.575 -0.1374  0.5238 -0.0643
10115W        W25246  11.626   6.408  15.276  0.0488 -0.1844 -0.0524
10116W        W25247   9.068   5.400   4.109 -0.1070 -0.2706  0.1138
10117W        W25248  11.427   7.260  15.799  0.2391 -0.0642  0.0477
10118W        W25249   2.889  14.521  10.682  0.1463 -0.1026  0.1753
10119W        W25250  10.677   2.655   4.618 -0.0065 -0.1305  0.2170
10120W        W25251  10.415   3.047   5.170  0.1516  0.1716 -0.0376
10121W        W25252  12.856   2.467  14.765 -0.1730 -0.2606 -0.0650
10122W        W25253  14.857   3.796   9.819 -0.0367 -0.3110  0.0596
10123W        W25254   1.740   9.486   0.126 -0.1889  0.1393  0.1163
10124W        W25255   9.253   5.498  14.174 -0.0064  0.0269 -0.0380
10125W        W25256   9.099   2.443   4.212  0.0793 -0.0330 -0.2445
10126W        W25257   5.974  12.824  15.243 -0.1284 -0.1105  0.1964
10127W        W25258   4.368   3.837  12.421  0.2490  0.1555 -0.2046
10128W        W25259  14.466  13.313  12.288 -0.4268 -0.0524 -0.1790
10129W        W25260   0.140  12.784   1.697  0.0547 -0.0284  0.0682
10130W        W25261  13.952   9.448  14.103  0.0820  0.1948  0.0547
10131W        W25262  14.603  16.266  13.602  0.0168 -0.2440 -0.2034
10132W        W25263   5.024   9.189   0.875  0.4070  0.3086  0.1312
10133W        W25264   6.373   8.039   3.253 -0.0694 -0.0941  0.1326
10134W        W25265  10.402   0.890   4.456 -0.0367  0.0238  0.2605
10135W        W25266   8.988  14.873   2.221  0.0917 -0.0125  0.2230
10136W        W25267   1.293  13.693  14.899 -0.1246  0.4915  0.1142
10137W        W25268  12.204  12.060  13.373  0.0222  0.1799  0.0616
10138W        W25269  15.145  12.189   3.954 -0.0467 -0.1793  0.0652
10139W        W25270   6.231  11.105   4.923 -0.2390  0.2830 -0.1694
10140W        W25271  12.857   5.390   3.732  0.1663 -0.2102  0.2802
10141W        W25272   0.510  12.375   3.873 -0.1402 -0.0578  0.4618
10142W        W25273  15.138  14.181  12.556 -0.1881 -0.0508  0.2861
10143W        W25274  12.164   3.820  10.409 -0.0342  0.0387  0.1237
10144W        W25275   7.611   6.616   4.234  0.2558  0.1821  0.1375
10145W        W25276  17.119   9.533   3.124  0.0496 -0.0421 -0.1913
10146W        W25277   8.176   0.500  11.640  0.3628  0.1253  0.0304
10147W        W25278   8.859  18.302   4.389  0.0622  0.3122 -0.2814
10148W        W25279  13.920   2.420  13.003 -0.4109  0.0003  0.3041
10149W        W25280  14.820   5.206   0.453  0.1521 -0.0764 -0.1598
10150W        W25281  12.401  17.418   0.782  0.2324 -0.1656  0.4743
10151W        W25282   9.858  11.522   0.470  0.2378 -0.0400 -0.1556
10152W        W25283  15.557   0.089   4.684  0.1152  0.1071 -0.1174
10153W        W25284  15.307   7.342   0.795  0.1312 -0.0350 -0.3058
10154W        W25285   5.902  10.718  12.159  0.0788  0.2907 -0.1207
10155W        W25286  17.418   7.201  12.458  0.0304  0.0851 -0.1797
10156W        W25287  13.584   3.825  11.642 -0.0515  0.0833  0.0634
10157W        W25288   1.109  12.470   4.425 -0.3912 -0.2231  0.1282
10158W        W25289  16.700  18.486   2.964  0.1448 -0.1582 -0.1695
10159W        W25290  11.471  15.471  12.216 -0.1164  0.0038  0.0274
10160W        W25291   0.913   6.016  14.468  0.3838 -0.0849  0.0032
10161W        W25292   3.936   5.435   5.423  0.0413  0.3500 -0.0537
10162W        W25293   3.906   6.122   3.655 -0.0961 -0.1244 -0.3613
10163W        W25294   3.722   2.835   5.203  0.0019  0.2840  0.3587
10164W        W25295   7.211  11.378   3.806  0.1387 -0.1545  0.1866
10165W        W25296  17.381   8.180   1.838 -0.2185  0.3533  0.3214
10166W        W25297   9.526   3.962   5.460  0.0926  0.2304 -0.1207
10167W        W25298   3.506   0.275  14.189 -0.3460  0.1413  0.0682
10168W        W25299   7.548   5.152   0.453  0.2159  0.2643  0.2845
10169W        W25300   8.389   4.642  15.458 -0.0389 -0.1548 -0.1852
10170W        W25301   7.876   7.976  11.890 -0.0817 -0.0465  0.0356
10171W        W25302  16.359   5.439   3.999  0.0563 -0.4054 -0.2405
10172W        W25303   4.206  12.083   3.873 -0.1064  0.0058  0.0506
10173W        W25304   5.465  14.430  12.267 -0.3583 -0.0589  0.0375
10174W        W25305  17.962  13.006   4.910 -0.0977 -0.0441  0.0839
10175W        W25306  14.414  12.118   1.012 -0.0961  0.0386 -0.0767
10176W        W25307   6.423  17.540  13.484 -0.0338  0.2028  0.2438
10177W        W25308   1.680   6.052   3.849  0.1620  0.0622  0.1498
10178W        W25309  11.357   5.823  14.007 -0.2598 -0.1474  0.1260
10179W        W25310  15.774  15.622  14.622 -0.3404  0.2534 -0.3035
10180W        W25311   4.189   6.485   5.560  0.2251 -0.2143  0.1775
10181W        W25312  17.101   4.364   5.139  0.0698 -0.0348  0.2717
10182W        W25313  12.126  18.169   1.160 -0.0878  0.4048 -0.0405
10183W        W25314  12.676   1.119  15.134  0.1858 -0.0910  0.0677
10184W        W25315  10.260  11.456   4.254 -0.1696 -0.3005  0.0391
10185W        W25316   3.560   8.862  13.025  0.3128 -0.2261 -0.1546
10186W        W25317  14.550   5.301  10.323 -0.2593 -0.2250 -0.3094
10187W        W25318   2.246  14.800  14.532 -0.0162  0.1473 -0.1034
10188W        W25319  11.673   0.518   4.984  0.0484 -0.1412 -0.3884
10189W        W25320  16.952  14.040  14.221 -0.2913 -0.0815 -0.2566
10190W        W25321  17.634  15.443   5.337 -0.2242 -0.1020  0.0538
10191W        W25322  11.534  14.483   3.712 -0.0284 -0.1720  0.1591
10192W        W25323  18.185   4.665   3.144 -0.0905  0.5045  0.2750
10193W        W25324  15.764   1.863   1.091  0.1051 -0.2307  0.0783
10194W        W25325   7.351  10.355  12.484  0.0466 -0.0724  0.2194
10195W        W25326  18.066  11.444  12.249 -0.3771  0.2598 -0.1721
10196W        W25327  18.367  16.105   6.551  0.3533 -0.0443  0.1236
10197W        W25328  16.750   6.346   0.330  0.1804  0.2658 -0.3186
10198W        W25329  12.290   8.387   0.986  0.2343  0.2035 -0.3022
10199W        W25330   5.355   9.633   2.159  0.2386 -0.1033  0.0207
10200W        W25331   9.887  12.589   3.622 -0.3626  0.0132  0.1161
10201W        W25332   3.802  15.984  11.936  0.1452 -0.0772 -0.4749
10202W        W25333   1.129  16.980   6.124 -0.0071  0.4007  0.2302
10203W        W25334  16.021  16.891  12.057  0.1779  0.0010 -0.0312
10204W        W25335   9.120  16.729  15.718  0.1033 -0.3165  0.1423
10205W        W25336  15.382  14.052   3.469 -0.2947 -0.2122 -0.1365
10206W        W25337   9.315   3.232   5.349 -0.2438  0.0436  0.2575
10207W        W25338   2.931  11.619   2.505 -0.2015  0.1500  0.0029
10208W        W25339  10.547   3.886   2.404  0.1138 -0.2525  0.0444
10209W        W25340   8.329  15.940  13.121 -0.0860 -0.1959  0.1058
10210W        W25341  10.487  13.051   2.679 -0.2431  0.0405  0.2001
10211W        W25342  10.940   0.034   2.422 -0.2487  0.0009 -0.2512
10212W        W25343   0.120  10.209   0.276  0.1224  0.1061  0.0693
10213W        W25344   9.470  14.260   0.249  0.1357  0.1632  0.1021
10214W        W25345  13.924   8.491   5.016  0.1583 -0.1619  0.0183
10215W        W25346   2.677   7.781   2.530 -0.2236 -0.0051  0.3492
10216W        W25347   9.232   4.401  11.627 -0.5937  0.0425 -0.0149
10217W        W25348   4.330  16.658  12.774  0.3042  0.0565  0.1890
10218W        W25349  12.372  10.081   1.604  0.1581  0.0961  0.3928
10219W        W25350  18.153   3.391  11.701 -0.2386  0.0500 -0.0415
10220W        W25351  13.831   2.369  13.454  0.4147 -0.1026 -0.0788
10221W        W25352  16.750   5.541   1.263 -0.5305 -0.1347 -0.0738
10222W        W25353   9.759  18.518  11.465 -0.0921 -0.1092  0.0191
10223W        W25354   1.272  17.213  13.284  0.2479  0.0354 -0.0006
10224W        W25355   6.019  13.355   0.294  0.2404  0.3554  0.3390
10225W        W25356   7.694  17.314   0.814 -0.4219 -0.1945 -0.2831
10226W        W25357   0.698  15.509  14.965  0.0042  0.3178 -0.0035
10227W        W25358   6.022   1.573   0.504  0.1866  0.0222  0.0636
10228W        W25359  12.121   1.206   1.558  0.3035  0.0255  0.1326
10229W        W25360   4.291   9.774  14.256  0.0505  0.0707 -0.2137
10230W        W25361  17.614   7.454   0.245 -0.0751 -0.3545 -0.2258
10231W        W25362   6.480   5.795   3.510 -0.3321 -0.0946  0.1227
10232W        W25363   5.020  10.827   1.099  0.1083 -0.1271  0.4217
10233W        W25364   7.624  13.948   0.129  0.2875 -0.0316 -0.0571
10234W        W25365   6.988   8.705  12.489  0.0931 -0.0728 -0.1391
10235W        W25366   9.941   0.422  15.478  0.0829 -0.0443 -0.0572
10236W        W25367   3.316  18.051  10.685  0.1472  0.1274 -0.2309
10237W        W25368   8.561  17.596   2.580 -0.2994 -0.0848  0.5164
10238W        W25369   4.459   1.744   3.867  0.0382  0.2362 -0.2766
10239W        W25370  11.028  15.068   1.412  0.2068 -0.0932  0.1771
10240W        W25371   8.071   2.208   1.519  0.1591  0.2021 -0.0033
10241W        W25372  17.699  12.256   2.355 -0.4500  0.1878  0.0877
10242W        W25373  18.530   5.607  12.127 -0.0351 -0.0749 -0.2375
10243W        W25374  12.253   4.652  13.193  0.1931  0.0690 -0.1894
10244W        W25375   2.835  10.160   1.960 -0.2541  0.0605  0.1407
10245W        W25376   9.199   4.016  13.983 -0.0092 -0.0889  0.1332
10246W        W25377   3.142  11.998   2.048  0.3054  0.0558  0.0432
10247W        W25378   6.180   0.480  15.578  0.1250 -0.5532 -0.0632
10248W        W25379   1.249  18.209   4.341 -0.1085  0.0125  0.2412
10249W        W25380   5.021   2.528   0.923 -0.1408 -0.1257 -0.0436
10250W        W25381  12.931   8.406  12.485 -0.1385  0.0200 -0.1242
10251W        W25382   0.125  10.655   3.238  0.2164 -0.3326 -0.0291
10252W        W25383  14.722   5.933   4.969  0.0595 -0.1494  0.0668
10253W        W25384   5.693  11.473   0.779  0.0322 -0.3668 -0.1970
10254W        W25385  17.991  13.977   4.726 -0.1050  0.2895 -0.0844
10255W        W25386  14.149  12.334  10.807  0.0625 -0.0320 -0.0980
10256W        W25387  17.182   9.011  15.580 -0.0953 -0.0202  0.1492
10257W        W25388  15.789   5.361   0.704 -0.0935 -0.0503  0.0012
10258W        W25389   8.647   5.161  11.771 -0.0073 -0.1859 -0.4469
10259W        W25390   6.170  14.828   0.415  0.1020 -0.0806 -0.1221
10260W        W25391   4.166  18.506  15.093  0.0790 -0.1485  0.3160
10261W        W25392  13.808  18.059  11.611 -0.0650 -0.1090 -0.0517
10262W        W25393   1.777   5.356  15.236  0.3379  0.0578 -0.1967
10263W        W25394  16.331   0.274   3.183  0.0171  0.0888  0.1820
10264W        W25395   6.982   2.462   3.152  0.0537  0.2832  0.0117
10265W        W25396   7.441  17.193   4.580 -0.0162  0.3191 -0.2684
10266W        W25397   4.417   8.557  15.466 -0.1615  0.1402  0.0601
10267W        W25398  15.962   9.828   5.917  0.0136  0.0063  0.1308
10268W        W25399  12.395   0.775  14.924 -0.1473  0.0565 -0.3374
10269W        W25400   9.514   8.480   4.078  0.0005  0.0549 -0.1459
10270W        W25401   2.487   5.925   4.969 -0.1728 -0.0271  0.0893
10271W        W25402   2.542  13.280  14.464  0.1303 -0.1985 -0.1817
10272W        W25403   4.757   9.227   1.885  0.0708 -0.0930  0.5088
10273W        W25404   0.315   7.886   1.411  0.2228  0.1049 -0.1096
10274W        W25405  12.321   1.668   1.363  0.0933  0.0401  0.1143
10275W        W25406  17.295   3.438   2.198 -0.1510  0.0740 -0.1008
10276W        W25407   2.564  11.304   2.633 -0.1393  0.0705  0.1935
10277W        W25408   1.285   1.968   6.084 -0.0327  0.1977  0.2317
10278W        W25409  14.625   2.579   1.237 -0.0957  0.0642  0.0048
10279W        W25410  16.356  18.096   0.913  0.1783  0.2005  0.1915
10280W        W25411   8.092  16.359  15.131  0.1408  0.2610  0.0435
10281W        W25412  10.380  12.789  11.172  0.0768  0.1765  0.4737
10282W        W25413   1.558  11.631   1.067  0.1325  0.3304 -0.2244
10283W        W25414   9.846  18.058   4.854 -0.2397 -0.0821 -0.0562
10284W        W25415   0.931  15.685  11.332 -0.0049 -0.1007  0.4115
10285W        W25416  12.523   6.326  13.178 -0.1392  0.3336  0.2669
10286W        W25417  12.290  10.724   2.140 -0.2896  0.0663  0.1874
10287W        W25418   2.183   4.798   3.116  0.2802  0.3291  0.3557
10288W        W25419   8.711   2.145  14.528 -0.0726 -0.2487  0.1837
10289W        W25420  15.161  18.332   0.302 -0.2746  0.1402 -0.0547
10290W        W25421   8.899   2.320   3.746 -0.2127 -0.1083 -0.2399
10291W        W25422   2.539   4.297  11.462  0.2867  0.2706 -0.1580
10292W        W25423   2.418   8.396  13.724 -0.0995  0.0542 -0.0632
10293W        W25424  17.624   4.457   1.182 -0.2708 -0.1180 -0.0162
10294W        W25425  11.916  10.132   2.794  0.0821 -0.1008 -0.2019
10295W        W25426   3.673   4.289   3.923  0.0997 -0.0745  0.0763
10296W        W25427  12.527   4.215   2.044  0.1574 -0.1211 -0.1077
10297W        W25428  16.627   0.342  10.141 -0.1357  0.1316  0.1415
10298W        W25429   0.447  18.024   4.654 -0.3687 -0.0869 -0.1327
10299W        W25430  14.766  15.418  10.657 -0.1458  0.1437 -0.0040
10300W        W25431  11.546   1.333  13.834 -0.3801  0.1735  0.2417
10301W        W25432   7.633   4.397  12.613  0.2415  0.0606 -0.1963
10302W        W25433  13.538  10.092  10.874 -0.4013  0.0084  0.2920
10303W        W25434   9.743   7.032  15.217  0.1416  0.2205 -0.3501
10304W        W25435  18.445  11.880   2.519  0.2829  0.0863  0.0491
10305W        W25436  14.845   5.248   2.734  0.1633 -0.1535 -0.0145
10306W        W25437   3.981  11.094   1.648 -0.3134 -0.0517 -0.0140
10307W        W25438  12.709  16.540   5.141 -0.1058  0.2483 -0.1018
10308W        W25439  11.684   0.902   4.045  0.0830  0.4162 -0.0190
10309W        W25440  16.762   8.719   5.080 -0.1480 -0.0987 -0.1588
10310W        W25441  11.454   5.018   4.765  0.1014  0.1484 -0.0695
10311W        W25442  16.792   8.870  15.274 -0.1045 -0.0192  0.0039
10312W        W25443  11.337   2.444   1.115  0.1065  0.1303 -0.1223
10313W        W25444  11.294   7.920  12.880 -0.0072 -0.0065 -0.0397
10314W        W25445   1.371   5.858   2.075  0.0817  0.0506  0.4413
10315W        W25446   4.339   3.911  13.438  0.0808 -0.2032 -0.2886
10316W        W25447   0.627   5.327   0.336 -0.1032 -0.0738 -0.2490
10317W        W25448  13.687  15.366   3.969  0.1223 -0.0306  0.0188
10318W        W25449   3.181   4.712  15.705 -0.1476  0.2082  0.0517
10319W        W25450  13.797   1.284   0.406  0.0407 -0.1064  0.2635
10320W        W25451   4.525   9.268   0.450 -0.0262  0.0857 -0.0251
10321W        W25452  17.087   8.339   4.239  0.1868 -0.1389  0.0637
10322W        W25453   7.884   2.123   0.248  0.0372 -0.0125  0.1414
10323W        W25454   2.042  13.908   3.669 -0.0304  0.0170 -0.2186
10324W        W25455   2.707   2.659  14.471 -0.0101 -0.0170  0.1337
10325W        W25456  10.511  14.988   0.218 -0.3274 -0.2138  0.0991
10326W        W25457   2.440   5.902  14.746 -0.1181 -0.2334  0.0300
10327W        W25458   2.662  12.835   5.550 -0.4516  0.0316 -0.1318
10328W        W25459  16.966   7.767   2.163  0.0846 -0.0347  0.2571
10329W        W25460   6.337  14.097   1.563  0.2535 -0.0518 -0.2571
10330W        W25461   1.679   4.856  13.926  0.3769  0.0891 -0.1414
10331W        W25462   9.495   4.761  11.412 -0.2731 -0.0150 -0.0943
10332W        W25463   0.988   8.926   0.650 -0.2522  0.0161 -0.0167
10333W        W25464   1.877   6.726   4.659 -0.0446  0.1615  0.0524
10334W        W25465   6.898   6.763  12.239  0.2311  0.2141 -0.1887
10335W        W25466   3.317   9.782   2.751  0.1273  0.0548 -0.1652
10336W        W25467   2.076   4.813  14.928 -0.0493  0.0946 -0.3626
10337W        W25468   1.321  16.336   3.342  0.1420 -0.0520  0.0644
10338W        W25469   6.454  17.231   0.860  0.0559 -0.3696  0.0562
10339W        W25470   2.074   9.276  15.526 -0.1270 -0.0485 -0.0096
10340W        W25471   9.816  14.092  12.603 -0.0088 -0.1095 -0.0561
10341W        W25472   7.461   6.539   6.016 -0.0157  0.0560  0.0276
10342W        W25473   8.101  14.213   0.715  0.2825  0.0741  0.2370
10343W        W25474  14.050  11.397  11.350  0.1212 -0.0134  0.4133
10344W        W25475   9.093   0.899  15.829  0.0218 -0.2486  0.0308
10345W        W25476  10.256   6.638   4.910  0.0769  0.1238  0.0142
10346W        W25477  14.560  13.164   4.690  0.1566  0.0274  0.0704
10347W        W25478   0.883   5.010  15.411  0.1770 -0.0538 -0.0149
10348W        W25479   9.824   7.461   5.024 -0.0681 -0.1787  0.2744
10349W        W25480   0.241  12.016   5.554 -0.2830 -0.1841 -0.1710
10350W        W25481  17.964  14.825   4.201  0.0297  0.2308  0.3865
10351W        W25482   5.932  17.291   0.815 -0.0302  0.1072 -0.0861
10352W        W25483   3.532  15.682   3.561 -0.0317  0.2724  0.0433
10353W        W25484  11.001   5.425   5.622  0.0879  0.0419 -0.0175
10354W        W25485  10.260  15.386  14.016  0.3454  0.2106 -0.3073
10355W        W25486   4.616  15.815  13.650  0.2976 -0.2750 -0.1119
10356W        W25487  12.966  11.601   3.748 -0.1512 -0.1197  0.2131
10357W        W25488   2.378   5.293  13.565 -0.4158 -0.3254 -0.0680
10358W        W25489   8.763  16.348  13.898  0.0960  0.2149 -0.1350
10359W        W25490  10.736  14.567   2.786  0.0199  0.1041  0.0549
10360W        W25491   6.366   0.596   3.867  0.2150  0.0511  0.3140
10361W        W25492   9.852   6.395  11.108 -0.1286  0.0821  0.0093
10362W        W25493   0.032   2.108  14.228  0.0137 -0.0850  0.1420
10363W        W25494   3.509   3.864   2.984 -0.0146  0.1116 -0.0812
10364W        W25495   1.199  15.962   1.083 -0.1178  0.1508 -0.1313
10365W        W25496  15.956   4.440  12.278  0.1699  0.1246  0.0378
10366W        W25497   1.774  18.046   2.160  0.1226 -0.0640  0.2103
10367W        W25498  18.203  10.999   2.027  0.2658  0.1536  0.2144
10368W        W25499  14.814   5.580  11.125 -0.3151 -0.1649  0.5012
10369W        W25500   4.638   8.379   2.667  0.2857 -0.1498  0.0940
10370W        W25501  11.928   1.277   4.281  0.0487  0.0898 -0.1990
10371W        W25502   9.811  16.360  10.917 -0.5044 -0.2054 -0.1696
10372W        W25503   1.163   0.200  11.011 -0.2641 -0.0539 -0.2692
10373W        W25504  10.447  18.203  13.224 -0.0118 -0.1727 -0.2702
10374W        W25505  11.817   1.208  10.314 -0.0259 -0.0854 -0.0708
10375W        W25506  15.103   8.974   3.640 -0.0813  0.1644  0.0945
10376W        W25507  12.165  18.278  12.931  0.0353 -0.2058  0.3995
10377W        W25508   2.848  16.324   2.367 -0.1498  0.0777 -0.0699
10378W        W25509  13.309  12.009  10.974 -0.3541  0.0947  0.0976
10379W        W25510   9.423  11.931  11.844 -0.1369  0.1511 -0.0186
10380W        W25511  14.699  17.172   4.163 -0.0842  0.2434  0.1729
10381W        W25512   4.083  15.877   9.570  0.2477 -0.1150 -0.6825
10382W        W25513   9.892   8.257   0.321 -0.1931  0.1264 -0.2080
10383W        W25514   1.507  10.083  13.248  0.2048  0.1844 -0.1973
10384W        W25515   6.662  10.104   2.599  0.0779  0.0701 -0.0380
10385W        W25516  17.832   6.366   2.388 -0.2086  0.1376 -0.0463
10386W        W25517   0.010   6.312   0.540  0.2675 -0.0400 -0.0415
10387W        W25518  15.159   9.198   0.472  0.1445 -0.3481  0.1313
10388W        W25519   7.876  16.936   3.242 -0.1752  0.0495 -0.2575
10389W        W25520  12.842  17.040   1.478  0.0529  0.2142  0.0870
10390W        W25521   4.175   3.215   0.145 -0.3728 -0.1406 -0.2200
10391W        W25522  17.920   7.468   5.364  0.0085  0.1954 -0.0914
10392W        W25523  12.187   4.562  15.476 -0.2952 -0.0261 -0.2287
10393W        W25524  12.686  12.810  11.242 -0.0960 -0.0742 -0.1505
10394W        W25525   2.303  15.950   1.584  0.1381  0.1462 -0.3256
10395W        W25526   6.272  16.860  12.864  0.0743  0.4523  0.0012
10396W        W25527  15.496   0.337   5.603  0.0304 -0.0932 -0.0787
10397W        W25528  16.626  16.751   1.085 -0.0106  0.0220  0.0393
10398W        W25529  12.929   7.803   4.067 -0.2176 -0.0111 -0.3061
10399W        W25530  11.469   4.762   1.063  0.1613  0.1476  0.0713
10400W        W25531  17.141   8.898   0.267 -0.1224 -0.1682  0.1165
10401W        W25532  14.121   8.505  11.198  0.2511  0.2081  0.1685
10402W        W25533   0.146   4.644  13.837 -0.0159  0.2145  0.0144
10403W        W25534   1.295   2.829  13.119  0.0916 -0.0429 -0.2090
10404W        W25535   1.265  13.764  15.412  0.2483 -0.1162  0.0689
10405W        W25536  14.561  11.173  14.748 -0.0068 -0.0827  0.0539
10406W        W25537   7.823  11.377   5.643 -0.2253 -0.3337 -0.0977
10407W        W25538  15.600   8.926  12.865  0.0162  0.2457  0.3901
10408W        W25539  18.459  15.130   2.190 -0.1603 -0.1076 -0.1631
10409W        W25540  10.364   4.866   2.186  0.1485  0.2464  0.1809
10410W        W25541  14.452   9.545   2.480  0.1051 -0.0984 -0.5097
10411W        W25542  14.285   9.212  10.995 -0.4295 -0.3197 -0.1159
10412W        W25543   1.512   3.601  14.674 -0.3252  0.1947 -0.3239
10413W        W25544  15.964  11.822   0.986 -0.0735 -0.1367  0.0817
10414W        W25545  12.937  14.152  12.426  0.2700 -0.2049  0.1338
10415W        W25546   0.445  13.991  14.854 -0.0368  0.3094  0.0540
10416W        W25547   2.536  10.550  14.157 -0.0329  0.2352 -0.1451
10417W        W25548  16.329  17.424   2.543  0.1538 -0.0753 -0.1554
10418W        W25549   3.076   7.592  15.085  0.1415  0.0101  0.0560
10419W        W25550  17.784  10.597   4.957 -0.0630 -0.0087  0.3819
10420W        W25551   7.202   1.175   5.017  0.0497 -0.0896  0.0760
10421W        W25552  10.127   0.394   3.149  0.2602 -0.0928 -0.2597
10422W        W25553   9.920   7.007  14.669  0.0453 -0.1628  0.2043
10423W        W25554   0.915  17.855   4.383  0.0928  0.0061  0.2033
10424W        W25555   6.423   7.966  11.620 -0.4594 -0.0115  0.3561
10425W        W25556  16.111  14.740  14.877 -0.0425  0.3254 -0.2128
10426W        W25557  17.099   0.760   0.822 -0.0815 -0.0028  0.1758
10427W        W25558   3.989  12.788   0.570 -0.2299  0.0846  0.0731
10428W        W25559  14.753   2.990   0.999 -0.0237  0.1265 -0.0630
10429W        W25560   9.723  12.033   9.640 -0.0921 -0.4269  0.2137
10430W        W25561   4.159  17.919   0.832 -0.0268 -0.1924 -0.0032
10431W        W25562   8.003  12.183   2.502  0.0625 -0.2152  0.0066
10432W        W25563  17.959   2.202  12.446  0.0142 -0.3123  0.1912
10433W        W25564   7.474   1.428   0.900  0.4916 -0.1376  0.0162
10434W        W25565   6.845   8.434   4.710  0.0697 -0.2028  0.0680
10435W        W25566  10.669   1.297  14.920 -0.0845 -0.0039 -0.0599
10436W        W25567  13.349   8.600   3.978  0.0896 -0.3094  0.0468
10437W        W25568  13.734   0.217  13.605  0.1300 -0.1520  0.0797
10438W        W25569   9.628  14.578  13.361  0.1527  0.0200  0.0566
10439W        W25570   5.244   0.739  11.604  0.0330 -0.0642 -0.0929
10440W        W25571  17.853   8.868   3.321  0.3359 -0.1666 -0.2137
10441W        W25572   5.115  17.136   1.341 -0.0021  0.1514  0.0424
10442W        W25573  14.375  10.184  12.195 -0.1437 -0.0119 -0.1425
10443W        W25574  17.063  11.615  13.724 -0.2307 -0.0403 -0.1042
10444W        W25575  13.162   8.047  13.343 -0.2076 -0.0279 -0.0946
10445W        W25576  14.172  12.787   4.690 -0.1480 -0.0047  0.1790
10446W        W25577   6.174   0.864  14.703  0.2473  0.0138  0.0870
10447W        W25578   7.299  15.481   0.646 -0.0632  0.0221  0.5531
10448W        W25579  15.393  15.558  14.940  0.2122 -0.1688 -0.0244
10449W        W25580   0.446   3.318   3.116  0.2102  0.0428 -0.2530
10450W        W25581   6.424   9.828  13.375 -0.2499 -0.1206 -0.0612
10451W        W25582  11.466  12.192   1.881  0.3442  0.2943 -0.1772
10452W        W25583  17.411   8.582  11.989  0.0735 -0.1448 -0.1593
10453W        W25584  13.464   1.562   3.265  0.1399  0.2704  0.0887
10454W        W25585   7.512  15.567   2.608 -0.0713 -0.0775 -0.0156
10455W        W25586   4.394   1.957  11.297 -0.0305 -0.1545  0.1045
10456W        W25587  15.944   3.642   2.952  0.1847 -0.0718  0.0147
10457W        W25588   6.356  15.474   1.720 -0.1369  0.3646 -0.1381
10458W        W25589  17.815   2.664   0.699 -0.1739  0.0740  0.1177
10459W        W25590   7.076  12.396  15.356 -0.0743 -0.0055  0.0514
10460W        W25591   1.099   6.267   0.703 -0.0749  0.2325 -0.1066
10461W        W25592  18.101   2.257   3.742 -0.0636  0.1012  0.1706
10462W        W25593  10.800  12.371  12.208 -0.3755  0.0264  0.0626
10463W        W25594  16.874   9.138   1.367 -0.0478  0.1135  0.4698
10464W        W25595   7.958   2.365   3.258  0.2430  0.0362  0.1063
10465W        W25596  10.356  11.777   3.236  0.1035 -0.0223 -0.2268
10466W        W25597   7.843  15.665   1.597  0.1374 -0.0419 -0.1032
10467W        W25598  16.745  17.717   4.575  0.0210  0.0181 -0.2212
10468W        W25599  10.396   9.890  10.333  0.1053  0.0374  0.0656
10469W        W25600   4.765   2.963  10.462 -0.3118  0.3354  0.1894
10470W        W25601   1.817   0.551   3.132  0.2478 -0.0564  0.1604
10471W        W25602  14.332  12.412   0.418  0.0545  0.2316 -0.2919
10472W        W25603  17.989   9.581  15.524 -0.0526 -0.0221  0.1887
10473W        W25604  15.842  14.469   4.381  0.1273  0.1225 -0.1080
10474W        W25605  15.985   4.392  14.676 -0.3251  0.0824 -0.1129
10475W        W25606  10.439   9.131  14.337 -0.1316 -0.1966 -0.1585
10476W        W25607   2.517   0.455   3.717 -0.0243  0.0175  0.1783
10477W        W25608  10.700   2.119   4.394 -0.0432  0.1542  0.0380
10478W        W25609  17.676   7.730  13.705 -0.2420 -0.2445  0.0663
10479W        W25610  12.815   4.584  12.302  0.1700 -0.0573  0.0639
10480W        W25611   8.541  12.131   0.047 -0.0060 -0.2580 -0.0914
10481W        W25612   7.349   1.907  11.640  0.2114  0.1074 -0.0037
10482W        W25613   3.447   4.587  14.774  0.1200 -0.0401  0.2605
10483W        W25614   7.546  11.254  11.021 -0.0018 -0.1336 -0.4574
10484W        W25615   9.004  12.314   5.433  0.1057 -0.0581  0.0766
10485W        W25616   8.210   0.335   9.711 -0.2460  0.2094  0.0866
10486W        W25617   3.440  16.721  10.946 -0.1306 -0.2837 -0.0479
10487W        W25618   5.449  15.430  11.905  0.3465  0.1438  0.0656
10488W        W25619   2.402   1.756  14.695 -0.1706  0.1896 -0.0875
10489W        W25620   4.790   8.667  12.370 -0.1450  0.1633  0.4197
10490W        W25621   0.366  10.339  15.204  0.0425  0.0347 -0.2780
10491W        W25622   0.958  12.342   0.724 -0.3262  0.4874 -0.1818
10492W        W25623  17.268  13.042  10.510  0.1111 -0.1188 -0.0902
10493W        W25624   3.536   8.964  15.263 -0.0133  0.1029 -0.0065
10494W        W25625   6.712   2.767   3.394 -0.0919 -0.3149  0.0812
10495W        W25626   7.100  15.798   2.799  0.2018 -0.0820 -0.0865
10496W        W25627  14.354   4.372   5.351 -0.0184  0.3768 -0.1380
10497W        W25628  16.442  16.360   1.545  0.2107  0.3572 -0.0650
10498W        W25629  17.779  11.773   5.315 -0.2915  0.0664 -0.0330
10499W        W25630   2.238  17.025   5.269  0.0507  0.1160 -0.3793
10500W        W25631   6.836   6.817  10.801 -0.1472  0.1556  0.0390
10501W        W25632  15.589  10.563  11.014  0.2818  0.0043 -0.3477
10502W        W25633  17.143  13.926  11.747  0.0987  0.0325 -0.1712
10503W        W25634  14.906   2.055   3.959  0.1447  0.2865  0.1507
10504W        W25635   9.926   1.786  11.361 -0.2460  0.3248  0.0546
10505W        W25636   9.598   2.217  11.349  0.0304 -0.0285 -0.2173
10506W        W25637   7.903  10.242   5.558 -0.2113  0.2852  0.0223
10507W        W25638  15.966   4.906   3.379  0.2492 -0.2750 -0.0759
10508W        W25639   8.161  17.754  15.454  0.1093 -0.0851  0.2529
10509W        W25640   0.399   3.437   4.355  0.0925 -0.0748  0.0148
10510W        W25641  11.240  17.956  10.740 -0.0048 -0.2782 -0.1635
10511W        W25642   1.241  13.276   5.162 -0.3161 -0.0245 -0.1681
10512W        W25643   2.655  14.886   3.081 -0.1019  0.0443 -0.0190
10513W        W25644   3.918   1.344  11.536 -0.3572 -0.0905 -0.2591
10514W        W25645  15.784  17.770  12.447 -0.0604  0.0717  0.4198
10515W        W25646   0.681  18.471  11.765  0.1334 -0.1495 -0.0946
10516W        W25647  13.888  13.115  15.286 -0.0986 -0.1660 -0.2121
10517W        W25648   3.226  10.297   6.011  0.0609  0.0137 -0.2063
10518W        W25649   7.526   7.446   0.507  0.2425  0.0687 -0.0427
10519W        W25650   4.640  13.454   2.637  0.1362  0.2530  0.1602
10520W        W25651   1.718   3.265  10.210 -0.3049  0.1958 -0.1805
10521W        W25652   1.420  12.229   5.226 -0.0027  0.3628 -0.2171
10522W        W25653  16.626   0.664  15.336  0.2439 -0.0534  0.0918
10523W        W25654   3.293  18.277  13.092 -0.2517 -0.4870 -0.0647
10524W        W25655   5.549  14.214   4.367  0.0909 -0.1440  0.0994
10525W        W25656  18.138   7.647  13.497 -0.2040 -0.0195 -0.0507
10526W        W25657  14.421   3.841  11.005 -0.1119  0.1507 -0.0615
10527W        W25658  16.865  17.758   1.723 -0.0619 -0.1396 -0.1716
10528W        W25659  12.554   2.161  11.305  0.1136  0.2181 -0.0911
10529W        W25660   5.342   9.912   2.576  0.4033 -0.0916  0.1402
10530W        W25661  13.254  15.545  15.061  0.0927  0.0318 -0.2605
10531W        W25662  16.082  13.253  13.011  0.0344  0.2852 -0.0666
10532W        W25663   8.701   2.950   5.465  0.1687 -0.0395  0.0943
10533W        W25664  18.064   2.232   2.458  0.3715  0.1416 -0.1002
10534W        W25665   5.382  13.965  15.822  0.1015 -0.1237  0.1204
10535W        W25666   4.038   0.281   0.410  0.0498  0.1307 -0.2060
10536W        W25667  15.804  10.559   3.122 -0.1100  0.3194  0.0804
10537W        W25668  13.767  14.391  14.996 -0.1509 -0.0833  0.0110
10538W        W25669  11.625   2.333   1.554  0.3869  0.1159 -0.0298
10539W        W25670   4.195   6.585  10.969  0.4029 -0.0274 -0.0377
10540W        W25671  17.297  10.488  11.968  0.1828  0.0929 -0.1044
10541W        W25672   6.506   4.026  13.790  0.0422 -0.0367  0.0358
10542W        W25673   6.272  14.973   1.768  0.0283  0.2345  0.0303
10543W        W25674   3.196   1.630   2.381 -0.0487  0.1340 -0.1068
10544W        W25675   0.873   4.131   2.497 -0.3283  0.1084 -0.1391
10545W        W25676   4.018  15.757  15.209  0.1207 -0.1897  0.1433
10546W        W25677   6.497  11.637  10.714  0.4298  0.3526 -0.0843
10547W        W25678   5.568  18.030  14.891  0.0274 -0.0262 -0.0676
10548W        W25679  17.792  17.633   1.158  0.2447  0.0883 -0.0816
10549W        W25680   1.971  12.045   2.741 -0.1366  0.1069 -0.1758
10550W        W25681  17.987   1.841   1.261 -0.0067 -0.2902  0.0617
10551W        W25682   6.091  11.713   2.658  0.0844  0.1642 -0.1138
10552W        W25683   4.583  16.660  13.221 -0.2398  0.1396 -0.0773
10553W        W25684  18.096  17.820  13.109  0.1185  0.4521  0.1785
10554W        W25685   3.902  14.173   3.843  0.1603  0.2243  0.6173
10555W        W25686   7.458   1.020  11.618 -0.1297  0.7639  0.1206
10556W        W25687   4.598   9.352  14.187  0.1864 -0.0441  0.2322
10557W        W25688   2.835   6.499   1.363 -0.1908 -0.0427  0.0413
10558W        W25689   5.602  18.060  12.657  0.2832 -0.4382  0.1982
10559W        W25690  12.450  10.681  13.117 -0.0965 -0.0617 -0.1492
10560W        W25691   7.314   9.573   1.675 -0.1325  0.0473 -0.2755
10561W        W25692  11.223  16.134  12.764 -0.1075  0.3452 -0.0501
10562W        W25693  16.472  11.464   4.258 -0.1483 -0.2376  0.0680
10563W        W25694   0.842   0.439  11.725  0.0563 -0.2703 -0.0373
10564W        W25695   7.125   3.159  12.770  0.0311 -0.0249 -0.1265
10565W        W25696   0.119  12.317   5.110  0.0013  0.0884 -0.0278
10566W        W25697  13.650   7.175  15.162  0.0187  0.2248  0.1124
10567W        W25698   1.254  17.770   3.012 -0.1713  0.1078  0.0058
10568W        W25699  14.827   4.709  14.665 -0.0840  0.2594 -0.1692
10569W        W25700  15.213   1.973   3.520 -0.1249 -0.0035  0.3698
10570W        W25701   7.360   6.190  13.623 -0.1582 -0.2759  0.0373
10571W        W25702   1.507   6.031   0.053  0.1516  0.0894 -0.2562
10572W        W25703   9.152   5.730  13.079  0.3294 -0.1904  0.0500
10573W        W25704   3.550   2.341   1.772  0.2020 -0.3113  0.0633
10574W        W25705  11.422   7.510   3.036 -0.0877 -0.1822 -0.1220
10575W        W25706  11.847  17.468  11.425 -0.1078  0.2726 -0.2095
10576W        W25707  16.076   0.882  14.842  0.0740 -0.2372  0.0696
10577W        W25708  16.906  14.465   5.049  0.1663  0.0433  0.1374
10578W        W25709   6.874  11.679  12.759 -0.2127 -0.1122 -0.1494
10579W        W25710   2.039   8.632  13.475 -0.0416  0.0221  0.2604
10580W        W25711   9.291  13.943  14.109  0.0808 -0.0179 -0.1260
10581W        W25712   6.673   2.085  11.029 -0.1840 -0.0162  0.1979
10582W        W25713  10.698   3.039   2.683  0.2228 -0.0335  0.0871
10583W        W25714   0.160   4.708   3.104  0.0353  0.4876 -0.3730
10584W        W25715   7.548  16.479  11.218 -0.2719  0.1165 -0.0216
10585W        W25716   5.204   3.990   0.430  0.2740  0.1359  0.0297
10586W        W25717  15.973   7.301   4.348  0.1383 -0.2701  0.3982
10587W        W25718  10.242   9.959  15.433  0.0640 -0.1368  0.2092
10588W        W25719  13.394   6.796   3.964 -0.1655  0.1704 -0.2499
10589W        W25720   8.834   5.803   0.686  0.0251  0.0119  0.1411
10590W        W25721   2.363   5.247  15.795 -0.3278 -0.1540 -0.0683
10591W        W25722   7.841   2.439   4.623 -0.0721  0.0718  0.0224
10592W        W25723   8.042   6.242  11.131 -0.0030 -0.1130  0.1283
10593W        W25724   2.791   8.184   6.132  0.1033 -0.2037 -0.1059
10594W        W25725   0.360   6.688  15.625 -0.1274 -0.2923  0.1049
10595W        W25726   7.207  15.225  14.382  0.0172  0.0399  0.0503
10596W        W25727   3.145  13.314   5.357  0.0449  0.0307 -0.1450
10597W        W25728   5.627   0.601   3.043  0.1095 -0.0557 -0.1120
10598W        W25729   2.178   6.072  14.161  0.5194  0.0053  0.3236
10599W        W25730  10.003  14.202   1.143  0.1878  0.1874 -0.0329
10600W        W25731   8.390   0.652   3.751 -0.0889  0.1834 -0.0469
10601W        W25732  12.665   2.755   0.237  0.0211 -0.1930 -0.2566
10602W        W25733  15.152  14.898  13.594 -0.0893  0.0323  0.0867
10603W        W25734   3.849  13.021  11.303  0.0015 -0.0271  0.1015
10604W        W25735   2.702  18.257  13.755 -0.1245 -0.0247  0.1239
10605W        W25736   5.156  12.174   9.718 -0.1600  0.4083  0.0923
10606W        W25737   6.396  16.061   5.624 -0.2694  0.0501 -0.1281
10607W        W25738   0.040  13.006   0.382  0.1942  0.1745  0.1826
10608W        W25739   8.808   9.076  15.173  0.0497  0.1392  0.0082
10609W        W25740  15.282  18.014   5.557  0.4337  0.1347 -0.2573
10610W        W25741   6.746  15.044  14.382  0.0011 -0.0356 -0.2687
10611W        W25742   5.674   3.653   0.523 -0.1668 -0.1581  0.0964
10612W        W25743  14.886  15.263   3.744  0.0898 -0.0446 -0.1151
10613W        W25744  16.969  14.626   0.847  0.1649  0.1407  0.3667
10614W        W25745  14.063   9.276  13.187 -0.1342 -0.0093 -0.3671
10615W        W25746   5.678  17.934  13.524 -0.2658  0.0650  0.2539
10616W        W25747  16.235   7.232   1.224  0.0612  0.1925 -0.0492
10617W        W25748   4.737   3.495  10.471 -0.0639 -0.0446 -0.0463
10618W        W25749  13.082  14.525   5.502 -0.1378 -0.0582  0.0695
10619W        W25750   9.257  14.138   0.717  0.4030  0.2024 -0.2481
10620W        W25751   6.153   1.759  13.567  0.2186 -0.0574 -0.0786
10621W        W25752   2.835  12.430   1.117 -0.2342  0.2148 -0.0812
10622W        W25753  16.854   8.865  12.780  0.0510  0.0891  0.1215
10623W        W25754   9.833   0.923   4.013 -0.1868  0.0424 -0.2787
10624W        W25755  13.246  12.209  11.497 -0.2669 -0.1894 -0.3607
10625W        W25756   8.939   5.486  12.646  0.2782 -0.0972 -0.0860
10626W        W25757  15.319   0.986  15.405  0.0982 -0.0011  0.0609
10627W        W25758   0.851   7.354   3.984 -0.0976 -0.1664  0.0775
10628W        W25759   5.218  17.977  15.810  0.1970  0.2120 -0.1843
10629W        W25760  12.750  14.410   0.046  0.0350  0.1354 -0.0363
10630W        W25761  11.110   2.041  14.192  0.3467 -0.1032 -0.0050
10631W        W25762  16.185   1.496  11.350  0.0198 -0.0178 -0.1752
10632W        W25763   7.530   9.300  14.017 -0.0189 -0.1328 -0.1995
10633W        W25764   0.980  18.336  12.157 -0.0531  0.0023  0.0101
10634W        W25765  12.316   3.693   0.603 -0.3033 -0.1157 -0.0482
10635W        W25766  10.380   5.197   1.321 -0.3186 -0.3157 -0.1422
10636W        W25767  11.735   7.793  12.628  0.2399 -0.0380  0.0111
10637W        W25768   8.435   8.579   0.325  0.1146 -0.0634 -0.0578
10638W        W25769  11.103  18.149  13.719 -0.2786  0.2152  0.0630
10639W        W25770  12.695  10.244  10.832 -0.1169  0.2214  0.0017
10640W        W25771   6.497   7.204  13.117 -0.0747  0.1616  0.0675
10641W        W25772   9.280   3.292   3.781  0.0532  0.0869 -0.3338
10642W        W25773  12.627   8.879  15.477  0.0802 -0.1659  0.1707
10643W        W25774   9.891   8.321  13.260 -0.4094  0.0732 -0.0912
10644W        W25775  15.079   9.794   1.845 -0.1216  0.0344  0.2270
10645W        W25776  15.632   3.191   0.253  0.1969  0.0740  0.0074
10646W        W25777  13.909   1.295  13.931  0.0152  0.0356 -0.1590
10647W        W25778   9.052  12.139   5.868 -0.0012  0.0755  0.0349
10648W        W25779   2.157   7.056  14.205  0.1087 -0.1108  0.0365
10649W        W25780  17.626   9.780  12.642 -0.0585 -0.1299  0.0789
10650W        W25781   4.895   4.101  11.115  0.1501  0.1224 -0.1258
10651W        W25782   8.275  13.514  13.965 -0.0195 -0.1744  0.1665
10652W        W25783   4.218  16.792  11.667  0.1647 -0.4655 -0.0256
10653W        W25784  14.667   3.963   1.080  0.3487  0.0973 -0.1780
10654W        W25785   4.008  13.396  11.657 -0.1363  0.1384  0.1618
10655W        W25786   4.699   5.951   0.115  0.0174 -0.0158  0.2700
10656W        W25787  17.362  15.449   3.647 -0.0493  0.0991  0.1430
10657W        W25788  16.227  16.697  14.929 -0.2560  0.2200  0.1546
10658W        W25789  10.396  14.907  10.283  0.0181 -0.0449 -0.2253
10659W        W25790   9.707  11.863  12.654 -0.0700  0.2382  0.0329
10660W        W25791  15.155  16.336   1.379  0.0309  0.0355 -0.0767
10661W        W25792  16.782   2.829  15.146 -0.3027  0.0379  0.0313
10662W        W25793  16.697  16.257   3.065  0.1210 -0.0314 -0.0712
10663W        W25794  12.358   7.180   3.354  0.1503  0.2123 -0.0712
10664W        W25795  13.265   4.455  15.592 -0.3719 -0.0540  0.0476
10665W        W25796   9.130  11.896   3.667  0.1152 -0.0721 -0.0461
10666W        W25797  17.032  15.265  11.577 -0.0757  0.0537 -0.0682
10667W        W25798  14.518  13.857   4.129  0.2059 -0.1943 -0.0697
10668W        W25799   4.363  10.334  12.427  0.0774 -0.0521  0.0996
10669W        W25800   7.881   1.670   4.894  0.2188  0.1789 -0.2784
10670W        W25801   9.576   5.822  14.317 -0.3576 -0.1262  0.1000
10671W        W25802  10.237  10.559  13.370  0.2859  0.0218 -0.2851
10672W        W25803   2.799  12.989  10.240  0.0452  0.1830 -0.1249
10673W        W25804   9.328  13.532   3.652  0.1684 -0.0024 -0.0336
10674W        W25805   1.132   5.465   1.888 -0.0430 -0.1302  0.1219
10675W        W25806  12.968  14.467   1.384 -0.2054  0.1779 -0.1494
10676W        W25807   3.708  13.845   5.086 -0.0219  0.0275 -0.0312
10677W        W25808  11.928   6.745  13.632 -0.1250 -0.1674  0.0251
10678W        W25809   7.588  12.839  11.879  0.1162 -0.2381  0.1458
10679W        W25810  12.864  14.225   2.400  0.0093  0.1695  0.0904
10680W        W25811  10.565  16.265   0.411  0.1872 -0.1527  0.1404
10681W        W25812   9.573  17.133  11.060  0.0531  0.1976  0.0864
10682W        W25813  13.701   7.492  12.079 -0.0100  0.0582  0.1690
10683W        W25814  13.993   0.088   5.730 -0.0518 -0.1226 -0.0750
10684W        W25815  17.329  13.158   0.671 -0.0257  0.2776 -0.0727
10685W        W25816   5.030   3.668  12.342  0.4359  0.2898  0.3604
10686W        W25817   1.899  15.005  11.911 -0.1704 -0.2018 -0.0536
10687W        W25818  18.391  12.987  12.887  0.0787 -0.0816 -0.0816
10688W        W25819   7.157  18.140   2.508  0.0218  0.0719 -0.3023
10689W        W25820  17.483   2.797   5.006  0.0230  0.0489 -0.1027
10690W        W25821   4.123   2.819   4.714  0.0735 -0.1731 -0.0304
10691W        W25822   9.933   0.384   0.649 -0.1168  0.1213 -0.0667
10692W        W25823  12.953   0.825  12.340 -0.2208  0.2839 -0.1986
10693W        W25824  14.848   1.003  13.985  0.1471  0.3082  0.1145
10694W        W25825   0.051   5.202  12.644  0.3213 -0.3226 -0.2587
10695W        W25826  16.566   9.340  15.024 -0.2736  0.2714  0.3272
10696W        W25827   4.110  14.881  14.990 -0.3070  0.1102  0.0589
10697W        W25828   7.178   6.425  10.953 -0.2023  0.0389 -0.1600
10698W        W25829   3.463  12.659  13.779 -0.2784 -0.1918  0.1555
10699W        W25830  14.069   5.673   5.367  0.0374 -0.5010  0.0743
10700W        W25831   6.312   7.999   0.301  0.0522 -0.2008 -0.0661
10701W        W25832  15.373   5.385  15.527 -0.1268  0.0289 -0.0583
10702W        W25833  13.713   9.011  15.381  0.1456  0.0720 -0.2525
10703W        W25834   4.437  13.459  11.929 -0.0239  0.2089 -0.1402
10704W        W25835   3.462  15.820  14.241 -0.2284  0.0961 -0.2519
10705W        W25836  13.560   8.333   0.650  0.5763 -0.0468  0.1387
10706W        W25837   1.829  17.872   0.174  0.0752 -0.1907 -0.0942
10707W        W25838  16.488   6.927   4.260  0.2242  0.0460 -0.1825
10708W        W25839   3.259   6.434  13.133 -0.1045 -0.1126 -0.4184
10709W        W25840   7.006  16.330  11.266  0.0157  0.0383  0.0728
10710W        W25841  12.705  14.954  14.665 -0.0755  0.2712 -0.0571
10711W        W25842  15.314   5.236   2.598 -0.1707  0.3421  0.1614
10712W        W25843  12.628  16.991  11.378 -0.1635  0.0338  0.0958
10713W        W25844   9.895  17.133   9.612  0.1312 -0.1602 -0.0621
10714W        W25845  13.318   9.702   3.927 -0.3816  0.1131  0.0242
10715W        W25846   8.380   4.200  15.703  0.0504 -0.0259 -0.0511
10716W        W25847   2.663  17.969  14.176 -0.2254  0.1232 -0.1095
10717W        W25848   2.129   7.098   2.038 -0.1327 -0.2005  0.2117
10718W        W25849  15.802  13.132  14.202 -0.3134 -0.3656 -0.1313
10719W        W25850  11.796   8.959   4.774 -0.1765 -0.0831  0.1146
10720W        W25851   8.531   7.941  14.422  0.1056  0.0524  0.0192
10721W        W25852   4.444   1.115   1.746 -0.1975  0.0657 -0.1783
10722W        W25853  16.372  10.255   6.012 -0.1965  0.2358  0.1677
10723W        W25854  16.329   7.084  13.516 -0.1060  0.1808 -0.1140
10724W        W25855  16.836   4.619   4.820 -0.4222 -0.1720  0.1370
10725W        W25856   1.954   7.409  11.993  0.0258 -0.0974 -0.2600
10726W        W25857   4.832   5.682  13.805 -0.1002  0.0786  0.0249
10727W        W25858  17.367   7.047   3.315  0.0445  0.0830  0.1892
10728W        W25859  10.558   9.503  12.435  0.1077  0.3176 -0.0470
10729W        W25860  17.117  16.918  14.141  0.1819  0.0365  0.1004
10730W        W25861  17.170   0.382   0.382 -0.1210 -0.1235 -0.1036
10731W        W25862  14.546   0.456  15.694  0.0781 -0.0076  0.2527
10732W        W25863  18.230  14.430   1.764 -0.1076 -0.2246 -0.0710
10733W        W25864  16.111  11.475   5.268 -0.1528 -0.2514 -0.1362
10734W        W25865  18.287  13.960   0.668 -0.0278  0.0939 -0.0203
10735W        W25866   4.189  14.561   5.118 -0.2213  0.0083 -0.2374
10736W        W25867  10.787   9.732  15.319 -0.1589  0.0035 -0.1697
10737W        W25868  13.111   2.251  14.291  0.3555  0.0752  0.2589
10738W        W25869  12.475   5.131   2.045 -0.1070  0.0814 -0.0478
10739W        W25870   1.289   8.288   1.524  0.3378  0.0142  0.2472
10740W        W25871  16.228  14.743  11.345  0.1075 -0.1792 -0.1890
10741W        W25872  13.019  16.744  14.849 -0.1548 -0.3197 -0.0579
10742W        W25873  13.909  11.974  14.485 -0.0039  0.3697 -0.2424
10743W        W25874  15.895   1.700  14.777 -0.1110 -0.0547  0.2273
10744W        W25875   8.059  10.567   9.940  0.0090 -0.2968 -0.1091
10745W        W25876  13.369   0.807   1.365 -0.0780 -0.1831  0.0963
10746W        W25877  12.274  13.078  14.115  0.0514  0.0047  0.2977
10747W        W25878  17.639   4.721  11.731 -0.2134 -0.2211  0.1066
10748W        W25879  16.330  12.095  11.729 -0.1179  0.0347 -0.1163
10749W        W25880   1.559   2.138   9.981  0.1483  0.2481  0.1240
10750W        W25881   9.865   6.536   3.453  0.0308 -0.1304  0.0716
10751W        W25882  16.549  17.773  10.195  0.2280  0.0901 -0.0584
10752W        W25883   5.770  16.112   0.630 -0.0079 -0.2432 -0.1585
10753W        W25884  12.764  10.967  14.081  0.1492 -0.2746 -0.0053
10754W        W25885   0.519  17.901   2.944  0.1346  0.0725 -0.0345
10755W        W25886   8.677  10.182  11.628  0.3990 -0.1142  0.0281
10756W        W25887   4.546   4.272   3.720 -0.2432 -0.2189 -0.2035
10757W        W25888  17.934  16.464   3.463 -0.1339 -0.0602  0.1559
10758W        W25889  10.801  17.638   0.050  0.0936 -0.0906 -0.1615
10759W        W25890  11.426  13.779   2.058 -0.2654  0.0812  0.1094
10760W        W25891   8.924   6.093   4.166 -0.1018 -0.1999  0.2255
10761W        W25892   1.884   7.425   2.352  0.0781  0.0090  0.1147
10762W        W25893   1.467  15.327   4.873  0.1380  0.0640 -0.0930
10763W        W25894  13.580  16.110  14.389  0.2494  0.0813  0.5093
10764W        W25895  18.034  17.154   4.012 -0.4806  0.0845 -0.0160
10765W        W25896   4.964   3.031  12.079  0.0402 -0.1370 -0.2306
10766W        W25897  16.815   3.944   4.205  0.1016 -0.2031  0.2100
10767W        W25898   1.610   0.706  11.129  0.4264 -0.0083 -0.0340
10768W        W25899   8.628  14.978   2.690  0.0731 -0.0272  0.1545
10769W        W25900  11.715   0.224   0.459  0.1645 -0.0765  0.0560
10770W        W25901  10.229  16.752  12.752  0.1007 -0.1966  0.3373
10771W        W25902  13.628   4.714   3.582 -0.2668  0.0101 -0.0485
10772W        W25903  15.584  16.538  12.116 -0.2605 -0.0893  0.1226
10773W        W25904   9.121   7.584   1.775 -0.0224  0.2006 -0.2192
10774W        W25905   1.877   0.083  14.316  0.1822 -0.2603  0.2943
10775W        W25906  16.177  12.806   1.327  0.0036  0.1451 -0.1846
10776W        W25907  13.595   5.068   3.245  0.2233 -0.0301 -0.1906
10777W        W25908  11.045   7.074  15.371 -0.0145 -0.0266 -0.2840
10778W        W25909  18.427  18.373  14.086 -0.0210 -0.1256  0.0949
10779W        W25910  16.265   2.159   0.492 -0.1020  0.3244  0.0787
10780W        W25911   5.497   5.375   1.513 -0.2328  0.0674  0.0513
10781W        W25912   2.552   6.853   2.348  0.1097  0.1483 -0.0509
10782W        W25913   9.875   2.006  11.866  0.0610  0.0809  0.0615
10783W        W25914  15.739  13.268   6.265 -0.0577  0.1742  0.1896
10784W        W25915   1.367   5.361   5.151  0.1330 -0.2645  0.0230
10785W        W25916  16.482   7.137  11.578  0.0548 -0.2526 -0.1193
10786W        W25917  15.010   7.938   5.264  0.0242  0.0600  0.4778
10787W        W25918  13.251  16.434   4.709  0.4228 -0.1414  0.0965
10788W        W25919  10.264   8.742   2.266 -0.0442 -0.1130  0.0239
10789W        W25920   3.351   4.221  15.758  0.1227  0.1225  0.2049
10790W        W25921   7.382  18.414   4.376  0.0542 -0.1647  0.3033
10791W        W25922  16.911   1.970   4.650  0.2606 -0.0309 -0.0897
10792W        W25923  14.619  12.118  10.641  0.0130 -0.1389 -0.0547
10793W        W25924  14.181  12.180   4.837  0.1954 -0.1892 -0.2307
10794W        W25925  12.882  14.049  14.191 -0.1783  0.0326 -0.1111
10795W        W25926   1.552   0.619  12.075  0.0652 -0.2470  0.0421
10796W        W25927   3.368  13.726   3.108  0.4129  0.0253  0.2748
10797W        W25928   5.346   6.470  15.128  0.1274 -0.1782 -0.2640
10798W        W25929   3.752  11.174   0.376 -0.0314 -0.1894  0.1364
10799W        W25930   0.030   8.822   4.996 -0.0043  0.2556  0.1315
10800W        W25931  11.125  12.924  13.029  0.4039  0.0725  0.0431
10801W        W25932  13.222  13.547  15.749 -0.1053 -0.2765 -0.0277
10802W        W25933   3.084   4.811   5.325 -0.2446  0.3277 -0.1095
10803W        W25934  13.872  13.582   0.971 -0.1543  0.0896  0.1942
10804W        W25935   2.154  12.862   1.686 -0.0072  0.0213 -0.4039
10805W        W25936   4.911   8.638   4.564  0.2568 -0.0862 -0.1862
10806W        W25937  17.593  16.701  10.798  0.0782  0.0544  0.2490
10807W        W25938  14.304   7.685   0.387  0.1949 -0.0668 -0.1611
10808W        W25939  12.524   6.637  10.923  0.0765  0.1855  0.1329
10809W        W25940  12.054   3.953   2.169  0.0190  0.0081  0.0131
10810W        W25941   9.971   8.539   0.822  0.1542  0.0078 -0.0481
10811W        W25942   1.385  17.044   0.092  0.0467 -0.1041 -0.1003
10812W        W25943  17.198   5.168  12.281  0.0867 -0.0290  0.0717
10813W        W25944   1.479  18.231   5.243  0.0048 -0.1134 -0.1873
10814W        W25945   9.474   0.535   4.099 -0.1174 -0.2529 -0.1294
10815W        W25946  17.883  15.488  13.191  0.2960 -0.3754 -0.2328
10816W        W25947   7.640  14.368  14.640 -0.2428 -0.1521 -0.0635
10817W        W25948  15.224   7.506   4.977  0.1339  0.0442 -0.0671
10818W        W25949   4.527   6.156   2.289  0.0565  0.1330 -0.0115
10819W        W25950  17.896   1.714   3.755 -0.0753 -0.0595  0.2155
10820W        W25951  16.472   3.829   3.187  0.0775 -0.0701 -0.0539
10821W        W25952   3.494   5.178  13.746 -0.0900 -0.1303  0.1862
10822W        W25953  15.976  17.926   1.507 -0.3780 -0.0494 -0.0954
10823W        W25954   7.443   2.739  14.936  0.0230 -0.1022 -0.1800
10824W        W25955   2.441  16.978   2.052  0.2195 -0.2127 -0.0033
10825W        W25956   9.191   0.916   0.492  0.1443  0.2351 -0.0638
10826W        W25957   2.428   3.690   3.226 -0.0660 -0.0077 -0.0556
10827W        W25958  17.352   8.645  10.687 -0.1439 -0.0711 -0.1457
10828W        W25959  12.587   5.931  12.856 -0.0032 -0.3834 -0.0999
10829W        W25960  14.219   2.961  15.789  0.0955  0.2421 -0.2630
10830W        W25961  16.303  13.765   3.401 -0.0088 -0.2395  0.1206
10831W        W25962  14.046   4.796  13.215  0.1061  0.0611 -0.0287
10832W        W25963   5.642  12.198  12.785  0.1472  0.1708 -0.0995
10833W        W25964   8.313  16.261   1.555 -0.1896 -0.3041 -0.0252
10834W        W25965   6.035  11.087  14.197 -0.0415 -0.0329 -0.1796
10835W        W25966   5.511   0.746  13.674  0.1053 -0.0732 -0.0916
10836W        W25967  13.225  11.735  12.359  0.0351  0.0421  0.2306
10837W        W25968   7.090  10.936  10.629  0.3793 -0.2161 -0.2865
10838W        W25969  15.826   0.231   4.104 -0.0848  0.1706  0.0092
10839W        W25970   3.479  13.382   1.850 -0.0555 -0.0444 -0.0514
10840W        W25971   5.732  13.202  14.304 -0.3000  0.0311 -0.1002
10841W        W25972   3.994  12.372   0.909 -0.1175 -0.2980  0.2573
10842W        W25973  16.196  12.964   5.432 -0.0448  0.2781 -0.2346
10843W        W25974   6.746   2.308  11.603 -0.0116 -0.1503  0.0243
10844W        W25975  14.963  15.600  12.117  0.0074  0.1587 -0.0146
10845W        W25976   8.762   3.856   4.768  0.0345 -0.2228 -0.2459
10846W        W25977  10.121   3.430   3.193  0.2656  0.0383 -0.1423
10847W        W25978  13.794  16.294   0.209 -0.5294  0.0392 -0.0268
10848W        W25979  17.770   8.377   5.344 -0.0500  0.2753  0.2477
10849W        W25980  15.933  17.406  12.201  0.3046  0.0396  0.4017
10850W        W25981  14.725  10.131   0.283 -0.1198  0.2555 -0.0637
10851W        W25982  16.450  17.472  11.293  0.0862 -0.0622  0.2790
10852W        W25983  10.588   7.488   3.614 -0.3060 -0.2502 -0.1156
10853W        W25984   2.460   3.347   3.740 -0.0731 -0.0472  0.1438
10854W        W25985  10.991   6.685  13.571 -0.2418 -0.1063 -0.2323
10855W        W25986  11.769   4.416  10.977  0.0749  0.0824 -0.1950
10856W        W25987  14.034  13.167  15.755  0.0455 -0.0582 -0.1820
10857W        W25988   3.907   7.681   1.254  0.1105  0.0104 -0.2822
10858W        W25989   5.329   7.236  15.866 -0.1180 -0.0666 -0.2494
10859W        W25990   1.356  17.927   1.048  0.2095 -0.1729  0.1308
10860W        W25991   4.120   8.564  13.007  0.1329 -0.0564 -0.0158
10861W        W25992  14.081  10.458  13.553  0.1669 -0.4221  0.4133
10862W        W25993   4.832   2.806  11.674 -0.0410  0.0080 -0.3105
10863W        W25994  14.150   9.555  14.894  0.0279  0.0311 -0.0023
10864W        W25995   1.251  15.055   4.063 -0.0106  0.0513  0.0078
10865W        W25996  12.826   7.858  14.177 -0.0789  0.3220  0.3218
10866W        W25997   7.107   2.401   3.663 -0.0401  0.0171 -0.2422
10867W        W25998  16.130  10.707   1.032 -0.1293 -0.2461 -0.1834
10868W        W25999   6.391  16.223  13.052 -0.2878 -0.0680 -0.1205
10869W        W26000   0.847  17.050  10.862 -0.1687 -0.2485  0.0888
10870W        W26001  17.760  15.218  13.634  0.4471 -0.0261 -0.0171
10871W        W26002   4.624   2.758   3.980 -0.2208 -0.1765  0.0155
10872W        W26003   1.402   4.436  14.189 -0.1121  0.0444  0.1018
10873W        W26004   9.435   3.676   0.679  0.0976 -0.1841  0.0298
10874W        W26005   8.305   1.247   2.824  0.1785  0.0021  0.0717
10875W        W26006   7.670  12.523   0.829 -0.0473  0.2247 -0.0533
10876W        W26007  10.635  16.146  13.602 -0.3820  0.4211  0.1251
10877W        W26008  10.928  15.906   1.827  0.0738 -0.0183 -0.0698
10878W        W26009  14.071  14.125   5.374  0.1982  0.2706  0.0429
10879W        W26010  10.770  14.167  12.866 -0.2925  0.3667 -0.2967
10880W        W26011  14.260   4.405  11.718 -0.1255 -0.1001 -0.1660
10881W        W26012   9.475  16.640  11.129 -0.2035 -0.3119  0.1496
10882W        W26013  12.895   4.099  12.181  0.2283  0.1175  0.1158
10883W        W26014   6.087   0.021  14.268  0.0779 -0.2181  0.2528
10884W        W26015   4.232  11.847   6.025 -0.1680  0.2169  0.3505
10885W        W26016   0.342  11.324   0.990 -0.0032 -0.0228 -0.0047
10886W        W26017   2.047  17.996   2.732  0.2294 -0.1713 -0.2032
10887W        W26018  16.905  14.680   3.690  0.2005 -0.1565  0.3876
10888W        W26019  11.388  12.614   1.324 -0.1607 -0.2397  0.0254
10889W        W26020   7.065  11.097  13.540 -0.0220  0.3073 -0.0187
10890W        W26021  17.261  14.204  13.865 -0.0717 -0.4339  0.0810
10891W        W26022   9.876  13.120  12.769  0.1272  0.1998 -0.3957
10892W        W26023   7.308  16.360  10.656 -0.0992 -0.0456  0.1813
10893W        W26024   4.656   1.546   4.933  0.2048  0.1103 -0.1474
10894W        W26025  11.564  12.441  15.653 -0.0803 -0.1417 -0.3597
10895W        W26026   2.687  12.897   1.866 -0.1451 -0.0152  0.1652
10896W        W26027   7.845  13.302  11.175 -0.1006 -0.2542 -0.1385
10897W        W26028  13.986  13.060  13.557 -0.1221  0.3413  0.2778
10898W        W26029   6.367   9.664   1.746  0.1722  0.2627 -0.0785
10899W        W26030  15.725  10.611  12.959 -0.0050 -0.5462 -0.1442
10900W        W26031   9.215  14.347   3.165 -0.1355 -0.4168  0.2890
10901W        W26032   0.620  17.638  13.785 -0.1933  0.0319 -0.1290
10902W        W26033   0.549  11.510   2.984 -0.1622  0.1460  0.1215
10903W        W26034   6.662  15.533  13.477 -0.0429 -0.0101  0.1881
10904W        W26035   2.392  18.414   5.527 -0.0326 -0.0613 -0.0851
10905W        W26036  11.290   0.076  13.902 -0.1853 -0.0897  0.1159
10906W        W26037   9.284   6.698   0.515 -0.0391 -0.2426  0.4326
10907W        W26038   5.094   8.417  15.195  0.0422  0.0435 -0.2334
10908W        W26039  16.895  15.117  12.793  0.1006 -0.1009 -0.2506
10909W        W26040   6.670  14.998  12.790 -0.2052 -0.0831 -0.1333
10910W        W26041   6.156   2.026  12.909 -0.2001  0.0737  0.0060
10911W        W26042   6.624   5.492   2.564  0.2895 -0.1812  0.0977
10912W        W26043  11.916  15.189  15.467 -0.1284 -0.0090  0.0927
10913W        W26044  18.270  15.874   1.334  0.2994  0.0159  0.0868
10914W        W26045   9.660  15.857   1.310 -0.1657 -0.2748 -0.0301
10915W        W26046   3.916   9.460   4.907 -0.2920 -0.0169  0.0534
10916W        W26047  12.006   2.416   1.099  0.0073 -0.1233  0.0595
10917W        W26048   4.841  11.469  14.522  0.2637  0.2238 -0.1848
10918W        W26049   4.805   6.211   4.358 -0.1840 -0.1091  0.3947
10919W        W26050   1.380  15.519   4.355  0.3830 -0.0840 -0.0625
10920W        W26051  17.309  17.886   0.601  0.1432 -0.2933  0.3714
10921W        W26052   5.161  17.886  13.495  0.2931 -0.0025 -0.0200
10922W        W26053   6.872  12.504   0.989  0.0941 -0.1127 -0.0633
10923W        W26054   5.730  13.896  13.047  0.1506  0.1197 -0.1456
10924W        W26055  10.387   8.920   4.486  0.0860  0.1966 -0.0236
10925W        W26056   7.783   3.420  12.382 -0.4258  0.2814  0.3765
10926W        W26057   1.419   0.590   1.029 -0.0491 -0.1032 -0.3210
10927W        W26058   9.843  14.398   2.938 -0.2228  0.1122 -0.2533
10928W        W26059   5.425   4.873   5.270  0.2596  0.1175 -0.3153
10929W        W26060   7.561   2.710   1.841  0.2792 -0.2247 -0.2535
10930W        W26061   7.696  10.804   1.390  0.2416 -0.2119  0.2212
10931W        W26062  13.436   8.207   1.666 -0.3285 -0.1770  0.2861
10932W        W26063   0.368  13.148  14.862  0.2238  0.2879  0.0205
10933W        W26064  15.670   4.133  12.029 -0.1515 -0.0731  0.2235
10934W        W26065   7.797  10.680  15.663  0.0051  0.2119  0.0287
10935W        W26066   0.946  11.675  11.162  0.2554 -0.1848  0.0390
10936W        W26067  16.735  12.787   3.311 -0.1067 -0.1927  0.0956
10937W        W26068   8.733  17.115  13.171 -0.0494 -0.0538 -0.0033
10938W        W26069   2.370  14.647  10.730 -0.0465 -0.2644  0.1559
10939W        W26070  12.467   6.887   1.513 -0.1122 -0.0856 -0.0508
10940W        W26071  18.116  10.890   1.088 -0.0816  0.0450  0.1062
10941W        W26072  17.910   1.095  13.960  0.2031 -0.3160 -0.2449
10942W        W26073   9.213  16.309   9.768 -0.3550  0.0698 -0.1114
10943W        W26074   8.505   3.485   0.746 -0.0188  0.1070 -0.2817
10944W        W26075   0.483  15.851   5.101 -0.0405 -0.1467  0.0879
10945W        W26076  15.897  11.604   0.574 -0.1145  0.0357 -0.0442
10946W        W26077   0.783  18.238  12.975 -0.4498  0.0699 -0.2437
10947W        W26078  11.922   7.436   4.903  0.1547  0.0389 -0.0509
10948W        W26079   9.952  13.291  15.610  0.0401 -0.0753 -0.0031
10949W        W26080  15.542  18.360   4.262 -0.1684 -0.0773  0.0737
10950W        W26081   6.706  11.454   0.314  0.0611  0.1992 -0.0331
10951W        W26082   4.563   2.338   6.063 -0.1513 -0.0507  0.0777
10952W        W26083  10.537  12.432   4.501  0.3355 -0.0223  0.2028
10953W        W26084   2.812   9.630  13.209 -0.2866  0.2463  0.2644
10954W        W26085   1.637   4.006   4.588  0.0638 -0.1374 -0.0356
10955W        W26086  13.853   6.141   4.952 -0.1780  0.0070  0.3064
10956W        W26087   4.241  18.431   3.164 -0.1715  0.0593 -0.1200
10957W        W26088   7.303  11.183  10.166 -0.1259  0.1427 -0.0361
10958W        W26089   0.211  10.006  11.456  0.0683  0.0402 -0.3251
10959W        W26090  12.366  17.942   2.100  0.0889 -0.5297 -0.0737
10960W        W26091  15.717   8.897  13.614  0.2610  0.0431  0.0902
10961W        W26092  13.559  12.031  14.954  0.1907 -0.3778 -0.0680
10962W        W26093   7.443  18.342  14.494  0.2347  0.3215  0.0632
10963W        W26094   1.601   7.904  14.678  0.3360  0.0726  0.0727
10964W        W26095  13.504  10.891   1.467 -0.2781 -0.4753 -0.2304
10965W        W26096   7.932   1.776  11.269  0.1245  0.1284  0.1737
10966W        W26097   8.960  15.654  11.780 -0.3713  0.1545 -0.2537
10967W        W26098  16.432  18.149  13.218  0.0588 -0.0216  0.3307
10968W        W26099   2.211   0.386  14.289  0.0609  0.1356 -0.0656
10969W        W26100   3.356   1.428  14.921 -0.1671  0.1708 -0.2301
10970W        W26101  15.744  10.656  15.223 -0.0263 -0.0385 -0.0009
10971W        W26102  14.990   5.002  15.887  0.3420 -0.4324  0.0850
10972W        W26103  15.552  12.416  14.636  0.0063 -0.0275 -0.2809
10973W        W26104   1.706   6.795  14.055 -0.4143  0.0325 -0.3481
10974W        W26105   7.338   6.232   5.156 -0.1182 -0.2680 -0.2772
10975W        W26106  16.876   0.667   6.096  0.1852  0.1758  0.0560
10976W        W26107  17.881   1.987   4.141  0.0737  0.0778  0.1395
10977W        W26108  15.029  15.496  14.610 -0.0312 -0.2276 -0.6745
10978W        W26109   5.869   9.238  13.008  0.0382 -0.1424 -0.1304
10979W        W26110   4.478   7.929   1.921 -0.1362 -0.0564 -0.0901
10980W        W26111  12.463   1.008  12.480 -0.0657 -0.2206  0.2650
10981W        W26112   7.967   5.343   2.886 -0.0874  0.0259 -0.0961
10982W        W26113   2.898   9.358  11.672  0.3139  0.2071 -0.2864
10983W        W26114  10.951  16.882  15.744 -0.1337 -0.1854  0.1056
10984W        W26115  17.299  12.740   2.820  0.1713  0.1526 -0.1353
10985W        W26116   0.022  10.516  12.332  0.3489 -0.2802 -0.0257
10986W        W26117   5.110  16.434   0.206  0.0025  0.1704 -0.4014
10987W        W26118   2.854   4.167   2.210  0.1017 -0.2179  0.0588
10988W        W26119   6.663  13.717   0.791  0.1809 -0.0424 -0.2146
10989W        W26120  13.196  13.539   1.816  0.0431  0.0369 -0.3817
10990W        W26121  10.483   7.568  12.249  0.2517  0.1222 -0.1348
10991W        W26122   3.536  12.576   1.185 -0.1326  0.0412  0.2500
10992W        W26123  15.756   3.507   6.155  0.1673  0.3389  0.0913
10993W        W26124   0.214  11.410   2.621  0.2951 -0.0180 -0.2171
10994W        W26125   9.626  16.517  13.694  0.0909  0.2898 -0.1260
10995W        W26126  14.984  11.114  14.375  0.1007 -0.2868  0.1165
10996W        W26127   5.390   6.118   4.224  0.1887  0.3001 -0.1485
10997W        W26128   6.240   3.007  13.207 -0.3508  0.3447  0.0833
10998W        W26129   3.067   6.692   5.381 -0.0910  0.0988 -0.4928
10999W        W26130   9.377   5.223   2.095  0.1584  0.0388  0.0389
11000W        W26131   0.410   5.917   4.941  0.1732 -0.0603 -0.0769
11001W        W26132  17.887   2.492   4.133 -0.2704  0.0508  0.3386
11002W        W26133   8.821   8.296  11.679 -0.0674  0.0726  0.1652
11003W        W26134  13.736  14.932  13.384  0.0943  0.1222 -0.1038
11004W        W26135   1.757  15.658  14.070 -0.1219  0.1303  0.1199
11005W        W26136   4.220   2.626   1.881  0.1584  0.1262  0.0104
11006W        W26137  15.550  17.048  15.751  0.0052 -0.0495 -0.4464
11007W        W26138   4.481  14.847   2.360  0.1010  0.2067  0.0308
11008W        W26139  11.227  10.992   0.587  0.1003  0.0793  0.0377
11009W        W26140   4.814   2.810   3.007  0.3449  0.1529  0.1091
11010W        W26141   4.221   9.138   4.238  0.1070 -0.0239 -0.3202
11011W        W26142   2.045   5.224  12.621 -0.1277 -0.1251 -0.0207
11012W        W26143  15.924   6.734  15.504  0.0354 -0.0547  0.0754
11013W        W26144  12.150  17.132  15.604 -0.4003 -0.2219  0.2246
11014W        W26145  17.619   5.353   0.542  0.0709  0.1058  0.3326
11015W        W26146   6.968  11.047   2.591 -0.2773  0.0604  0.2235
11016W        W26147  16.792   7.147   2.469  0.1419  0.0404 -0.0586
11017W        W26148   3.631   3.008  12.303  0.1264  0.0098  0.1140
11018W        W26149   7.671   4.342   2.061 -0.2925  0.0167  0.1205
11019W        W26150   8.594  10.938  11.328 -0.1086  0.0598 -0.0201
11020W        W26151   8.878   6.138  10.843  0.0930 -0.0166  0.0421
11021W        W26152   1.328  10.021  14.279 -0.2745 -0.0703  0.0443
11022W        W26153   5.612  16.433   4.080  0.0266 -0.1795  0.0722
11023W        W26154  16.794  16.838   3.650 -0.2035  0.2499  0.3634
11024W        W26155  11.562  15.605  13.591  0.2595 -0.0571  0.1712
11025W        W26156   3.350  11.108   3.073 -0.0070  0.0458 -0.2651
11026W        W26157   8.344   6.144  14.048  0.2153 -0.0570  0.0201
11027W        W26158   5.410   2.495  13.261  0.0381  0.1904  0.0167
11028W        W26159   0.425  14.660  10.434 -0.0577 -0.1333 -0.0416
11029W        W26160  16.845  10.565  13.057  0.3925  0.0532 -0.1850
11030W        W26161  11.001   5.130   2.981  0.0095  0.1910 -0.1217
11031W        W26162   1.081  16.596  10.610 -0.1965  0.0692 -0.1448
11032W        W26163  16.562  11.198   5.080 -0.0753 -0.3729  0.0159
11033W        W26164  13.243  11.082   3.697 -0.1506 -0.4198 -0.1853
11034W        W26165  10.383   1.724  11.901 -0.1419 -0.1184  0.1432
11035W        W26166  14.945   2.589  13.068  0.2275 -0.0986 -0.0498
11036W        W26167  13.275   3.024  13.910 -0.1162 -0.1167  0.0923
11037W        W26168  13.124  15.679   4.701  0.3350 -0.1281  0.2635
11038W        W26169   2.922  17.396   1.713 -0.1734 -0.2310  0.1151
11039W        W26170   8.828  13.737  13.097  0.2509  0.4183  0.0938
11040W        W26171   0.131  11.913  13.952 -0.1418  0.1361  0.0614
11041W        W26172   2.164  13.107   5.477  0.0104 -0.0946  0.1493
11042W        W26173   3.255   2.806  13.393 -0.2035 -0.4058 -0.1070
11043W        W26174  11.285   3.703   3.343  0.0338 -0.2243 -0.2193
11044W        W26175  13.550  11.475   3.758 -0.0115 -0.1885  0.3703
11045W        W26176   0.903  16.750  14.000 -0.1413 -0.1334 -0.1977
11046W        W26177  10.486   0.783   5.420 -0.0125 -0.0687  0.0944
11047W        W26178   2.808   5.485  11.531 -0.3391 -0.0213  0.0205
11048W        W26179   8.386   5.597  11.827  0.2097  0.3253 -0.4248
11049W        W26180   8.765  16.067  10.916 -0.0468  0.0454  0.0058
11050W        W26181   7.484  13.846   5.543  0.0581 -0.0078 -0.0776
11051W        W26182   2.514  12.095  15.380 -0.0004 -0.2085 -0.0824
11052W        W26183  17.289   1.254   1.818  0.0450  0.0587 -0.1705
11053W        W26184   7.427   6.332  14.858 -0.0257  0.0294 -0.4188
11054W        W26185   6.780   3.222   0.755 -0.1677 -0.1593 -0.0590
11055W        W26186  15.689   3.523   1.127  0.0170 -0.1949  0.2304
11056W        W26187   1.224  13.200   3.213 -0.3323  0.0706 -0.0365
11057W        W26188  12.966   9.389  10.016 -0.1602  0.4107 -0.3314
11058W        W26189  14.170   3.849   1.664  0.0373 -0.1438 -0.1930
11059W        W26190  13.342  13.127  12.093  0.2713  0.1570  0.0245
11060W        W26191  15.804  16.592   4.891  0.0803  0.1256 -0.1397
11061W        W26192  11.994  13.755   4.590 -0.0982 -0.1593  0.0423
11062W        W26193   3.332  16.707  14.589 -0.2502  0.0048 -0.0237
11063W        W26194   3.161  15.056   2.500 -0.0733 -0.0896  0.3634
11064W        W26195   1.348   2.032  15.626  0.1179 -0.0127  0.0209
11065W        W26196  11.382  11.817   5.186  0.1217  0.0149  0.1035
11066W        W26197   0.289  14.162   0.496 -0.1155 -0.1549  0.0204
11067W        W26198  17.111  13.901  10.149  0.1410 -0.0635 -0.0240
11068W        W26199  11.539  16.606   0.875 -0.0906  0.1494  0.1479
11069W        W26200  12.197  16.223  14.938  0.1275  0.2099  0.0214
11070W        W26201  14.219  12.760  15.881 -0.1071  0.0100 -0.3868
11071W        W26202  16.784   6.791  10.166  0.1051  0.1357  0.0130
11072W        W26203   1.755  10.989  15.716 -0.2577  0.0519 -0.0718
11073W        W26204  14.369   4.796  14.470 -0.0437 -0.0597  0.2749
11074W        W26205   2.995  13.996   3.246  0.0688  0.0194  0.0866
11075W        W26206  11.827  10.420   5.530 -0.0508 -0.2415  0.0445
11076W        W26207  11.049   9.249  10.634 -0.2801  0.2817  0.2193
11077W        W26208   9.905  10.539  11.974 -0.1836  0.1713  0.0570
11078W        W26209  15.099  10.647   5.790  0.3451 -0.2536 -0.2389
11079W        W26210   9.226  14.584  15.795  0.2633 -0.2465  0.0461
11080W        W26211   5.559  11.643   4.705  0.2798  0.3159 -0.1666
11081W        W26212  16.816   1.235   1.930 -0.0323 -0.0384  0.1462
11082W        W26213   2.675  17.460  14.396  0.0228 -0.3125 -0.0072
11083W        W26214  10.429   8.841  15.745  0.1871  0.2224 -0.0979
11084W        W26215   2.284  10.514   3.041  0.0189 -0.0510  0.1471
11085W        W26216   1.128  16.716  12.279 -0.2068  0.0319 -0.0450
11086W        W26217  11.925   0.261   2.367  0.3431  0.0795 -0.2878
11087W        W26218  11.535   9.903   1.754 -0.0601 -0.1220 -0.1735
11088W        W26219  13.190   3.811   1.655 -0.1061 -0.0730  0.1707
11089W        W26220  16.260  14.153  13.517 -0.0121 -0.1925  0.0571
11090W        W26221  11.038  14.519   4.400 -0.1043  0.1269 -0.0257
11091W        W26222  14.926   1.933   5.782  0.1545  0.2866  0.6076
11092W        W26223  10.931   1.531  12.145 -0.0777 -0.1360  0.0288
11093W        W26224   2.842   9.512   4.816 -0.1063  0.0273  0.4127
11094W        W26225   4.154  17.402   1.342 -0.1080 -0.1519 -0.0079
11095W        W26226  15.828  15.496   2.311  0.0753  0.1418  0.2561
11096W        W26227  14.564   1.560  13.290  0.0758  0.1252  0.0399
11097W        W26228   2.318  11.057   4.329 -0.2426 -0.1143 -0.0799
11098W        W26229   1.517   3.989  10.512  0.1865  0.0112 -0.0137
11099W        W26230   2.530   7.262   3.336 -0.1335  0.3033  0.1476
11100W        W26231   3.666  13.284  14.382  0.0693 -0.0157 -0.0936
11101W        W26232   7.946   0.362   3.636 -0.1532 -0.3696 -0.0231
11102W        W26233   5.707  14.442  13.077  0.0739 -0.0155  0.1142
11103W        W26234  15.972  11.547  13.303  0.0261  0.0597 -0.2934
11104W        W26235   1.074   0.632   3.406  0.1656  0.1839  0.1780
11105W        W26236   4.475  12.948   2.252 -0.2006 -0.2177  0.1415
11106W        W26237   4.529   3.770  12.908 -0.0768  0.0331  0.0464
11107W        W26238   5.838  14.629   3.552 -0.1920  0.1206 -0.1687
11108W        W26239  12.325  16.847   2.772 -0.0295  0.1941 -0.1215
11109W        W26240   7.891  15.069  15.163 -0.0985  0.1914  0.2565
11110W        W26241   0.250   4.694   0.109  0.1749  0.0857  0.2160
11111W        W26242  13.201  18.341   1.138 -0.0360  0.0860  0.1362
11112W        W26243   5.834   4.949  11.778  0.1358 -0.1513  0.1039
11113W        W26244   3.468  10.852  12.178  0.4701  0.1436  0.0270
11114W        W26245   5.520   0.252   0.363 -0.0937  0.1392 -0.0725
11115W        W26246   2.846   0.803  15.771  0.4484 -0.1073 -0.0784
11116W        W26247  16.752   3.157  13.758 -0.0065  0.0138 -0.0191
11117W        W26248   5.111  12.576  12.216 -0.0075 -0.1911  0.1127
11118W        W26249  13.298   7.330   0.288 -0.0430 -0.0918 -0.0325
11119W        W26250   7.541   4.814   2.134  0.1650  0.1689 -0.0822
11120W        W26251  15.757  16.804   2.171  0.0650  0.2781 -0.1254
11121W        W26252  13.299   4.947   0.984 -0.0499 -0.0220 -0.0386
11122W        W26253  12.213   4.660   1.974 -0.1535  0.3581 -0.0880
11123W        W26254  14.627   7.661  14.339  0.0244  0.1413  0.0090
11124W        W26255   2.010  15.707   0.781 -0.0692  0.2467 -0.2463
11125W        W26256   8.242   9.971  10.601 -0.2014 -0.0669 -0.0927
11126W        W26257  13.359   2.018   2.310  0.0990 -0.1179 -0.1643
11127W        W26258  16.650  16.408   2.336  0.0302 -0.1288  0.1556
11128W        W26259  11.471   9.093  12.355 -0.1099  0.0385 -0.2211
11129W        W26260   5.441  16.785  10.263  0.1163 -0.0986 -0.3912
11130W        W26261  10.680   9.895   0.193  0.2388  0.1176  0.2182
11131W        W26262  13.373  11.520  13.676  0.1784 -0.0777  0.1998
11132W        W26263  10.404  14.651  12.345 -0.2842  0.3117  0.2069
11133W        W26264  16.700  10.145   3.858 -0.0242 -0.1394  0.0931
11134W        W26265  14.968   7.415   5.583 -0.1197  0.1971  0.1252
11135W        W26266   1.523  15.220  14.236 -0.2106 -0.1919  0.2058
11136W        W26267   8.415  16.444   0.326 -0.2284 -0.0205  0.0759
11137W        W26268  11.887   5.088  15.845 -0.0390  0.0512  0.1804
11138W        W26269   5.592  10.249   1.415 -0.1803  0.1714 -0.1439
11139W        W26270  13.735   6.838   3.530 -0.3510 -0.0938  0.1538
11140W        W26271  14.146   0.854  14.200  0.2331  0.0685  0.0625
11141W        W26272  12.782   8.905  14.593  0.0171  0.1124 -0.1227
11142W        W26273   0.658   6.290  15.820  0.2091  0.3029  0.3588
11143W        W26274   0.632  16.361   1.177  0.1779  0.0008  0.0290
11144W        W26275   9.912  18.049  13.091  0.1312 -0.1511  0.0717
11145W        W26276  13.815   3.043  10.491 -0.2063  0.0445  0.1993
11146W        W26277   6.570   4.634   1.517 -0.1060  0.0122  0.0515
11147W        W26278   5.963   6.305  11.150 -0.0245 -0.0751  0.1226
11148W        W26279   3.310   2.167   4.412 -0.0817  0.1206 -0.0262
11149W        W26280   9.212  17.439  10.930  0.0057 -0.1705 -0.1944
11150W        W26281   1.780   3.218   3.161 -0.0332  0.2454  0.0640
11151W        W26282  13.276   5.660   4.525  0.1555  0.1710 -0.1812
11152W        W26283   8.273  16.792  15.331  0.2216  0.2300 -0.0246
11153W        W26284   2.087  10.868  14.255 -0.0570 -0.1826  0.1858
11154W        W26285   7.633   9.295   4.250  0.0796  0.2655 -0.1795
11155W        W26286   8.587  15.600   2.825  0.3848  0.0869  0.1123
11156W        W26287  15.604   9.833  13.264  0.0461 -0.3130  0.0158
11157W        W26288  14.136   7.438  14.288 -0.4485  0.3382 -0.0713
11158W        W26289  13.890  16.962   1.729 -0.0932  0.1588 -0.3233
11159W        W26290   3.974   0.477   4.451  0.1902 -0.1024 -0.0880
11160W        W26291  15.130   0.526  15.202  0.1803 -0.0886 -0.2098
11161W        W26292   4.691   8.818  15.059  0.3445 -0.0723 -0.2256
11162W        W26293   3.583   3.556   1.910 -0.0903 -0.1343 -0.1047
11163W        W26294   4.146  11.655  13.977  0.0638 -0.0722  0.2842
11164W        W26295  11.995  17.175   0.997 -0.3493  0.0819  0.1815
11165W        W26296  10.349   8.472   3.693 -0.1559 -0.0628  0.1562
11166W        W26297  14.572   9.564   0.670 -0.0376 -0.1333 -0.0503
11167W        W26298  12.427   4.899  13.593  0.1514  0.0953  0.1605
11168W        W26299  14.499  10.635  12.120  0.2562 -0.0775 -0.1895
11169W        W26300   0.806   0.821   2.699 -0.2473 -0.4531  0.0345
11170W        W26301   5.387  15.084   5.824 -0.1529  0.0775  0.0061
11171W        W26302   9.647   7.511   3.460 -0.2482  0.0825 -0.2812
11172W        W26303  15.559   5.645  11.687 -0.1936 -0.0856 -0.0983
11173W        W26304   2.236  16.350  15.023  0.1824  0.3017  0.1469
11174W        W26305  11.959   2.964   3.262  0.2417 -0.1143 -0.1880
11175W        W26306   8.119   1.796  10.322 -0.1752  0.0277  0.2905
11176W        W26307  16.689  16.516  15.818 -0.3029  0.0998  0.4723
11177W        W26308   9.778  12.356   1.844 -0.2047  0.1609 -0.1628
11178W        W26309   6.948  15.205   1.957 -0.3810  0.0337  0.2510
11179W        W26310   2.755   6.975   1.534  0.0771 -0.4634  0.2206
11180W        W26311   3.844   4.404  15.084 -0.0161  0.3156  0.0374
11181W        W26312  13.342   2.272   1.867 -0.0706 -0.5567  0.2001
11182W        W26313  14.692   5.191  14.768  0.1317 -0.1850 -0.2315
11183W        W26314  13.805  15.567  14.849 -0.1346  0.0171  0.2603
11184W        W26315  12.168   7.627  15.690  0.1159 -0.1883 -0.1166
11185W        W26316  17.201  14.670   4.125 -0.1611 -0.3397 -0.3049
11186W        W26317  14.221   4.976  12.617  0.1471  0.0961 -0.3510
11187W        W26318   8.129   4.019   0.227 -0.2788  0.2045 -0.0023
11188W        W26319   3.394  12.140  15.289  0.1043  0.1125  0.1381
11189W        W26320  10.282   5.541  11.518  0.0977 -0.0878 -0.3230
11190W        W26321  12.159  10.626   2.895  0.1279 -0.0997 -0.3200
11191W        W26322   4.171   3.549   5.377  0.1505 -0.1667  0.1731
11192W        W26323  10.046   7.045  13.026 -0.0192 -0.1351 -0.2874
11193W        W26324   9.708   4.154   4.581  0.0607  0.0565 -0.0203
11194W        W26325   8.430   1.200   3.844 -0.0042 -0.2896 -0.1346
11195W        W26326   8.664  14.460   4.221 -0.1486  0.1866 -0.0407
11196W        W26327   6.349   2.726  12.702 -0.0930  0.1084 -0.0287
11197W        W26328   8.590   2.289  11.354 -0.0750  0.0822  0.1553
11198W        W26329   3.222   6.036   5.674  0.0180  0.2635 -0.1457
11199W        W26330   1.257   5.389  13.067 -0.5596  0.1777  0.0311
11200W        W26331  13.894  11.476   3.231 -0.1535  0.4269 -0.1241
11201W        W26332  12.259   9.820  13.688 -0.1106  0.2296  0.2669
11202W        W26333  14.346   5.065   4.293 -0.3292  0.1708  0.2071
11203W        W26334   0.539   2.864   4.294 -0.1952 -0.0313 -0.2650
11204W        W26335  18.297  13.274   1.853 -0.2436 -0.0724  0.0358
11205W        W26336  10.153   0.489  13.902 -0.2692  0.1189  0.2858
11206W        W26337  13.836  12.798  14.311  0.2046  0.0906 -0.3646
11207W        W26338  11.791  10.639  11.610  0.2323 -0.3059 -0.0206
11208W        W26339  15.952   1.014   2.237 -0.0318  0.2115 -0.1748
11209W        W26340  11.770  14.444   1.570 -0.1082  0.0905  0.0629
11210W        W26341  14.545   4.972   3.135  0.3530  0.2334 -0.2095
11211W        W26342  14.958   6.766  14.967  0.0941 -0.2053 -0.0254
11212W        W26343  16.150  16.244  12.895 -0.1751  0.0327 -0.0765
11213W        W26344  11.341  14.035   0.129 -0.0068 -0.0539 -0.1630
11214W        W26345   9.780   3.847   2.301 -0.0810 -0.1167 -0.0709
11215W        W26346  10.275   3.664  13.679 -0.2877 -0.0527  0.1474
11216W        W26347  12.320   0.859   1.260  0.0267  0.3539  0.1986
11217W        W26348   3.969   5.176  13.835  0.1406 -0.3451 -0.1104
11218W        W26349  17.543   5.737   5.035  0.0897  0.1794  0.2388
11219W        W26350   0.573   2.745   0.696 -0.3622 -0.1797  0.1897
11220W        W26351  11.589  16.669  11.565  0.4557 -0.1455 -0.1295
11221W        W26352  17.870  11.340  12.715  0.2657  0.0653  0.2821
11222W        W26353   8.519  17.316   9.858 -0.0649 -0.5084 -0.4144
11223W        W26354  10.816   3.367   3.621 -0.1467  0.0982 -0.0373
11224W        W26355   8.585   1.656  14.343 -0.0784 -0.0471 -0.2511
11225W        W26356   9.406   6.678  14.201  0.1856 -0.0140  0.1074
11226W        W26357  10.504   2.211   5.547  0.0485 -0.0151  0.0866
11227W        W26358  10.357   5.925  11.230 -0.0943 -0.2479  0.0047
11228W        W26359   2.764  18.242   2.043 -0.0719  0.0298 -0.0538
11229W        W26360   7.495  14.848  13.403  0.5216 -0.3078 -0.0113
11230W        W26361   3.371   5.680   2.909 -0.1098 -0.2952 -0.2269
11231W        W26362  16.371  11.847  10.857 -0.2619  0.0860  0.1311
11232W        W26363  17.962  15.042  15.661  0.0443 -0.0753 -0.1427
11233W        W26364   6.453   9.520  13.816 -0.1536  0.1516 -0.0318
11234W        W26365   3.043   1.606  10.752  0.0477  0.2056  0.2652
11235W        W26366  11.394  17.286  13.409 -0.3885  0.0809  0.3127
11236W        W26367   0.701  16.605   2.891 -0.2732 -0.1756 -0.0280
11237W        W26368  18.386   6.610  13.713  0.3105 -0.0927 -0.0005
11238W        W26369   1.260   4.278  13.233 -0.1805  0.1892  0.2327
11239W        W26370  17.621   4.491   1.954  0.2215 -0.2912  0.0312
11240W        W26371  17.949   4.234   4.067  0.0520 -0.0641 -0.1803
11241W        W26372   2.692  11.475  11.038 -0.2640  0.0259  0.1671
11242W        W26373  17.887  16.691   3.985  0.0848 -0.0170 -0.1271
11243W        W26374   5.534  17.533  15.859  0.2214  0.2331  0.0651
11244W        W26375   4.374  17.373   3.462  0.1133  0.0672 -0.0615
11245W        W26376   8.062   4.410   5.308 -0.0859 -0.0806  0.2285
11246W        W26377  10.567   9.043   1.933  0.1110 -0.3031  0.0427
11247W        W26378   6.903  10.424  10.794 -0.0091  0.0959  0.0763
11248W        W26379  17.603   8.729   5.709  0.0836 -0.0348 -0.3426
11249W        W26380   8.234   6.064  11.911  0.2153  0.0985  0.0281
11250W        W26381   0.892  14.629  13.758 -0.1262  0.1127  0.0069
11251W        W26382   9.691   6.145  15.147  0.0240 -0.1916  0.0549
11252W        W26383  17.724   8.460  14.993  0.1215 -0.0010  0.2078
11253W        W26384  17.926  14.932  14.397  0.0653 -0.0610 -0.6169
11254W        W26385   1.179   6.228  11.903 -0.1515 -0.2477 -0.2076
11255W        W26386   2.526   4.122   1.384  0.1717  0.1060  0.0655
11256W        W26387  16.930  15.943   3.697 -0.0019 -0.0564 -0.2195
11257W        W26388  16.929  12.453  10.953 -0.0514  0.1319  0.1369
11258W        W26389   2.535  15.739   0.692  0.2934  0.1772 -0.2227
11259W        W26390   0.418  15.957  10.701  0.2330 -0.1634  0.0644
11260W        W26391   5.441   6.719   5.386 -0.0502 -0.2030 -0.0992
11261W        W26392  17.581  10.023   5.068 -0.1369  0.0779  0.3078
11262W        W26393  12.134  11.769  12.190  0.0059  0.1285 -0.1714
11263W        W26394   9.752   6.409   0.442  0.3168  0.0672 -0.2476
11264W        W26395  15.624  12.041   1.876  0.1053  0.2126  0.1718
11265W        W26396  14.715   4.052   0.048  0.1250 -0.0464 -0.1158
11266W        W26397  13.920   6.965  13.274  0.0700  0.0183 -0.0746
11267W        W26398   5.611   9.909   4.392  0.0540  0.1956  0.1405
11268W        W26399  17.508   9.536   4.691  0.0858 -0.1866 -0.1776
11269W        W26400   9.780  14.369   0.589  0.2438 -0.0796 -0.0461
11270W        W26401   3.784  16.851  15.820  0.2403  0.0509 -0.2476
11271W        W26402   9.625  13.501  14.504 -0.1618  0.1473 -0.4152
11272W        W26403   1.116   4.410   4.987  0.2052  0.0878  0.0153
11273W        W26404   5.603  14.519   1.524  0.0666 -0.1204 -0.1075
11274W        W26405   3.369  16.100   3.351 -0.2151 -0.0221 -0.1237
11275W        W26406  10.135  10.092  11.117 -0.0668 -0.0347  0.0875
11276W        W26407  10.933   5.185  13.491  0.0540  0.2353 -0.2898
11277W        W26408   5.302   1.600  10.893  0.1604 -0.0975 -0.2318
11278W        W26409   5.416  15.248  12.688 -0.1819 -0.0203 -0.1864
11279W        W26410   7.521   7.427  11.122  0.1445 -0.1209  0.0145
11280W        W26411   5.144   0.808   4.660  0.1056 -0.0875  0.1946
11281W        W26412   0.607  13.589   1.180  0.0349 -0.1929  0.1726
11282W        W26413   3.235  14.206  13.953  0.2462  0.0745  0.2421
11283W        W26414   8.489   3.429   4.643 -0.0079 -0.3980 -0.0325
11284W        W26415  11.509  10.798   3.541 -0.1327 -0.3470 -0.1861
11285W        W26416  12.098  17.534  15.206  0.1641 -0.1293 -0.1677
11286W        W26417   6.206  13.006   3.306 -0.1408  0.0186 -0.1371
11287W        W26418  14.783   2.026  13.274 -0.2867  0.3408 -0.2550
11288W        W26419  15.699   2.554   0.481 -0.1092 -0.0857  0.3213
11289W        W26420   6.010  18.293  14.984  0.0602  0.0211 -0.3045
11290W        W26421  17.622   1.795  11.157 -0.3690  0.3380 -0.2408
11291W        W26422  17.456   6.712  13.289  0.0046  0.2855  0.0259
11292W        W26423  12.347   0.174  12.304 -0.2646  0.2557 -0.2138
11293W        W26424  13.050   8.964  13.283 -0.0379 -0.0426 -0.3343
11294W        W26425  14.559   6.763   4.064  0.1080 -0.1112 -0.2228
11295W        W26426  16.381  15.718   0.158 -0.1440  0.3746  0.1056
11296W        W26427   4.090   1.206  15.034  0.1652  0.1813 -0.1132
11297W        W26428  17.633   4.985   3.772 -0.1645  0.1282 -0.1216
11298W        W26429   3.297   6.405  12.622  0.2556 -0.0850 -0.2273
11299W        W26430   1.761   2.349   1.108 -0.1183 -0.4039  0.2697
11300W        W26431  15.340  17.536  12.350  0.1251  0.3341 -0.2530
11301W        W26432   0.008  13.568   2.289  0.4867 -0.0778  0.2782
11302W        W26433   6.134   8.608  14.118  0.2205 -0.0314  0.1033
11303W        W26434  18.428  14.830  14.201 -0.0397 -0.0183 -0.1178
11304W        W26435  18.493  14.703  13.206 -0.1947 -0.1324 -0.0089
11305W        W26436  16.947   3.144  14.325  0.1479  0.0443  0.3052
11306W        W26437  15.295  17.288   1.006  0.0517  0.0463 -0.1610
11307W        W26438   0.483   0.603  11.410 -0.1796  0.1150 -0.0951
11308W        W26439  15.427   9.285  11.766  0.0628 -0.2905  0.0480
11309W        W26440  11.076   5.285  15.814 -0.2677 -0.2172 -0.0351
11310W        W26441   1.254   8.526   4.999  0.0262  0.0445 -0.0390
11311W        W26442   1.423   1.130   1.740  0.1434  0.1008  0.4770
11312W        W26443  17.044   6.531   0.948 -0.0517  0.0736  0.2264
11313W        W26444   9.612   5.296  15.249  0.1268 -0.1099  0.0047
11314W        W26445  13.744   2.637  15.798 -0.3865 -0.0067 -0.0757
11315W        W26446  10.979  10.370   5.717 -0.1866 -0.0208 -0.0488
11316W        W26447  17.016   0.223  13.089  0.0353 -0.0270  0.0560
11317W        W26448  17.745   9.916  12.121  0.0431  0.0800 -0.2824
11318W        W26449  11.626   6.530   1.912 -0.0793  0.0753 -0.0514
11319W        W26450  13.786  16.088  14.917  0.0796  0.1769  0.1847
11320W        W26451  18.215  10.374   4.014 -0.1635  0.3498 -0.0856
11321W        W26452   2.223   0.735  12.682  0.1391 -0.1911  0.3462
11322W        W26453   4.091   6.960   1.188 -0.0148  0.0334  0.1927
11323W        W26454   5.024   4.275   3.611 -0.0041 -0.1325  0.1838
11324W        W26455   7.840   8.745  15.168 -0.0873  0.0471  0.0888
11325W        W26456   7.396  17.473   9.757 -0.1395  0.1171 -0.2541
11326W        W26457   9.948   2.634   0.750 -0.0137 -0.2222  0.2954
11327W        W26458  15.246   2.616   4.701 -0.0288  0.2010  0.0208
11328W        W26459   3.295  11.349  14.382 -0.0511 -0.1189  0.3420
11329W        W26460  18.115   4.545   2.519  0.0709  0.2044  0.0839
11330W        W26461  11.434   1.098   9.958 -0.0478  0.0573 -0.1731
11331W        W26462   1.149   9.623  12.332 -0.2493 -0.1586 -0.1259
11332W        W26463  11.784   0.418  15.439  0.0001  0.0315  0.1223
11333W        W26464  17.955   4.739   1.688 -0.1433  0.1138  0.0808
11334W        W26465  13.293   8.980   4.366  0.0349 -0.0833  0.0670
11335W        W26466   4.794  15.206   5.158  0.2157 -0.0766 -0.2441
11336W        W26467   8.854  11.378  11.373 -0.1550 -0.2855  0.1166
11337W        W26468   8.021   2.044  15.073 -0.5366  0.2661  0.3344
11338W        W26469   4.303   5.509  13.708 -0.1920  0.0793  0.4136
11339W        W26470   1.460  10.096   3.354 -0.0032  0.2377  0.2445
11340W        W26471  10.821   7.888   5.272  0.2809  0.2956 -0.2944
11341W        W26472  10.110   5.183  11.958 -0.2493  0.0166 -0.1432
11342W        W26473  10.978   9.845   4.394 -0.1504 -0.3199  0.0174
11343W        W26474  16.776  18.167   3.342  0.1571  0.1708 -0.1473
11344W        W26475   1.608  14.587  15.126 -0.2946 -0.1059 -0.0809
11345W        W26476   0.620   9.134   1.086 -0.0852 -0.0310 -0.2190
11346W        W26477  11.100   8.493  11.403 -0.0899 -0.0067  0.0741
11347W        W26478  17.401  16.030   3.699 -0.2764 -0.0559  0.0807
11348W        W26479   4.552  12.135  11.756  0.2519  0.2282  0.1682
11349W        W26480   6.192   1.931   5.698  0.0011  0.2915  0.3921
11350W        W26481   4.552   0.001   5.929 -0.0480  0.3747 -0.0496
11351W        W26482   0.352  13.280   0.753 -0.0478 -0.0334  0.1608
11352W        W26483  12.706  15.968  11.971  0.0699  0.0676 -0.1395
11353W        W26484   5.172   3.505  11.896  0.1619  0.2534  0.2658
11354W        W26485   5.189   1.883   3.482 -0.0401 -0.1257  0.4199
11355W        W26486   7.315  15.276   3.353  0.1196 -0.1203  0.0034
11356W        W26487   3.269  10.074  12.895 -0.1243 -0.2123  0.1312
11357W        W26488   7.448   9.299  15.870  0.3780  0.0332 -0.1497
11358W        W26489   6.306   8.678   4.455  0.1216  0.0084  0.3693
11359W        W26490   0.328  13.562  15.181  0.1205  0.1867  0.2165
11360W        W26491   0.160   9.311   0.274  0.1842 -0.1008 -0.3743
11361W        W26492  15.435  11.160  14.206 -0.0200 -0.0501 -0.1894
11362W        W26493   5.864  15.627  14.208 -0.1628  0.1013  0.0307
11363W        W26494   6.683  17.497  11.725  0.1394  0.0326 -0.2928
11364W        W26495  17.472  14.619   6.369 -0.2135 -0.1690  0.1592
11365W        W26496  10.724  10.136  15.654 -0.2558 -0.0177 -0.1280
11366W        W26497   7.942  16.885  13.688 -0.1279  0.1886 -0.2103
11367W        W26498  16.960   9.741   1.890 -0.3194 -0.0592 -0.0491
11368W        W26499   9.666  14.880  11.606 -0.2373  0.0454 -0.0924
11369W        W26500  13.080  12.345   5.995 -0.1580  0.1135  0.0989
11370W        W26501  10.152  18.314  11.228  0.2993 -0.1587  0.0698
11371W        W26502  14.561  14.247  11.206  0.1723 -0.0093 -0.0200
11372W        W26503   1.398   8.899   4.637 -0.2736 -0.0022  0.0715
11373W        W26504  17.923   5.630  11.906 -0.0118 -0.0438  0.3821
11374W        W26505  14.094  17.710   5.588 -0.1496  0.4336  0.0945
11375W        W26506   6.631  14.659   3.594 -0.0063  0.2991 -0.2127
11376W        W26507   3.838  10.297   4.718 -0.1188 -0.4716  0.0133
11377W        W26508   1.686   1.406   1.334 -0.2185 -0.1970  0.1033
11378W        W26509  17.996   3.175  15.892 -0.1580  0.0303  0.7323
11379W        W26510   3.745   0.956  10.891  0.0953  0.1031 -0.0541
11380W        W26511   2.583   2.608   3.282 -0.1194  0.0442  0.2001
11381W        W26512   9.779   0.682   9.790  0.0097 -0.0789  0.2574
11382W        W26513   9.064   4.176  13.533  0.0932 -0.2276 -0.3117
11383W        W26514  13.745  10.170   3.361  0.1898  0.0087  0.2500
11384W        W26515   9.866   9.510  12.121  0.0033  0.0990  0.1272
11385W        W26516   3.823   8.646   0.050 -0.0420 -0.0319  0.1678
11386W        W26517  13.157  14.936  11.175 -0.1576 -0.1696 -0.1523
11387W        W26518   3.788   2.944   0.942  0.0802  0.3371 -0.0982
11388W        W26519  15.478  18.214   2.183 -0.0434 -0.0913 -0.0877
11389W        W26520   9.747   7.420  14.858 -0.0400  0.3998  0.1411
11390W        W26521   9.306  12.454   2.798 -0.1181  0.2358  0.0657
11391W        W26522  12.140   9.309   4.987 -0.0150 -0.0452 -0.0608
11392W        W26523   8.644   8.426   2.403 -0.0130 -0.0854 -0.2411
11393W        W26524  11.264  18.467   0.623 -0.2827 -0.0683 -0.1163
11394W        W26525   4.835   2.248  13.131 -0.1086 -0.1915  0.1237
11395W        W26526   7.513  13.419   1.449 -0.2633 -0.0159  0.0632
11396W        W26527  13.385   9.207   3.332 -0.2686 -0.1023 -0.1000
11397W        W26528   8.961   4.914   2.392 -0.0506 -0.0997 -0.1679
11398W        W26529   0.586  15.551  10.938 -0.0604 -0.0591  0.0559
11399W        W26530   5.179  14.042  12.005  0.2951  0.3585 -0.2243
11400W        W26531  14.218  16.026  15.197  0.0735 -0.2584 -0.0253
11401W        W26532   4.194  17.243  11.980 -0.0065 -0.0537  0.1385
11402W        W26533   0.307   5.740  12.502  0.2028  0.0415  0.0635
11403W        W26534   7.139  14.808  12.939  0.2079  0.1358 -0.0739
11404W        W26535   1.831   0.865  12.437  0.4111 -0.0067  0.0794
11405W        W26536   2.736  12.760  11.233 -0.1147 -0.1215 -0.0107
11406W        W26537   0.265   3.983  12.056  0.0219  0.5361 -0.0222
11407W        W26538  15.037   7.954  12.858 -0.1952  0.1040 -0.0582
11408W        W26539  15.718   4.308   1.565 -0.2916 -0.1017  0.1911
11409W        W26540   4.044   1.219  12.011 -0.0885 -0.1330  0.0227
11410W        W26541  11.218  12.820   2.948 -0.0631 -0.1733  0.3542
11411W        W26542   8.531  13.659   3.592 -0.1134  0.4263  0.0673
11412W        W26543   8.925   7.780  11.746 -0.1148 -0.1832 -0.1376
11413W        W26544   5.237   0.104   3.833 -0.1825 -0.0957 -0.1093
11414W        W26545   4.824  11.450  12.211  0.2761  0.1467  0.3278
11415W        W26546   0.002  17.873   4.308 -0.1879  0.1321 -0.2056
11416W        W26547   7.055  10.104   4.971  0.1718 -0.3057 -0.0772
11417W        W26548   6.136  15.504   3.003  0.1190  0.0407 -0.0575
11418W        W26549   5.634  11.848   3.401  0.1502  0.1862  0.1867
11419W        W26550  14.437   6.919   5.930  0.1941 -0.0407  0.1812
11420W        W26551   7.190  18.276   4.816 -0.1491 -0.1394  0.3883
11421W        W26552  11.451  16.524   3.267 -0.2677 -0.2963  0.1073
11422W        W26553   4.982   6.690  11.434  0.2191 -0.0005  0.2134
11423W        W26554   2.428   0.986   3.672 -0.1689  0.0421 -0.2643
11424W        W26555   3.339  16.892   1.127  0.0147 -0.1093 -0.1894
11425W        W26556  13.522  11.517  11.915  0.1442  0.1130 -0.0221
11426W        W26557   2.160  11.152  13.870 -0.0596  0.1897 -0.0442
11427W        W26558   3.175   8.877   0.207  0.2704 -0.0205  0.0132
11428W        W26559  13.737  16.777   0.260 -0.2602  0.1617 -0.0365
11429W        W26560  15.131   5.718   5.819  0.0075 -0.0305  0.4632
11430W        W26561  16.021  13.048  13.441  0.0722 -0.0071  0.2750
11431W        W26562  15.106  16.088  11.374  0.1878  0.0529 -0.2480
11432W        W26563  16.985  14.723  12.510  0.0460 -0.0905  0.2495
11433W        W26564  12.907   9.847   3.211 -0.0631 -0.2123  0.1116
11434W        W26565   8.721  17.386  12.252 -0.2052  0.2887  0.2119
11435W        W26566  10.236   5.760   4.000  0.0368  0.1161 -0.1691
11436W        W26567  14.151   8.937  12.821 -0.2438  0.0494 -0.0694
11437W        W26568   9.008   4.574   1.507  0.1677  0.3543 -0.1577
11438W        W26569  16.380   3.305   4.851  0.0579  0.1861 -0.2480
11439W        W26570   3.312  15.463   2.119  0.0825  0.1006  0.2581
11440W        W26571   1.858   2.958   2.116  0.4645  0.0185 -0.0241
11441W        W26572   4.258   5.899   1.769 -0.0121  0.2339 -0.2843
11442W        W26573  17.296  11.929  12.064 -0.0307  0.0178  0.0129
11443W        W26574  11.175   6.559  14.531  0.3834 -0.2049  0.1136
11444W        W26575  11.084  16.992  12.503 -0.1221 -0.1289  0.3458
11445W        W26576   4.853  12.850  13.178 -0.6182 -0.0729 -0.2812
11446W        W26577   6.931  15.618   4.112 -0.1287 -0.3610  0.0543
11447W        W26578   8.253  15.572   3.218  0.1141  0.1314  0.0950
11448W        W26579  13.719  12.757   3.834  0.0550  0.0011 -0.0676
11449W        W26580  12.190   2.872   1.107  0.1815  0.0363  0.4821
11450W        W26581   4.343   1.764  13.215  0.0513 -0.1160 -0.1376
11451W        W26582   1.718   6.307   1.392  0.0903  0.1208 -0.0523
11452W        W26583   7.269  17.642  13.406  0.0620 -0.0188 -0.2579
11453W        W26584   0.769  15.471  15.469 -0.2850  0.0439  0.0097
11454W        W26585  11.611  12.631   2.084  0.0192  0.2035 -0.0898
11455W        W26586   1.706   3.550   4.715  0.0167 -0.0884  0.0649
11456W        W26587   9.642  16.367   1.459  0.1040 -0.2492 -0.2973
11457W        W26588   6.403  16.641  14.130 -0.1136  0.2397  0.0785
11458W        W26589   9.643   2.014   1.941 -0.1096  0.4242  0.2865
11459W        W26590  11.098   1.872  12.617  0.2110  0.2586 -0.3813
11460W        W26591   4.188   5.842  14.934  0.0906  0.2130  0.2140
11461W        W26592  16.814   6.093   3.847  0.3360  0.0952 -0.0767
11462W        W26593  15.300  10.815   3.723  0.0034 -0.1333 -0.0595
11463W        W26594   9.836   9.125  15.039 -0.1060  0.1143 -0.0255
11464W        W26595  16.254  17.134  14.611 -0.1646 -0.1193 -0.0852
11465W        W26596   0.796  11.630  11.860  0.1136  0.0528  0.3871
11466W        W26597  15.868  11.401   4.602  0.1726  0.0783 -0.0677
11467W        W26598  15.098  17.477  11.814 -0.2659  0.0253 -0.3333
11468W        W26599   1.872  13.014   3.864 -0.2996  0.1216  0.0539
11469W        W26600   3.041  15.155   5.166  0.0632 -0.0212 -0.1650
11470W        W26601  10.340  12.311   0.364  0.0349  0.0315  0.0042
11471W        W26602   2.243   3.343  12.645 -0.2772  0.0012  0.2508
11472W        W26603  13.809  18.213   5.474 -0.0247  0.1696 -0.2178
11473W        W26604   8.466   1.489   1.598  0.5782  0.1740 -0.2848
11474W        W26605   1.198   3.215   2.102 -0.5047 -0.3547  0.0434
11475W        W26606  10.998   0.516   1.950  0.3682  0.0634  0.0053
11476W        W26607  17.251  11.860  12.586  0.0754 -0.1084  0.2356
11477W        W26608  15.708   0.482  14.864  0.2919 -0.0730 -0.1620
11478W        W26609   5.180   8.510   3.288 -0.0762  0.1483 -0.0814
11479W        W26610   3.175   7.021  14.377  0.3105  0.1027 -0.1483
11480W        W26611   1.143   5.637  14.149 -0.1900  0.0635  0.3113
11481W        W26612   6.643   5.806  14.045  0.0023  0.0854  0.0521
11482W        W26613   3.057  10.742  15.741  0.1458  0.5115  0.2118
11483W        W26614   6.760   8.714  11.984  0.1195 -0.2357  0.0186
11484W        W26615   3.878  12.812   5.009 -0.2836  0.0898  0.0127
11485W        W26616   0.515   6.708   2.318 -0.1766  0.0465 -0.2058
11486W        W26617   8.413   8.196  13.338  0.0760 -0.1431  0.0733
11487W        W26618   4.832  11.465   5.085  0.0166  0.3421  0.2918
11488W        W26619   9.872  13.814   0.828 -0.0085 -0.2257  0.3209
11489W        W26620   3.188   8.420  12.728 -0.0579  0.0280  0.1184
11490W        W26621  10.693  13.384   1.762 -0.1724  0.1308 -0.1770
11491W        W26622  13.850  15.655   1.680 -0.3008 -0.0660 -0.2263
11492W        W26623  14.765  10.688   5.094 -0.0791 -0.0029  0.3020
11493W        W26624   0.239   1.443  11.622 -0.1979 -0.2378 -0.1885
11494W        W26625   0.087   7.673   5.501 -0.0699 -0.2943 -0.0211
11495W        W26626   3.217   5.901   0.028  0.0898 -0.4645 -0.1384
11496W        W26627   4.879   4.686   3.241  0.1322 -0.1330 -0.1100
11497W        W26628   8.592   1.439   0.575 -0.1491  0.1342  0.0605
11498W        W26629   8.756   4.758  15.107 -0.0262 -0.0941 -0.0235
11499W        W26630  17.184   3.116  10.816 -0.1203  0.1353  0.0433
11500W        W26631  18.156  10.540   3.584  0.0715  0.3047  0.1982
11501W        W26632  17.425   1.391   2.362  0.1832  0.0583  0.1376
11502W        W26633  14.752  16.670   4.744 -0.1184 -0.3593 -0.4120
11503W        W26634   9.892   5.868   3.199  0.1908 -0.2439 -0.0407
11504W        W26635  11.607  17.450   1.179 -0.1676 -0.0263 -0.0670
11505W        W26636  18.087   8.054  13.817 -0.1397 -0.3446  0.0850
11506W        W26637   6.926   4.409  12.102  0.1642 -0.0911  0.1650
11507W        W26638  16.730  16.434  10.407 -0.1472  0.1440 -0.0564
11508W        W26639  12.368   4.530   4.695 -0.0367 -0.0124  0.0637
11509W        W26640  13.555   7.914   1.014 -0.2072  0.0486  0.2739
11510W        W26641   5.169  12.236   2.709  0.0817  0.2175 -0.0012
11511W        W26642  13.961   0.381  11.403  0.0254  0.3062  0.2637
11512W        W26643   7.510  16.995  12.716  0.0663  0.0985 -0.1526
11513W        W26644   7.049  10.295   2.121 -0.0851 -0.0244 -0.0742
11514W        W26645   1.851  15.437  12.446  0.0720  0.0010 -0.1939
11515W        W26646   9.042   3.990   5.635 -0.3055 -0.2376  0.0897
11516W        W26647  17.344   9.012  14.470 -0.0499 -0.0262 -0.0295
11517W        W26648   3.457  16.819  14.002 -0.3316 -0.2890 -0.0335
11518W        W26649   0.493  12.969  11.397 -0.1251 -0.2058  0.1513
11519W        W26650  13.128  15.887  15.787  0.1715 -0.2481  0.2506
11520W        W26651   3.198   4.796  10.540  0.2422 -0.1015 -0.0578
11521W        W26652   8.452  16.352  15.513 -0.0211 -0.1679  0.1418
11522W        W26653   3.416   7.843   4.179  0.0066 -0.1049 -0.1234
11523W        W26654  10.790   5.104  11.219  0.2680  0.0232  0.0124
11524W        W26655   3.792  12.407   2.575  0.0669 -0.0560  0.0868
11525W        W26656   9.742  11.875   2.025 -0.0301  0.4419  0.0921
11526W        W26657  11.679   9.201   5.191 -0.0039  0.0382  0.2631
11527W        W26658   9.848  15.647   3.754 -0.3505  0.1060  0.4007
11528W        W26659  16.094  12.865   4.599  0.1447 -0.1145 -0.1148
11529W        W26660  13.071  17.030  13.730 -0.0239  0.1359  0.3496
11530W        W26661   4.862   3.809   4.864  0.1663 -0.3374  0.2424
11531W        W26662   1.486  15.915   5.239  0.0154 -0.1680 -0.6779
11532W        W26663  12.965  10.442  12.083 -0.2375 -0.3005 -0.2175
11533W        W26664  15.862  12.054   3.227  0.2801 -0.3368  0.2165
11534W        W26665  12.755   6.397  12.283  0.2201 -0.2787  0.2944
11535W        W26666  11.602   0.407  13.508 -0.1972 -0.1202  0.2475
11536W        W26667   1.752   0.059  11.352  0.2805  0.2099  0.1775
11537W        W26668  11.289   1.538   2.355 -0.2093  0.2584 -0.0995
11538W        W26669   4.042   6.545   0.928  0.0514 -0.1148 -0.2362
11539W        W26670   8.994  11.194  15.705 -0.0355  0.5197  0.1183
11540W        W26671   4.990  11.866  11.953 -0.2421 -0.0780  0.5113
11541W        W26672   3.303   9.519   1.737  0.1826  0.1583 -0.4341
11542W        W26673   7.145   4.451  14.280 -0.1111  0.4504  0.2261
11543W        W26674   6.018   5.344   0.811  0.0304  0.0895  0.2263
11544W        W26675  17.511   1.355   3.808  0.3030  0.0406  0.1746
11545W        W26676  16.470  16.908   1.539  0.0503 -0.3054  0.0973
11546W        W26677  10.939   4.682  11.509  0.2559  0.0375 -0.2206
11547W        W26678   4.889  13.760   4.925 -0.0525  0.0233 -0.0599
11548W        W26679   5.189   2.815  13.557 -0.0536  0.1547  0.0681
11549W        W26680   3.727   6.092   2.686  0.0649 -0.2226  0.0902
11550W        W26681  11.198  14.609  13.061  0.1005  0.1116 -0.1303
11551W        W26682  18.055  13.298  12.180  0.2106 -0.1859  0.0841
11552W        W26683  17.842  10.920   2.438 -0.3270 -0.1091  0.1537
11553W        W26684  17.732   5.543  14.912 -0.1441 -0.0147 -0.0890
11554W        W26685   5.079  10.137   1.663  0.0142  0.1209 -0.4085
11555W        W26686   5.327   3.782   4.641  0.2098 -0.0640 -0.2762
11556W        W26687  14.026   2.173  11.000  0.1537  0.1771 -0.0023
11557W        W26688  18.189  12.824  12.459  0.4062 -0.1060 -0.0707
11558W        W26689  11.730   1.470   2.793 -0.1052  0.0457  0.2817
11559W        W26690  16.283  11.448  15.584 -0.1446  0.2304  0.3010
11560W        W26691  15.127   0.532   2.588 -0.2046 -0.1735 -0.2013
11561W        W26692  11.927   1.789   2.470 -0.0921  0.0716  0.1434
11562W        W26693  10.349  12.198  15.305 -0.1985  0.3905 -0.2693
11563W        W26694  16.753  10.586   2.917 -0.1178 -0.1842 -0.0658
11564W        W26695   9.481   2.659   5.053 -0.2884 -0.4803 -0.1352
11565W        W26696   1.229   0.648   1.768 -0.1012 -0.3479 -0.0253
11566W        W26697   9.431   7.305   4.386  0.0176  0.0163 -0.2858
11567W        W26698   5.626   2.519  14.492 -0.0677  0.2468  0.1895
11568W        W26699   9.422  14.416  14.763  0.0488 -0.0169  0.1229
11569W        W26700  14.243   7.294  12.300  0.0922  0.4629  0.0063
11570W        W26701  17.791   8.296   2.121 -0.1868  0.1686  0.1095
11571W        W26702   6.683  15.148   4.096 -0.1711 -0.2389 -0.1647
11572W        W26703   6.434  13.479  14.642  0.2160 -0.1736 -0.0209
11573W        W26704   0.664   1.561  12.578 -0.0256 -0.0770  0.1826
11574W        W26705  14.309   5.537  13.568 -0.5121  0.1588  0.0096
11575W        W26706   0.019  17.900  11.362 -0.2483 -0.0200  0.2064
11576W        W26707   4.763  13.411   0.420  0.1405 -0.1502 -0.1585
11577W        W26708  18.220  12.658   4.332  0.0665 -0.1849  0.0098
11578W        W26709  12.465   7.863  10.302 -0.0401  0.2318  0.5498
11579W        W26710  12.193  15.112   2.192  0.0044 -0.0888 -0.0978
11580W        W26711   9.720  15.825  15.562 -0.0369 -0.0239 -0.1576
11581W        W26712   8.735   0.868  13.913  0.0275  0.1633 -0.1889
11582W        W26713  12.565  11.510  12.618  0.0427 -0.0631  0.1379
11583W        W26714  14.823  13.019   4.219 -0.2471  0.1808  0.4245
11584W        W26715  11.773   5.981  14.972  0.0531  0.0845 -0.2663
11585W        W26716   3.509   7.983   1.092  0.2930 -0.2237  0.0953
11586W        W26717  13.244  14.476  11.012  0.3183  0.4290  0.1078
11587W        W26718  17.039  13.360  15.627 -0.0193  0.1685  0.1512
11588W        W26719   9.451  10.714  12.790  0.0765 -0.3395 -0.5955
11589W        W26720  11.897   2.406  15.744 -0.3411 -0.1167  0.1144
11590W        W26721  12.267   3.718  13.723 -0.2294 -0.1185 -0.1162
11591W        W26722  16.216  10.762  14.314  0.0053  0.0787 -0.2707
11592W        W26723   1.880   0.158   3.421 -0.0127 -0.0101 -0.0588
11593W        W26724   5.197  11.779   4.302 -0.2703  0.0159  0.2814
11594W        W26725  11.049  11.979   1.816 -0.0277  0.0496  0.0051
11595W        W26726  13.203  14.568   0.006 -0.0205 -0.1599 -0.0608
11596W        W26727   7.385   4.755  15.026 -0.1566  0.0057  0.1854
11597W        W26728  15.386  18.314  11.183  0.3665  0.0549  0.0277
11598W        W26729  17.589   9.253  15.296 -0.1846 -0.1648 -0.4596
11599W        W26730  11.941   0.001  15.113 -0.0085 -0.2585  0.0520
11600W        W26731   2.347  12.782   3.820 -0.0639  0.3881  0.1266
11601W        W26732  17.445  14.559   2.095 -0.0370  0.2254 -0.2215
11602W        W26733   9.107   5.006  14.620  0.1249  0.4026 -0.3166
11603W        W26734  13.049   3.156   4.159  0.1274 -0.1579  0.0531
11604W        W26735   2.822  17.048  14.698  0.1009 -0.1081 -0.0114
11605W        W26736  13.432   6.637  15.360 -0.0691  0.2164 -0.2845
11606W        W26737   2.811  17.649   3.899 -0.0466  0.0991 -0.0541
11607W        W26738   5.658   8.420  14.085 -0.1040 -0.1063 -0.1894
11608W        W26739   1.750  11.410  14.631  0.0215 -0.0582  0.0898
11609W        W26740  12.885  10.305   3.981 -0.0975 -0.0349  0.0264
11610W        W26741   9.336  11.229  11.897 -0.0602  0.2063 -0.0072
11611W        W26742   5.870   2.728   2.259  0.0367  0.1199  0.2040
11612W        W26743  11.125  15.670  12.529  0.3486  0.2730 -0.2607
11613W        W26744   8.643  15.928  10.473 -0.2782 -0.2016 -0.0862
11614W        W26745  11.112   9.006  15.164 -0.1286 -0.0723 -0.3290
11615W        W26746   3.956  18.350   0.521 -0.0660  0.0091  0.1296
11616W        W26747  15.805   3.692  13.483 -0.3229  0.1461  0.2307
11617W        W26748  12.858  10.467   2.404  0.0503  0.0586  0.0454
11618W        W26749   3.909   2.065  10.454 -0.1524  0.2677 -0.0335
11619W        W26750  15.634   2.216   4.519  0.1696 -0.0393 -0.1101
11620W        W26751   7.405   3.466  10.080 -0.2195 -0.4676 -0.3267
11621W        W26752  10.570  16.979   3.252  0.1879 -0.0691  0.0592
11622W        W26753   8.736   9.187  11.170 -0.0289  0.1505 -0.2972
11623W        W26754  15.126   3.389  13.775  0.0145  0.0133 -0.2102
11624W        W26755  11.393  13.533   0.866 -0.0091 -0.0624 -0.1378
11625W        W26756  13.069   0.133   0.329  0.2479  0.0431 -0.0127
11626W        W26757  16.423   6.387   1.398 -0.2309  0.1878  0.3964
11627W        W26758   4.652  10.842  11.301  0.2277  0.2780 -0.0851
11628W        W26759  10.196  16.624  11.863 -0.0166 -0.1097 -0.1516
11629W        W26760  10.436   4.110   4.529  0.0685 -0.0272  0.1849
11630W        W26761  16.818  13.743   4.252  0.0292 -0.2542  0.1882
11631W        W26762  14.975  15.777   1.904  0.2584  0.2459 -0.3154
11632W        W26763  16.926  17.895  14.327  0.1245  0.2160 -0.0631
11633W        W26764   8.701   5.292   2.200 -0.0427 -0.0814  0.3082
11634W        W26765  13.163  14.837  14.505 -0.0241 -0.2159  0.0601
11635W        W26766   4.904   8.367  11.924  0.1589 -0.3182 -0.0532
11636W        W26767   4.890  11.297  15.394 -0.1697 -0.2165  0.3091
11637W        W26768  12.934  14.404  14.546  0.5217  0.1763 -0.0955
11638W        W26769  17.048   0.358   5.755 -0.2464 -0.2751  0.0114
11639W        W26770   5.594   2.274   1.507  0.0543 -0.2331 -0.0736
11640W        W26771   2.629  17.604  13.015  0.1396  0.3415 -0.1220
11641W        W26772   8.029  10.036  13.305 -0.0274 -0.2178  0.1161
11642W        W26773   2.285   1.441   4.436 -0.2321 -0.0589  0.0783
11643W        W26774  17.023  14.070   5.555  0.2373  0.0480 -0.3302
11644W        W26775   4.490   4.506   0.363 -0.0436  0.3094  0.1039
11645W        W26776   5.127  18.208  12.706  0.3015 -0.1893  0.1129
11646W        W26777  16.995   9.426   4.438  0.0981 -0.0747  0.3639
11647W        W26778  14.846   7.372   4.639 -0.2737 -0.3182  0.2416
11648W        W26779   1.387   4.406   0.633  0.0347 -0.0845 -0.0245
11649W        W26780   6.525  10.388  13.056  0.0329  0.0766  0.2189
11650W        W26781  12.893  15.969   2.996 -0.1440 -0.1736  0.0558
11651W        W26782  17.886   8.539   3.758  0.2720  0.1431  0.1125
11652W        W26783   2.589  16.272   0.946 -0.0604  0.1835 -0.2602
11653W        W26784   7.776   1.023   1.132 -0.2427 -0.2212  0.1551
11654W        W26785  14.285   0.211  14.127  0.1538  0.2801  0.0765
11655W        W26786   5.427   8.198  11.861  0.1432  0.1444  0.1993
11656W        W26787  15.402   6.914  11.648  0.0546 -0.3276 -0.3274
11657W        W26788   2.313   9.198   3.021 -0.2397  0.1807  0.0618
11658W        W26789   4.152   1.676  12.232  0.1327  0.2312 -0.0991
11659W        W26790   7.146   5.517  11.219  0.0656 -0.1612 -0.3105
11660W        W26791   7.872   7.070   4.246  0.2175  0.1980 -0.0439
11661W        W26792  15.228   3.917  12.097 -0.0714  0.1351  0.0885
11662W        W26793  13.846  13.912   2.815  0.1904 -0.2209  0.1796
11663W        W26794   6.641   1.322  11.365 -0.0445 -0.1533  0.4602
11664W        W26795   3.017  11.025   2.694 -0.0929 -0.3056 -0.0143
11665W        W26796   5.076  18.321  14.125 -0.0129  0.0436  0.0289
11666W        W26797   9.718  11.398  15.381  0.1681  0.1645  0.2028
11667W        W26798   7.503   7.092   0.099 -0.0364  0.0117 -0.0792
11668W        W26799  17.198  12.213   1.072  0.1419  0.3017  0.1141
11669W        W26800   6.674   8.860   2.983  0.1558 -0.1175  0.1000
11670W        W26801   4.507  16.668   0.771  0.2779 -0.0638 -0.1437
11671W        W26802   9.484   3.708   0.134  0.1245  0.0568 -0.0457
11672W        W26803  10.734   9.132  15.467 -0.2732  0.2600  0.2735
11673W        W26804  10.766   9.986  14.633 -0.1120  0.1560 -0.0670
11674W        W26805  13.637  14.835   3.257 -0.0536  0.0415 -0.2104
11675W        W26806   8.426  14.809   0.236 -0.0041  0.3923  0.0574
11676W        W26807   5.864  17.667  11.028 -0.1471 -0.2689 -0.1508
11677W        W26808  16.269  11.706   1.377  0.0168  0.0343  0.0421
11678W        W26809   2.289  14.669  13.196  0.4474 -0.6397  0.1354
11679W        W26810   3.471   8.620  11.740 -0.1792 -0.2397  0.0085
11680W        W26811   5.834   3.166  15.098 -0.0353  0.1885 -0.0176
11681W        W26812  16.990   3.420   1.390  0.1412 -0.0444 -0.1501
11682W        W26813   3.240   4.407   1.834  0.1116  0.0859 -0.0570
11683W        W26814   3.407  15.299  12.910 -0.1178  0.2445 -0.2172
11684W        W26815   7.338  15.088  10.813 -0.0556 -0.1919  0.1336
11685W        W26816   1.314  13.385  14.020  0.0566  0.1652  0.1094
11686W        W26817  13.820   7.582   4.416 -0.1315 -0.0788 -0.4056
11687W        W26818   6.838  16.603  10.828  0.0743  0.2355 -0.0745
11688W        W26819   2.871  10.053  15.083 -0.2592 -0.0262 -0.0734
11689W        W26820   6.352  12.722   4.621 -0.0541 -0.0007 -0.0311
11690W        W26821  14.098   4.363  15.197  0.1691  0.1103  0.0871
11691W        W26822  16.554  14.847   5.124 -0.2131  0.2903  0.0070
11692W        W26823  10.185   0.637   9.421  0.0088  0.0003 -0.0210
11693W        W26824  14.329  17.808  12.404 -0.0692  0.0026  0.1206
11694W        W26825  12.332  11.417   2.563 -0.0607  0.1090 -0.1029
11695W        W26826  12.136   0.308  14.638 -0.2334 -0.0092 -0.0898
11696W        W26827   7.643  16.908  10.962 -0.1018  0.0614 -0.0828
11697W        W26828   4.086  18.290   1.234 -0.0576 -0.2326 -0.0404
11698W        W26829  16.170   8.711   1.339  0.1442  0.1009  0.2563
11699W        W26830   6.167   7.302   5.313  0.0905 -0.1741  0.1117
11700W        W26831  18.409   2.282   4.117  0.1270  0.2592  0.2908
11701W        W26832   3.771   9.075  12.116 -0.0015  0.1234  0.0066
11702W        W26833  16.965   3.497  11.144 -0.0090  0.0701 -0.2000
11703W        W26834   6.883  12.021  13.799 -0.1032  0.2043 -0.2157
11704W        W26835  12.241   0.994  12.972 -0.1753  0.3423 -0.0053
11705W        W26836   8.939   2.274   2.908  0.3245  0.2255 -0.2303
11706W        W26837  15.872   9.869  14.132 -0.2167  0.1581 -0.1423
11707W        W26838   0.711   4.023  12.530  0.1655  0.1789  0.0202
11708W        W26839  17.347   3.877  11.842  0.0120  0.0053  0.1094
11709W        W26840   2.145  18.412  13.686 -0.0213 -0.1059  0.1183
11710W        W26841   6.532  10.595   0.187  0.2379  0.3327  0.3371
11711W        W26842   5.688   5.081   0.526  0.1011  0.0762  0.1108
11712W        W26843  14.794   8.942   0.197 -0.0631  0.0957  0.1091
11713W        W26844   6.538   0.320   2.288 -0.1584  0.0045  0.0357
11714W        W26845  17.907   5.987  14.895 -0.1908  0.0258  0.5010
11715W        W26846   8.965  17.757  12.490 -0.3456  0.0868 -0.0191
11716W        W26847  16.049   9.971  11.711  0.0002  0.2107  0.4617
11717W        W26848   3.443  13.764   1.054  0.0856 -0.2302  0.1209
11718W        W26849  12.800  13.698   5.985  0.2714 -0.1952  0.0642
11719W        W26850  16.837   9.732  12.396 -0.0375 -0.1952 -0.1603
11720W        W26851   1.426   9.226  13.256  0.2557  0.2992 -0.1353
11721W        W26852  13.255   5.809   1.954  0.0173  0.2660  0.2141
11722W        W26853  16.439   2.343   1.796 -0.0395  0.0144  0.1058
11723W        W26854   4.167   7.312  13.370  0.3308 -0.0107  0.0917
11724W        W26855   4.445   1.143  14.631 -0.0493 -0.0994 -0.0988
11725W        W26856   4.977   8.288   4.921  0.0277  0.0904  0.1263
11726W        W26857   9.404  15.230  11.130 -0.0865 -0.1340 -0.2627
11727W        W26858  14.085   2.891  14.544  0.2443 -0.2064  0.1849
11728W        W26859  14.954   5.009  11.414  0.1057 -0.1071 -0.2757
11729W        W26860   2.691   6.117  10.879  0.4337  0.0639 -0.1707
11730W        W26861   8.493   5.793  15.324 -0.0917  0.1784  0.1484
11731W        W26862   4.430  11.449  11.245  0.0961  0.2275 -0.1517
11732W        W26863  15.127   0.146  13.343 -0.0260 -0.0749  0.2543
11733W        W26864   7.385   2.613   4.497  0.5207  0.0151 -0.0551
11734W        W26865   3.368  10.260  13.368  0.1081  0.3011  0.0447
11735W        W26866   2.881   1.280   5.484  0.0353 -0.1926 -0.1416
11736W        W26867   7.756   7.245  10.094  0.1917 -0.1093 -0.3590
11737W        W26868  10.096   2.810  11.579 -0.2341  0.0809  0.2374
11738W        W26869  13.040  12.446   0.310  0.1022  0.0991 -0.1931
11739W        W26870  18.303   5.474  13.384 -0.2640  0.2653  0.1520
11740W        W26871  15.408   2.803  13.065  0.2611 -0.6945  0.1686
11741W        W26872  13.343   6.959  15.791 -0.0540  0.2258  0.0764
11742W        W26873   0.656  12.598   4.668  0.1777 -0.3722  0.0429
11743W        W26874   0.192   9.202  14.588 -0.1791 -0.1261 -0.1641
11744W        W26875   8.464   9.601  10.866 -0.0546 -0.0292 -0.0650
11745W        W26876  10.907  10.277   4.693 -0.1786  0.1385 -0.1401
11746W        W26877   9.651  17.126   4.725 -0.0736 -0.1120 -0.0299
11747W        W26878  16.935  15.302  13.291  0.0321 -0.2922 -0.1344
11748W        W26879   3.531  12.996   0.915 -0.3300  0.2204  0.0227
11749W        W26880  10.874   6.944   1.324 -0.4808 -0.4060 -0.2204
11750W        W26881   6.362  17.288  15.092 -0.0102  0.0166  0.1172
11751W        W26882  15.294   3.707   5.081  0.1031  0.0248  0.0487
11752W        W26883  17.628  18.027   4.109  0.0564  0.0460  0.1580
11753W        W26884   9.537  11.932  11.354  0.3267  0.0415  0.0659
11754W        W26885   1.419   6.753   0.698 -0.1195  0.0331 -0.1170
11755W        W26886   7.906   8.054   0.846  0.0593  0.1725  0.0044
11756W        W26887  11.698   6.617   0.769 -0.1309 -0.0213 -0.1534
11757W        W26888   7.817  12.944  13.579 -0.0986  0.0638  0.0325
11758W        W26889   8.946  12.482   4.062  0.2109 -0.1444 -0.2307
11759W        W26890  15.048   7.830  11.577  0.1083  0.3921  0.1585
11760W        W26891  14.504   8.692  15.668  0.3580  0.1407 -0.2772
11761W        W26892   2.226  15.652  10.419  0.1070 -0.0334 -0.0547
11762W        W26893  10.105   1.224   0.755  0.2144  0.0412 -0.0225
11763W        W26894  12.857   9.758   3.776 -0.1661 -0.2643 -0.0035
11764W        W26895  18.226   6.660   3.550 -0.0552  0.2582 -0.0149
11765W        W26896   1.872   1.873   0.420  0.0601  0.2622  0.1355
11766W        W26897  14.013   6.570  11.874  0.0788 -0.0731  0.1063
11767W        W26898  18.463   0.599  14.680 -0.0763 -0.0961 -0.0882
11768W        W26899  17.532   5.821  14.592  0.1174  0.3495 -0.1417
11769W        W26900   9.012   7.799   4.418 -0.1136  0.0696  0.1513
11770W        W26901   2.406   2.851   2.822 -0.0799  0.0126 -0.0974
11771W        W26902  11.793   4.511   0.206 -0.0280  0.0653 -0.0013
11772W        W26903   2.190   0.392  13.712  0.2633  0.1427  0.1030
11773W        W26904  15.476   6.819   0.248 -0.0333 -0.1896  0.1898
11774W        W26905  15.117   7.605  12.157  0.2536  0.1863  0.3365
11775W        W26906   3.678  18.442  11.973 -0.1231 -0.0336  0.4047
11776W        W26907  17.917   3.229   1.114 -0.1072  0.1684 -0.1373
11777W        W26908   4.766  15.258   2.896  0.1228 -0.0360  0.1189
11778W        W26909   5.105   6.544   4.563  0.0137 -0.3809 -0.0028
11779W        W26910  10.720  15.033  11.830  0.2214  0.1195  0.2611
11780W        W26911   0.037   9.179  12.344  0.0974  0.2275  0.1141
11781W        W26912   3.951   5.253   1.347  0.0947  0.0845 -0.1868
11782W        W26913   2.196   4.719   2.042 -0.1093 -0.0272  0.2549
11783W        W26914  17.613  17.744   3.695  0.0129 -0.0945 -0.0036
11784W        W26915   3.605   9.398   1.379 -0.0100 -0.4666 -0.2600
11785W        W26916  13.109   1.959  10.935  0.1324  0.2571 -0.0625
11786W        W26917  12.295   1.457  10.693 -0.1286 -0.1094  0.0138
11787W        W26918   6.459  17.416  11.029  0.0959  0.2642  0.0383
11788W        W26919   2.708   0.632  12.699  0.1060  0.2959  0.0463
11789W        W26920  15.252  18.087  12.076  0.0782 -0.0579  0.1005
11790W        W26921   8.678   8.930   1.763  0.0459  0.2338 -0.0406
11791W        W26922   4.458  13.316   1.848 -0.0815 -0.2713  0.0961
11792W        W26923  18.476  13.294   4.074 -0.1648 -0.1546 -0.0344
11793W        W26924   9.665  17.973   2.212  0.1892  0.3059  0.0991
11794W        W26925   1.199  16.807  15.502 -0.1140  0.0167  0.2250
11795W        W26926   0.280  18.317  13.527  0.1040  0.0133  0.1711
11796W        W26927   1.947  16.627  12.393 -0.0023  0.2001 -0.0560
11797W        W26928  17.217  11.044  15.734  0.2404 -0.3412  0.0893
11798W        W26929  16.687   3.404  12.936 -0.0348 -0.2440 -0.1487
11799W        W26930   8.183  11.386   3.080 -0.5307  0.2019 -0.0043
11800W        W26931  14.304   6.779   5.424 -0.0656 -0.1661  0.1309
11801W        W26932  13.389  18.235  11.398 -0.1479  0.2743  0.1168
11802W        W26933  11.206   5.577  11.231 -0.2841  0.3323  0.1622
11803W        W26934  10.331  15.928   4.585  0.1311 -0.0468  0.0883
11804W        W26935   3.048  14.989   5.983  0.0244 -0.0722 -0.1196
11805W        W26936  10.862   6.341   4.015  0.1496 -0.3548 -0.3356
11806W        W26937  17.221  12.369   2.351 -0.1677  0.0783 -0.2206
11807W        W26938  13.749   5.458   0.199  0.1358 -0.1369 -0.2450
11808W        W26939  17.553  11.710   0.247  0.0891  0.4016 -0.2492
11809W        W26940  10.003  10.287  11.530  0.1503 -0.2398  0.1056
11810W        W26941   2.050   4.319   4.605  0.1684  0.0771  0.2289
11811W        W26942   6.049   5.804   4.591 -0.1534  0.0698 -0.0682
11812W        W26943   7.642  10.011   3.432  0.1780 -0.2004 -0.0097
11813W        W26944  17.660   3.022  15.411 -0.0845 -0.0381  0.1083
11814W        W26945  12.826  18.243  10.132 -0.1313 -0.0826  0.0489
11815W        W26946  12.804   8.371  15.482 -0.1330  0.1518  0.0801
11816W        W26947   7.243   4.225  13.052  0.3492 -0.1453  0.2373
11817W        W26948  14.984  17.537  14.435  0.0066  0.2418 -0.1401
11818W        W26949  15.120   7.161  13.410  0.2884  0.3273  0.2183
11819W        W26950  10.509  14.426  10.389  0.2149  0.1325  0.0376
11820W        W26951  16.606  11.072   2.927 -0.1318 -0.0433  0.1167
11821W        W26952   0.899   7.116  12.109 -0.1239  0.2069  0.0480
11822W        W26953   5.577   1.812  15.475 -0.1781 -0.0710 -0.2085
11823W        W26954  13.616  13.062   1.569 -0.5757 -0.0095 -0.0283
11824W        W26955   5.029   8.036  14.728 -0.1096  0.2920  0.2952
11825W        W26956  13.023  17.779  15.349 -0.0084  0.0234  0.0198
11826W        W26957   2.479  12.810  14.689  0.1863 -0.1601 -0.2435
11827W        W26958  14.792   9.667   3.187 -0.1417  0.0948  0.0476
11828W        W26959  12.690  15.923  10.228  0.1851 -0.0437  0.0653
11829W        W26960  12.301   5.733  14.037 -0.1647 -0.0362  0.3771
11830W        W26961  10.540   5.479   5.817 -0.1543  0.1540 -0.2079
11831W        W26962   1.141  14.068   2.605  0.0644 -0.0690  0.0160
11832W        W26963   7.017   4.565  11.197  0.1529  0.1437  0.0338
11833W        W26964  15.368   3.016  15.248 -0.1601 -0.1563 -0.0706
11834W        W26965   8.037   7.035   0.785 -0.2192 -0.0723  0.0055
11835W        W26966  11.717   9.579  14.546 -0.3433  0.1017 -0.1385
11836W        W26967  18.233  11.914   4.224  0.0801 -0.3655 -0.4129
11837W        W26968   3.799   3.379   2.846 -0.1894 -0.1309  0.2385
11838W        W26969   2.821  15.793  15.598 -0.2119  0.1233 -0.0909
11839W        W26970   1.339  16.177   2.773 -0.1372  0.1753  0.0138
11840W        W26971   2.911  16.705   0.306  0.2638 -0.1856  0.0466
11841W        W26972  17.558   8.827  15.812 -0.2615  0.3033 -0.1635
11842W        W26973   8.073  12.023  13.391  0.0293  0.0066 -0.2564
11843W        W26974   2.608  10.794   0.189 -0.1214 -0.0744  0.1540
11844W        W26975  15.876  11.620  10.826  0.2744 -0.0489  0.2870
11845W        W26976  16.240  17.946  15.655 -0.0136 -0.0823  0.2013
11846W        W26977   4.415   2.098   0.357 -0.2163 -0.1599  0.0400
11847W        W26978  17.505   8.602  13.004 -0.1985  0.0870 -0.1977
11848W        W26979  12.378   6.716  11.999  0.1358 -0.0319  0.3046
11849W        W26980  16.413   9.671  15.391  0.3343  0.0697  0.2592
11850W        W26981  14.031  12.766  10.514 -0.2356  0.1783 -0.0862
11851W        W26982  15.506   8.014  13.338  0.0012  0.0686 -0.0666
11852W        W26983  17.773  14.918   5.111 -0.0920 -0.1040  0.0984
11853W        W26984   8.968  11.647   1.655  0.0519  0.3894  0.1356
11854W        W26985   5.140  11.167  11.976 -0.0628 -0.1192  0.0371
11855W        W26986  18.258   7.949  15.392  0.0888 -0.2743  0.2738
11856W        W26987  14.599  13.532  14.116 -0.1350  0.1376  0.1493
11857W        W26988   6.540  10.268  12.555 -0.1004 -0.1542  0.1211
11858W        W26989   7.283   3.772   3.746 -0.1397 -0.0799 -0.1544
11859W        W26990  13.490   1.113  10.938  0.0660 -0.0801  0.1940
11860W        W26991   4.522   0.293  11.841  0.1387  0.2586 -0.0118
11861W        W26992  14.174  18.213   2.020  0.0440  0.0817  0.3702
11862W        W26993  11.885   2.522   0.310  0.1167  0.3206  0.1702
11863W        W26994  16.553  12.125  11.273 -0.2413 -0.2312  0.2056
11864W        W26995   5.880  17.223   2.122 -0.0764  0.1024 -0.0351
11865W        W26996   6.044   1.833  10.920  0.0242  0.1467  0.1030
11866W        W26997  16.565   3.514  11.644  0.2962  0.0015  0.2893
11867W        W26998  10.424   4.477  15.322  0.0865 -0.2005 -0.0559
11868W        W26999   1.405   3.710  11.059  0.0649 -0.1525 -0.0227
11869W        W27000  11.529   8.512  13.206 -0.2458 -0.1737 -0.0739
11870W        W27001   4.430  12.551   0.710 -0.4527  0.2150 -0.1846
11871W        W27002   8.160  16.432   3.162  0.1420  0.1138  0.1271
11872W        W27003  12.261  10.717   5.216 -0.1799 -0.1912 -0.1911
11873W        W27004   2.255   6.435  13.007  0.0621 -0.0515  0.0353
11874W        W27005  15.291  13.685  12.602  0.2678  0.1178  0.0108
11875W        W27006  15.326  10.482  14.837  0.0915 -0.1192  0.0428
11876W        W27007   0.331   4.962  10.879 -0.1171 -0.2276 -0.5459
11877W        W27008   8.681   5.884   2.186  0.0534  0.0638 -0.0195
11878W        W27009   5.493  11.443   5.466 -0.0128 -0.3028 -0.2243
11879W        W27010   6.427   9.361   0.814  0.2639 -0.1136 -0.0897
11880W        W27011  14.509   4.880   0.617  0.2160  0.0816 -0.2957
11881W        W27012  18.363   3.350   9.687 -0.2167  0.0293 -0.0279
11882W        W27013   6.019  17.639   1.675 -0.0698 -0.0673 -0.0025
11883W        W27014   1.516  11.884  14.586  0.0118 -0.1255 -0.1290
11884W        W27015  17.091   7.847  11.796 -0.2287 -0.0418  0.2642
11885W        W27016   3.112   2.425  13.671 -0.0956 -0.2007 -0.2262
11886W        W27017  14.094   2.332   1.267 -0.2070 -0.1734 -0.1229
11887W        W27018   3.098  11.665  10.780 -0.0214  0.1566  0.1187
11888W        W27019   2.332   2.047   4.325 -0.3266 -0.2144  0.0881
11889W        W27020  10.556  14.390  15.365  0.2333 -0.0681  0.0382
11890W        W27021  15.506  17.305  10.450 -0.2833  0.3509 -0.1117
11891W        W27022  11.416  13.655  14.183  0.1277  0.0903  0.3672
11892W        W27023   1.618   4.623  14.848 -0.0229 -0.1645  0.3641
11893W        W27024   9.905  12.009   2.494  0.4223 -0.0836  0.2399
11894W        W27025  17.673   9.384   2.805 -0.0198  0.0399 -0.0670
11895W        W27026  10.685   3.425  13.324  0.2709 -0.1487 -0.3945
11896W        W27027   6.677  11.065  14.161  0.2805 -0.0149  0.3759
11897W        W27028   5.908   1.306   0.046  0.3811 -0.1796  0.1630
11898W        W27029  13.847   7.883   0.550  0.0909  0.4072 -0.0906
11899W        W27030   8.685   3.681   3.398  0.0039  0.3436  0.1784
11900W        W27031   5.296  10.590  12.073 -0.2004 -0.1309  0.4051
11901W        W27032   1.805   3.598   0.356  0.1021  0.0962 -0.0506
11902W        W27033  12.715  12.951   1.287 -0.2648  0.2707  0.0406
11903W        W27034  16.619  17.841  12.683  0.1495  0.0884  0.2069
11904W        W27035   9.632   9.099  12.251  0.1694 -0.1487  0.2199
11905W        W27036   0.363   0.943   2.403 -0.1437 -0.0402  0.0339
11906W        W27037   3.861  10.269  10.914 -0.0705 -0.0122  0.2089
11907W        W27038   8.551   5.944   3.078  0.0206 -0.1467 -0.1974
11908W        W27039  11.110  16.470  14.941 -0.2545 -0.0229 -0.0777
11909W        W27040   5.092  17.227   0.018  0.0357  0.2630 -0.0244
11910W        W27041  11.164  10.256  12.194  0.0796  0.0021  0.2785
11911W        W27042   4.095  16.594   0.317  0.1330  0.0268 -0.1257
11912W        W27043   1.064  11.870  12.289  0.0993  0.1161  0.0087
11913W        W27044  16.050   3.191   2.815 -0.2691  0.1726 -0.0772
11914W        W27045  17.978  17.706  10.123  0.0709  0.0899 -0.1171
11915W        W27046   1.201   9.173  15.695  0.2217  0.3805  0.1108
11916W        W27047  11.239   7.864   2.212 -0.3806  0.1083 -0.2451
11917W        W27048  12.958  14.659  13.603  0.1015  0.1207 -0.1430
11918W        W27049  16.488   3.136   2.535 -0.1675  0.1542 -0.1715
11919W        W27050   9.403  16.167   1.001 -0.1952  0.0077 -0.0194
11920W        W27051   6.783   0.065  10.568 -0.3515 -0.0553  0.0512
11921W        W27052   5.353  18.291   1.366 -0.1747  0.2139 -0.2139
11922W        W27053  11.145   5.395   0.405  0.1876  0.0983  0.0709
11923W        W27054   3.104  11.045   4.043 -0.1081 -0.0027  0.2074
11924W        W27055   9.909   7.436  12.645  0.2239  0.0043 -0.0907
11925W        W27056  14.428   4.096  12.073 -0.0554  0.1942 -0.0163
11926W        W27057  10.855  10.987  14.013  0.2149  0.0483  0.1848
11927W        W27058   8.816   3.359   5.077  0.1071  0.1736  0.0551
11928W        W27059  13.562   2.778   3.399  0.1781  0.3402  0.1969
11929W        W27060  12.758   6.450  11.689 -0.0543 -0.3215  0.1694
11930W        W27061  10.439  17.039  14.282  0.3100 -0.2497 -0.0991
11931W        W27062  16.354   7.181  13.978  0.0562 -0.0472 -0.0732
11932W        W27063   9.266   8.264   0.344  0.0335 -0.0426  0.0430
11933W        W27064  10.307   0.808  11.626  0.0637 -0.1354 -0.0577
11934W        W27065  11.654  15.147  14.677 -0.0276 -0.1675  0.2305
11935W        W27066   9.493   9.695  12.889 -0.0310  0.0421  0.0167
11936W        W27067   1.212   3.966   2.799 -0.0518 -0.1874 -0.1166
11937W        W27068   5.890  16.915  10.494 -0.0749  0.1468 -0.0109
11938W        W27069   6.348  15.363   4.421 -0.0048  0.0758 -0.0148
11939W        W27070   0.828   0.526  15.762 -0.0993 -0.0016 -0.0570
11940W        W27071  13.055   5.853   1.057 -0.1829 -0.2573 -0.0087
11941W        W27072  12.435   8.556   1.798  0.0111 -0.0747 -0.1079
11942W        W27073   5.752  16.148  12.351  0.0381  0.0581 -0.1520
11943W        W27074   9.864  17.872  15.096  0.2347 -0.2438  0.1206
11944W        W27075   0.901   8.387  14.217  0.0881 -0.1401 -0.0097
11945W        W27076  12.142  10.019  15.479 -0.2742 -0.2464 -0.0042
11946W        W27077  10.774   4.637  12.641 -0.0644 -0.2868  0.0291
11947W        W27078  10.456  14.085   9.469 -0.1636 -0.0672 -0.0338
11948W        W27079   4.760   8.857  13.825  0.2407  0.0305 -0.0234
11949W        W27080   8.563   2.247  12.509  0.1733 -0.0977  0.0670
11950W        W27081  14.694   0.859   3.595  0.0724 -0.1054 -0.2195
11951W        W27082  14.263  11.359  10.397  0.0007 -0.1636 -0.0954
11952W        W27083   3.432   9.553  14.037  0.1860 -0.1174 -0.1775
11953W        W27084  13.894   7.884   5.598 -0.1240  0.0094  0.2788
11954W        W27085   8.576   2.659   3.953 -0.1107 -0.2881  0.1703
11955W        W27086  12.005  14.977  12.446  0.0417 -0.5116 -0.1366
11956W        W27087  12.732  10.790   4.171 -0.2626 -0.1998 -0.2411
11957W        W27088  15.764  11.160  15.050 -0.0837  0.3434 -0.1266
11958W        W27089   7.179   4.220   1.409 -0.0746 -0.3050  0.1137
11959W        W27090  12.848   0.589  15.109 -0.1103  0.3391  0.1327
11960W        W27091   1.876   6.772  13.148 -0.1998  0.1453  0.3096
11961W        W27092   7.955  18.435  13.766  0.1683 -0.0994 -0.1527
11962W        W27093   4.348  18.416   5.448 -0.0013 -0.0893  0.0881
11963W        W27094  14.144   3.495   1.985  0.0669 -0.3595 -0.1046
11964W        W27095   9.886   9.125   3.056  0.0442  0.1140  0.0037
11965W        W27096  11.866   1.345  14.276  0.1071 -0.0128  0.2603
11966W        W27097   6.824   5.024   1.047  0.0997 -0.0916 -0.2553
11967W        W27098  16.521  16.035  15.691  0.0677  0.1576 -0.0910
11968W        W27099  15.021   6.181  14.763 -0.0564  0.1978  0.2252
11969W        W27100   3.044  10.228  11.111  0.0183 -0.0180  0.1023
11970W        W27101   7.014  10.022  12.462  0.0484  0.1981  0.0228
11971W        W27102   0.010   3.890   2.165  0.0095 -0.0760 -0.2262
11972W        W27103  10.460   3.375   2.317  0.1412 -0.0909  0.1002
11973W        W27104  12.333   5.956   4.706  0.0338 -0.2871 -0.0024
11974W        W27105   0.146   7.925   0.893  0.3483 -0.0483  0.3006
11975W        W27106   3.968   6.240  15.226  0.4661 -0.0932 -0.4149
11976W        W27107  13.610   3.976  14.261  0.0118 -0.1527  0.0128
11977W        W27108   8.512  16.249  11.399 -0.1315 -0.1262  0.3394
11978W        W27109   1.395   4.003   5.045  0.0258  0.0863  0.1429
11979W        W27110   2.151   0.798   2.318 -0.2338  0.2106 -0.0540
11980W        W27111  11.447   3.645   5.162 -0.3314 -0.0478  0.1241
11981W        W27112   9.276   7.722  12.142 -0.0690 -0.1613 -0.1182
11982W        W27113   0.990  12.363  11.702  0.1674 -0.2031  0.1196
11983W        W27114  17.662  10.150   2.204 -0.3125 -0.1741  0.1270
11984W        W27115  11.167  11.615   4.131  0.1623 -0.2762  0.1502
11985W        W27116   4.526  15.858  12.620  0.0571  0.3818 -0.0988
11986W        W27117   1.693   0.734   1.457 -0.0089  0.1867 -0.1058
11987W        W27118   0.409  12.393  10.562 -0.2637 -0.0050  0.0817
11988W        W27119  17.643  13.960  11.239 -0.1250  0.0050  0.1901
11989W        W27120   6.594   4.711   3.540 -0.0851 -0.0163 -0.3070
11990W        W27121  11.282   2.886  10.880 -0.1611  0.1124  0.1671
11991W        W27122  11.891  17.715   0.198 -0.2374  0.0546 -0.2466
11992W        W27123   2.924   5.694   0.376  0.1018  0.2056 -0.0453
11993W        W27124   5.121   8.160  11.489 -0.0618  0.0163  0.0391
11994W        W27125   5.469  14.242   3.146 -0.2284  0.1977 -0.1802
11995W        W27126  11.081  12.252   0.359  0.0635 -0.1241  0.1111
11996W        W27127   8.321  14.594  11.426  0.0196  0.0961  0.1537
11997W        W27128  16.317   9.273  15.768  0.3180 -0.0448 -0.1550
11998W        W27129   6.611   7.389   2.666 -0.2441 -0.0074 -0.1770
11999W        W27130   2.597  18.234   1.570 -0.5159  0.0333 -0.2721
12000W        W27131  15.494   8.518   3.479 -0.0977  0.0191 -0.0246
12001W        W27132  14.204   1.814   4.238 -0.0885  0.0867 -0.1792
12002W        W27133  10.327  16.456  10.754 -0.0703 -0.1692 -0.2385
12003W        W27134   5.462   1.827   1.170 -0.0742  0.1985  0.4153
12004W        W27135  13.309   7.801  10.408  0.2802 -0.1859  0.1203
12005W        W27136   3.244   3.906  11.458 -0.2083 -0.2471 -0.3594
12006W        W27137   5.022  10.410   2.599 -0.0261 -0.0115  0.0787
12007W        W27138   5.974  16.474   3.763  0.4305 -0.0120  0.2547
12008W        W27139  12.195  15.563   0.853  0.0942  0.1500 -0.2573
12009W        W27140  17.829   7.849  15.189 -0.0170 -0.3936 -0.1381
12010W        W27141   2.014   1.895   2.980  0.0524 -0.1022 -0.0877
12011W        W27142   7.359  11.065   5.854  0.2122  0.2928 -0.0347
12012W        W27143   1.674  17.495  15.693 -0.2033  0.1644  0.1914
12013W        W27144   1.378   2.655   0.528 -0.0484 -0.0834 -0.0314
12014W        W27145  12.318   7.737   2.282 -0.2263  0.1601  0.2124
12015W        W27146   9.848  14.634   4.249  0.0350  0.0777 -0.0751
12016W        W27147   8.172   4.487   2.607 -0.1267  0.0827  0.0339
12017W        W27148  12.683  17.602  13.224 -0.1811  0.2862 -0.2883
12018W        W27149   9.782   3.162  12.920 -0.4156  0.2574 -0.1313
12019W        W27150   2.010  14.354  15.676  0.2233 -0.0943  0.2083
12020W        W27151   3.285   7.156   2.672 -0.1879 -0.0994 -0.0924
12021W        W27152  16.516  18.259  13.684  0.1505  0.0676  0.1682
12022W        W27153   1.863  16.217   5.157  0.1325  0.0759  0.1751
12023W        W27154   2.522   4.106  10.566  0.0438 -0.2102 -0.0961
12024W        W27155  16.696   7.325   1.381  0.2724 -0.0961 -0.4992
12025W        W27156   7.255  16.035   0.922 -0.3638 -0.1162 -0.0227
12026W        W27157  12.706  17.497   4.233  0.0045 -0.0797 -0.2238
12027W        W27158   2.234  18.496  10.994 -0.0002  0.0645 -0.2359
12028W        W27159  17.135   5.733   0.985 -0.0014  0.0769  0.4945
12029W        W27160   9.721   5.547  12.437 -0.3456  0.0886  0.3323
12030W        W27161   4.445  17.537  11.219 -0.0600  0.2616 -0.2875
12031W        W27162   0.293  18.247   3.227 -0.0569 -0.2465 -0.0757
12032W        W27163   8.125   8.346  15.510 -0.1644 -0.1608  0.0870
12033W        W27164   5.750   7.973  13.563 -0.0725  0.3256  0.0543
12034W        W27165  11.120   6.381  15.887 -0.0729  0.0639 -0.0375
12035W        W27166  16.533   6.622   5.103 -0.0452  0.0469 -0.0763
12036W        W27167   5.675   5.334   5.201  0.2114  0.0039  0.1321
12037W        W27168   7.697  13.997  12.462 -0.3458  0.1203 -0.2268
12038W        W27169  10.381   4.096   0.661 -0.0119  0.1484 -0.0717
12039W        W27170  10.504   3.635  11.562 -0.1270 -0.3648 -0.1288
12040W        W27171  17.618   7.559   4.444  0.1518  0.0692  0.4297
12041W        W27172   4.474  13.965   4.809  0.1585 -0.1545 -0.0008
12042W        W27173  14.473  17.491   2.351  0.1634 -0.0543  0.1570
12043W        W27174  12.659  16.708  14.390 -0.0658  0.1353  0.0862
12044W        W27175  14.670  18.016   3.483  0.1189  0.1100  0.2911
12045W        W27176   3.666  13.492  11.200 -0.0187  0.1078  0.0108
12046W        W27177   0.974   8.442   5.419 -0.4197 -0.3605  0.1074
12047W        W27178  14.455   0.645  13.885 -0.1241  0.5261  0.2603
12048W        W27179   1.526  11.447  11.732  0.3599  0.3512  0.1347
12049W        W27180  12.097   7.286   1.340 -0.3760 -0.2630  0.1183
12050W        W27181  10.957  15.848   4.774  0.1074 -0.0736  0.0653
12051W        W27182   7.134   3.952  12.073 -0.4218  0.2090  0.0016
12052W        W27183   6.861   9.673   4.754 -0.2686  0.2419 -0.3718
12053W        W27184   2.688  14.774  14.328 -0.0308  0.3859 -0.0412
12054W        W27185  18.348   6.588   5.586 -0.1398 -0.0687 -0.2791
12055W        W27186   4.089   9.988   1.294 -0.0851 -0.1809 -0.1006
12056W        W27187  16.434  16.189  13.753  0.0035 -0.0964  0.4796
12057W        W27188  15.816  14.339  15.317  0.0031  0.2270  0.0935
12058W        W27189  12.607   7.496  15.467  0.1313 -0.1490 -0.3656
12059W        W27190   0.726   1.080   1.102 -0.0317 -0.0518  0.0724
12060W        W27191  14.409  13.282  10.671 -0.0991 -0.1722  0.3537
12061W        W27192   0.367   2.854   5.703  0.1134  0.2998  0.2210
12062W        W27193   7.323  13.265   2.362  0.2051  0.0294 -0.0015
12063W        W27194   8.732  15.617  14.587 -0.4459 -0.0701  0.0529
12064W        W27195  10.477  17.669  14.343 -0.1794  0.1021  0.1843
12065W        W27196  15.371   5.551  14.517  0.1097 -0.1867  0.2054
12066W        W27197   4.088   7.886  15.745 -0.4941 -0.2177 -0.0036
12067W        W27198   7.725   8.542   5.862 -0.0246  0.3003  0.3941
12068W        W27199  12.730   0.905  15.604 -0.2360  0.1897 -0.0199
12069W        W27200   2.982  16.171   5.393  0.2644  0.1599 -0.2530
12070W        W27201  11.732   8.037   3.641 -0.2514  0.0043 -0.0539
12071W        W27202   2.452  12.768   1.138 -0.2280  0.1714 -0.2053
12072W        W27203   8.296   9.662  13.231 -0.6412  0.1055  0.1243
12073W        W27204   5.197  16.046  13.817 -0.1437 -0.2733  0.1898
12074W        W27205  15.068   2.169   4.487  0.1249 -0.2614  0.0516
12075W        W27206   9.816   8.100  14.862  0.3141  0.0420  0.0672
12076W        W27207  17.520   0.342   4.512 -0.3065  0.0313  0.2524
12077W        W27208   8.070  15.853  14.149 -0.1028 -0.1999  0.2063
12078W        W27209  17.559  17.372   4.710  0.0863 -0.0005 -0.1602
12079W        W27210  11.471   8.771   2.957 -0.1181 -0.3035  0.0885
12080W        W27211   5.826  17.721   2.296  0.1387  0.0351  0.1422
12081W        W27212  18.473  17.114  12.832 -0.1468  0.0785  0.1146
12082W        W27213  15.567   1.036   1.850 -0.0709 -0.0185  0.1046
12083W        W27214  15.740  15.168  14.863  0.2568  0.2613 -0.2574
12084W        W27215   3.571   7.696  15.021  0.2242 -0.0834  0.0770
12085W        W27216   8.496   1.608   4.124  0.0864 -0.3645 -0.3524
12086W        W27217   8.266   1.039   1.418 -0.1550  0.0215  0.1431
12087W        W27218   8.572  11.949  15.037 -0.0587  0.0606 -0.5255
12088W        W27219   8.951   4.178  12.945  0.3215  0.0290 -0.2961
12089W        W27220   2.490  12.146  13.096 -0.1247 -0.2249 -0.1895
12090W        W27221   2.453   0.595  15.415  0.0375 -0.1032 -0.0086
12091W        W27222   8.497  15.574  15.690  0.1225 -0.2469 -0.0251
12092W        W27223   3.245   1.742   4.134  0.1029  0.1732 -0.1441
12093W        W27224   4.591   2.504   4.690 -0.1481 -0.1570 -0.1598
12094W        W27225   2.358  13.609   1.614  0.0774 -0.1264 -0.0328
12095W        W27226   9.110  12.399  13.110  0.3379 -0.2355 -0.2111
12096W        W27227   1.935   6.093  14.575  0.2789  0.0017  0.1153
12097W        W27228   6.519   1.654   5.992 -0.4250 -0.0342 -0.2325
12098W        W27229   5.325   7.435  12.439  0.2384  0.3054  0.0869
12099W        W27230   7.241   2.009  15.150 -0.0854  0.0236  0.1992
12100W        W27231   0.128   0.826  10.980  0.2963 -0.1072  0.1240
12101W        W27232   6.265  14.330   3.722  0.4483 -0.0508  0.1066
12102W        W27233   8.366  18.113   5.217  0.0224 -0.0762  0.3594
12103W        W27234  12.595   5.213   3.299  0.0011  0.1107  0.4362
12104W        W27235   9.401  16.015  15.221 -0.0895 -0.2633  0.2920
12105W        W27236  16.393   8.305   1.533  0.0154  0.0698 -0.1995
12106W        W27237   8.917   0.175  11.325  0.1576 -0.1521 -0.1172
12107W        W27238  18.158  12.628  13.701  0.1844  0.1336  0.0706
12108W        W27239   6.180   3.737   0.430  0.0437 -0.2378  0.2293
12109W        W27240  12.225   0.461  11.319  0.2008  0.0282  0.3098
12110W        W27241  14.354   9.552  11.752  0.0989  0.1659 -0.1667
12111W        W27242   0.680   6.449  15.352 -0.0089 -0.1055 -0.1248
12112W        W27243   1.812  17.532  13.646 -0.1153  0.1182  0.1089
12113W        W27244   7.962   9.645  10.313  0.2401  0.2255 -0.1610
12114W        W27245  17.143   6.039   1.769  0.1139  0.0611 -0.0373
12115W        W27246   1.586  11.000  11.012  0.1639 -0.1712  0.0601
12116W        W27247  15.852  15.626  14.136  0.2990 -0.0517 -0.0293
12117W        W27248  15.200   6.629  13.132 -0.1025 -0.2765 -0.3855
12118W        W27249   2.581  10.114  11.021  0.0666 -0.0949  0.3112
12119W        W27250   2.990   8.982  15.185 -0.0744  0.1567 -0.0994
12120W        W27251   8.542   3.565  14.814  0.2064 -0.0015 -0.0181
12121W        W27252   6.858  17.508   0.867  0.0609  0.2709 -0.0313
12122W        W27253   1.830   8.867   2.230 -0.0714 -0.2297 -0.2802
12123W        W27254  15.474  12.449   0.285  0.1942  0.1578 -0.1823
12124W        W27255   8.801   0.788  13.435  0.1548  0.0997  0.2717
12125W        W27256   5.223   5.531  15.278  0.0878 -0.1008  0.0888
12126W        W27257  17.864   8.435   0.032  0.0038  0.3853  0.1697
12127W        W27258   1.825  18.467  12.595  0.1244  0.2146  0.1199
12128W        W27259   8.002   7.321  11.411 -0.1889  0.1191  0.1480
12129W        W27260  12.785   5.786   2.670  0.0436  0.0834  0.1813
12130W        W27261  13.954   7.072  11.997  0.0087 -0.2828 -0.1672
12131W        W27262  17.321   3.455  11.533 -0.1373 -0.1510  0.0501
12132W        W27263   4.954   6.391   9.993 -0.1088 -0.0405  0.1599
12133W        W27264  11.009   6.832   0.100  0.1552 -0.1555 -0.2204
12134W        W27265   0.742   3.092   3.940  0.2903  0.2053  0.0701
12135W        W27266  16.516   7.715  13.216 -0.1608  0.0102 -0.0394
12136W        W27267   7.355  12.881   5.124  0.2030 -0.2285  0.1733
12137W        W27268  14.864   2.771  14.397 -0.0460  0.0530 -0.1344
12138W        W27269   4.429  10.579   4.847  0.0580 -0.2516 -0.1555
12139W        W27270   5.137   7.540   3.068  0.2703  0.1345 -0.2279
12140W        W27271   2.502   9.214   4.455 -0.1094 -0.1849  0.2888
12141W        W27272  14.392   6.450  12.592  0.2606 -0.2078 -0.0468
12142W        W27273  11.845   3.826  14.826  0.1369  0.0725  0.4253
12143W        W27274   2.195   1.467   2.759  0.1561  0.1437 -0.1112
12144W        W27275   7.840  11.573  13.135 -0.2123 -0.1257  0.1228
12145W        W27276  11.401   1.969   2.114  0.2145 -0.0839  0.4897
12146W        W27277   5.486   6.529   4.878 -0.1840  0.0407 -0.0093
12147W        W27278   6.181   3.947   2.324 -0.0852  0.0216 -0.1504
12148W        W27279  10.719   1.589   4.331  0.0639 -0.1953 -0.1352
12149W        W27280  12.525   7.535  11.642 -0.3554  0.0441  0.3281
12150W        W27281  15.537   0.951   4.460  0.0353  0.1023 -0.0115
12151W        W27282  11.780   9.918   3.211 -0.1089  0.0310 -0.3619
12152W        W27283   1.827  13.773   1.414  0.0121  0.0347 -0.2479
12153W        W27284  14.029   5.404  15.147 -0.0787  0.0631 -0.0350
12154W        W27285   3.814   4.275  13.943  0.0123 -0.1040  0.1126
12155W        W27286   6.788   2.349  12.474  0.1262  0.1284  0.0217
12156W        W27287  10.160   9.879   2.629 -0.3661  0.0103  0.1218
12157W        W27288   1.007   2.019  12.696 -0.2535  0.0790 -0.0988
12158W        W27289  13.705   5.917   3.685  0.2320  0.2609  0.2063
12159W        W27290  18.024   3.803   3.149  0.2939  0.1519 -0.2627
12160W        W27291   0.157   0.636   3.859  0.0620 -0.1106 -0.1657
12161W        W27292  10.285   0.589  12.701 -0.0959 -0.0278 -0.4243
12162W        W27293   7.609   7.216   5.130 -0.1002  0.1694  0.1151
12163W        W27294   0.828  15.267   5.475 -0.0374 -0.0082  0.1415
12164W        W27295  18.005  15.458  11.793  0.2403  0.4201 -0.1535
12165W        W27296   6.502  14.473  10.771 -0.0597  0.2127  0.0837
12166W        W27297   9.115  12.370   0.131  0.2988 -0.4174  0.1800
12167W        W27298  13.850   0.437  13.997 -0.0644 -0.0994 -0.1754
12168W        W27299  11.138  14.055   4.960  0.0524 -0.1939  0.0835
12169W        W27300   2.927   1.527   0.461  0.1927 -0.0027  0.1684
12170W        W27301   0.210   6.756   5.369  0.0541  0.0200  0.0996
12171W        W27302  13.392  14.247   4.152  0.2312  0.2167 -0.0437
12172W        W27303  14.326  17.189  11.484  0.1237 -0.1262 -0.0469
12173W        W27304  11.305  12.912   2.374  0.2081 -0.2295  0.0458
12174W        W27305   9.989  15.162  15.007 -0.5421 -0.2146  0.2640
12175W        W27306  16.935  14.273  12.264  0.1280  0.4952 -0.2150
12176W        W27307  11.465   5.202  14.540 -0.1105  0.0717  0.3656
12177W        W27308  15.674   2.053  13.814  0.2721  0.2926  0.0162
12178W        W27309   7.497  11.602   1.837 -0.3051  0.0157 -0.0430
12179W        W27310   7.216   5.205  12.481 -0.2634 -0.0146  0.0466
12180W        W27311  12.084  10.925   1.279  0.0506 -0.1153 -0.3917
12181W        W27312  14.117  12.128   1.460 -0.1025  0.1904 -0.1561
12182W        W27313   3.976   3.653   0.195  0.0029  0.1771 -0.4640
12183W        W27314   8.661  18.487  12.466  0.3796  0.0219 -0.0186
12184W        W27315   2.957   1.073  14.235  0.5129 -0.0866  0.1795
12185W        W27316   0.275  18.159  10.614  0.0044 -0.0554  0.0523
12186W        W27317  15.322  14.268   4.372 -0.2342  0.4565 -0.1163
12187W        W27318  17.991   3.668   4.082  0.2066 -0.2755  0.4038
12188W        W27319   9.349  13.890  13.612 -0.0777 -0.3434  0.2074
12189W        W27320   2.401   1.828   5.278 -0.3830  0.0241  0.2005
12190W        W27321   3.161  11.536   5.169 -0.0944 -0.2017 -0.0799
12191W        W27322   7.286   6.294   6.467  0.0804  0.0142  0.0674
12192W        W27323   1.004  13.325   1.517  0.2105 -0.1967  0.0043
12193W        W27324  10.903   7.208   3.857  0.3295  0.2618  0.1900
12194W        W27325   3.022   4.389  10.631  0.1284  0.1252  0.4019
12195W        W27326   8.081  12.805   4.528 -0.2985 -0.1475 -0.1381
12196W        W27327   5.757   2.252   0.042 -0.0745  0.1005 -0.1165
12197W        W27328   3.442  16.992   2.161 -0.1692  0.2977  0.0268
12198W        W27329   2.330  18.136   0.035 -0.1270  0.2325 -0.2292
12199W        W27330   1.214   3.887   3.815  0.0810  0.0560 -0.0866
12200W        W27331   8.512  12.820   2.127 -0.0302 -0.0642  0.4069
12201W        W27332  17.561  17.167   1.284  0.0392 -0.0719 -0.0415
12202W        W27333   4.480   3.936   4.489 -0.0285 -0.1610  0.0848
12203W        W27334  11.611   1.012   3.042  0.2232  0.0687  0.1899
12204W        W27335   0.498   7.701   4.082 -0.0102 -0.1483 -0.2737
12205W        W27336   5.601   4.659   0.842  0.1558 -0.2142  0.0531
12206W        W27337   1.711  16.283   4.669 -0.1441  0.3945 -0.0666
12207W        W27338  10.647   2.933  13.362 -0.1009 -0.0451 -0.0461
12208W        W27339  16.051  16.420   4.377 -0.0839 -0.1881 -0.2062
12209W        W27340   7.228  15.694   4.506 -0.0055 -0.1588 -0.1610
12210W        W27341   0.517   8.958  13.390 -0.2103 -0.1277 -0.2597
12211W        W27342   6.518  14.697  12.409 -0.1176  0.2043  0.5142
12212W        W27343  10.104   3.449   5.291 -0.0554  0.3380  0.0854
12213W        W27344   0.177   0.441   4.299  0.2427 -0.0318  0.0055
12214W        W27345  16.892   4.387  12.658 -0.3178 -0.0832 -0.1371
12215W        W27346   3.210   0.729  10.632 -0.0593  0.1186  0.0278
12216W        W27347   3.514  14.818  14.364  0.0913  0.0733  0.2005
12217W        W27348  12.480  11.472  15.454 -0.1210 -0.0500 -0.2493
12218W        W27349  14.860   1.871  11.440 -0.3111 -0.1666  0.2839
12219W        W27350  11.285  11.200   1.157 -0.0714 -0.3399  0.1595
12220W        W27351   9.595  16.474   4.144 -0.0713  0.2323 -0.0453
12221W        W27352  13.466   4.498   0.190  0.1847 -0.1047  0.1521
12222W        W27353   7.199   1.772  14.223 -0.0290  0.0966 -0.1164
12223W        W27354   4.279   7.397  10.749 -0.1223 -0.2290  0.0065
12224W        W27355  13.365  16.120  13.428  0.2263 -0.3144  0.1114
12225W        W27356  10.159   6.213   2.176  0.2119 -0.0133  0.1266
12226W        W27357  12.210  16.236  10.845 -0.0680  0.0751  0.0526
12227W        W27358   8.984  17.092  11.848 -0.1724 -0.1186  0.1254
12228W        W27359   3.919   6.835   3.357 -0.3393 -0.0812 -0.4722
12229W        W27360   6.547   4.485  11.433 -0.4025 -0.2136  0.1694
12230W        W27361   4.820  17.141  14.383 -0.0365  0.2023 -0.0243
12231W        W27362   3.622  14.905  14.861 -0.0174 -0.0709  0.0977
12232W        W27363   6.206   9.209  13.405 -0.2927  0.0719  0.2622
12233W        W27364   8.874  15.380   0.529 -0.2718  0.0743  0.0757
12234W        W27365   0.301  10.474   1.595  0.2598  0.1541 -0.0254
12235W        W27366  14.060  11.480  10.839 -0.0518 -0.1207  0.0204
12236W        W27367  14.309   5.265   5.448  0.0744 -0.0157 -0.1623
12237W        W27368   9.753  16.004  13.830 -0.2082 -0.0679 -0.3256
12238W        W27369   3.348  10.043  13.903  0.0940 -0.0538  0.0029
12239W        W27370   8.001  15.348  11.633  0.0443 -0.0042 -0.0643
12240W        W27371   6.491   5.955   4.827  0.3944 -0.2571  0.2969
12241W        W27372  17.226   1.122  13.329 -0.0506 -0.0451  0.2308
12242W        W27373  15.718   5.706  14.174  0.0073  0.0168 -0.2075
12243W        W27374   8.594   9.288   5.310 -0.3165  0.0547  0.0176
12244W        W27375  13.046  15.329  13.043 -0.1119  0.0844  0.1062
12245W        W27376   0.793  18.259   0.961  0.0110  0.2504 -0.0471
12246W        W27377  10.243   2.961   2.872 -0.1843 -0.0784 -0.4800
12247W        W27378   4.444   4.260  11.116  0.3646 -0.0707  0.3885
12248W        W27379   6.569  13.142   3.004  0.2190  0.1646  0.3428
12249W        W27380   3.643  12.125   0.178 -0.0019 -0.2201  0.0238
12250W        W27381  16.823  13.193   1.859  0.0214 -0.0309 -0.1950
12251W        W27382  17.022   1.214   4.548 -0.2820  0.1260 -0.0037
12252W        W27383  17.456   9.695   2.119  0.4169  0.2708 -0.0294
12253W        W27384  16.060  17.469  11.706 -0.1560 -0.1383 -0.1284
12254W        W27385   0.457  10.830  12.479 -0.1021 -0.3582 -0.0694
12255W        W27386  11.567   6.525   2.421  0.1915  0.2156 -0.3006
12256W        W27387  14.775   1.738   3.548  0.0284  0.3459  0.2550
12257W        W27388   6.546  12.330  13.649  0.0290  0.0131  0.3029
12258W        W27389  16.315   1.699  10.265 -0.2351  0.0451  0.0478
12259W        W27390   4.606  15.258  11.505  0.2707 -0.1168  0.1889
12260W        W27391   6.794   7.178  15.833  0.0977  0.0576  0.0772
12261W        W27392   3.377   2.926  10.401 -0.1944  0.2141  0.3034
12262W        W27393  10.904  14.651   2.305 -0.0501 -0.2494  0.3985
12263W        W27394   2.721  17.236  13.366  0.1854 -0.0668 -0.3457
12264W        W27395   6.140   5.467  15.810 -0.2954 -0.3568 -0.0190
12265W        W27396   9.695   4.280  11.476 -0.0324 -0.0028 -0.0553
12266W        W27397   8.712   5.939  13.233  0.0969 -0.0568  0.1875
12267W        W27398   1.258  18.099   3.837  0.0983  0.2104 -0.0746
12268W        W27399   5.261   4.528   4.870  0.2630 -0.0205 -0.0979
12269W        W27400   8.359   4.233  13.566  0.0176 -0.1320 -0.1121
12270W        W27401   3.897  15.476   4.956  0.0396 -0.2014  0.0559
12271W        W27402  18.285  10.568   0.768 -0.1712 -0.0680 -0.0691
12272W        W27403   1.814   9.267   2.862 -0.4568  0.1767 -0.1180
12273W        W27404   6.727   1.898  13.315  0.0153  0.1142 -0.2692
12274W        W27405   2.770   2.682   4.208 -0.1950 -0.0879  0.0857
12275W        W27406   8.569  12.937   3.275  0.1870 -0.1433  0.2762
12276W        W27407  10.805  13.741  12.636  0.0021  0.2075  0.2840
12277W        W27408  15.023  15.189  13.196  0.2359 -0.1466 -0.0021
12278W        W27409   4.748   4.026   0.243 -0.2172 -0.0937 -0.1154
12279W        W27410   7.873  17.848  14.166  0.0374  0.2391 -0.0710
12280W        W27411   8.130   8.692   3.713  0.0390  0.0509 -0.0610
12281W        W27412   5.677   8.101  14.461  0.0516 -0.0944  0.1669
12282W        W27413  14.611   6.345   3.651 -0.0790 -0.0639 -0.0744
12283W        W27414  10.385  12.574   3.537 -0.1270 -0.0868 -0.0268
12284W        W27415  15.959  17.137  12.584  0.0940  0.1219  0.0355
12285W        W27416   5.987  15.104  14.691  0.1064  0.1505 -0.0931
12286W        W27417   5.683  13.415  13.837  0.1201  0.1053  0.1344
12287W        W27418   1.938   9.374  15.072 -0.1001  0.0165 -0.1740
12288W        W27419   2.749   8.076   2.968  0.1527  0.2318 -0.3349
12289W        W27420   5.462   2.924  14.749 -0.2900 -0.1665 -0.2932
12290W        W27421   7.493   3.736  13.287 -0.0413  0.2899  0.0805
12291W        W27422  15.129   1.887  12.331 -0.1740 -0.1275  0.0421
12292W        W27423   4.542  13.337  14.925 -0.0824  0.2554 -0.0965
12293W        W27424   9.747  10.748  15.674  0.0320  0.1209  0.0581
12294W        W27425  15.310   4.404  11.785 -0.0043 -0.0446 -0.2089
12295W        W27426  15.422  11.722  13.746  0.1329  0.1050  0.1993
12296W        W27427   2.295   7.945  12.370 -0.1607  0.3207 -0.0828
12297W        W27428   8.985   1.810   3.893  0.1054  0.0719 -0.1285
12298W        W27429   7.773   5.542   3.724  0.1494 -0.0161  0.0306
12299W        W27430  14.269   6.460   3.254  0.2651 -0.3342 -0.2239
12300W        W27431   1.288  15.262  11.282  0.0624 -0.0387  0.2107
12301W        W27432  15.435   0.157   2.733  0.1838 -0.1859 -0.0364
12302W        W27433  13.265   9.107   3.855 -0.2908  0.0813  0.0841
12303W        W27434  12.541  10.510   1.289 -0.1161  0.2296  0.3718
12304W        W27435  12.880   6.366  15.702  0.0975  0.3400 -0.0247
12305W        W27436  13.693   9.085  12.826 -0.1634  0.2257 -0.1689
12306W        W27437  18.027  13.810  12.369  0.2026 -0.2613 -0.0522
12307W        W27438   1.387  16.168  13.049  0.0258  0.1109  0.0060
12308W        W27439   2.180   7.458  11.107  0.0608  0.0934 -0.0803
12309W        W27440   3.984   9.246  15.179 -0.0871 -0.2902  0.0954
12310W        W27441  15.200   6.775  11.138 -0.2200 -0.1950  0.2749
12311W        W27442   9.002   5.288   3.657  0.3689  0.0530  0.0837
12312W        W27443  11.902  10.375  13.162  0.0566  0.1697  0.2709
12313W        W27444   9.400  17.392   0.521  0.2001  0.1781 -0.1425
12314W        W27445  14.011  16.095   3.257  0.0006  0.0151  0.2732
12315W        W27446  14.867  15.303   5.655 -0.0225  0.2009 -0.0847
12316W        W27447   8.523  15.688   1.077  0.1527 -0.0360 -0.1416
12317W        W27448   0.475   7.759  10.727  0.1388  0.0656  0.1098
12318W        W27449   6.564  11.856  10.284 -0.0679 -0.0804  0.0440
12319W        W27450  18.036  12.066   0.092  0.0979  0.1645  0.3158
12320W        W27451  11.442   1.489   3.268  0.0531 -0.1645 -0.1110
12321W        W27452  11.262   6.652   0.540  0.1411  0.2229 -0.1823
12322W        W27453  18.128  15.866   4.688 -0.1809 -0.0060 -0.1406
12323W        W27454  10.810   6.096   4.502 -0.2388  0.4492  0.0962
12324W        W27455   3.309  11.618   1.156 -0.0440 -0.2419 -0.0448
12325W        W27456   7.473   5.697  13.760 -0.1970 -0.2439  0.1082
12326W        W27457   3.939   6.452  13.169 -0.1307  0.0648  0.2495
12327W        W27458   4.092  15.801  12.397  0.3124  0.0447  0.0136
12328W        W27459  16.870   3.090   2.181  0.1198  0.0705  0.0128
12329W        W27460  15.035  13.247   3.594 -0.1874  0.2243 -0.2208
12330W        W27461  12.990  11.540   1.370 -0.1407  0.0639  0.2750
12331W        W27462   4.995   0.034   2.635  0.2135 -0.0274 -0.0477
12332W        W27463   3.922   2.113  12.277  0.1939  0.1245 -0.3615
12333W        W27464  17.471  14.183   5.285  0.0494  0.0674 -0.0181
12334W        W27465   9.388   9.877   4.067 -0.1894 -0.1597  0.0762
12335W        W27466  12.036  15.866   3.385  0.2939  0.0277  0.0908
12336W        W27467   5.225  17.566   2.281  0.2107 -0.3237 -0.0384
12337W        W27468  13.234  16.908   2.544  0.0606 -0.0719  0.1158
12338W        W27469  10.170   6.612   0.260 -0.1890  0.0499  0.0156
12339W        W27470  11.922   1.514  13.575 -0.0177  0.3110 -0.0090
12340W        W27471   2.069  12.469   9.950 -0.1106 -0.4070  0.3284
12341W        W27472  17.674   2.572   4.550  0.3192 -0.0224  0.2314
12342W        W27473  11.973   9.371  10.241  0.0529 -0.1278 -0.0846
12343W        W27474  16.339  12.047   3.418 -0.0861  0.0223  0.0344
12344W        W27475  18.105  16.772  13.972  0.1656 -0.0459  0.0315
12345W        W27476  14.361  11.885   1.859 -0.0268 -0.1470  0.1105
12346W        W27477  16.493   6.041  15.470 -0.0175 -0.0326  0.1106
12347W        W27478   0.424   2.757   3.764 -0.1564 -0.0435  0.0732
12348W        W27479   0.143   2.558   5.267  0.0477 -0.4356 -0.1518
12349W        W27480   6.677   5.098  13.848  0.1251 -0.1389  0.0558
12350W        W27481  13.397   5.593   3.557 -0.1338  0.3789  0.2216
12351W        W27482  13.219   1.788  13.759  0.0266  0.2245  0.2217
12352W        W27483   7.781   1.222  12.960 -0.1344 -0.1439 -0.3432
12353W        W27484   1.900   9.629   1.483 -0.0733  0.2903 -0.0217
12354W        W27485  16.287   7.266   2.685  0.2225 -0.4699 -0.3287
12355W        W27486   7.338   8.827   4.497  0.0945 -0.1600 -0.4822
12356W        W27487  14.353   9.657   2.954  0.1483 -0.0218  0.5062
12357W        W27488  17.028   4.977   3.193 -0.0149  0.3052 -0.2016
12358W        W27489  12.028   2.281  12.443  0.0221 -0.0228 -0.0765
12359W        W27490   9.317   6.158   2.667  0.0846  0.0863  0.3174
12360W        W27491  12.060   4.739   4.298  0.0851  0.1788 -0.0968
12361W        W27492   1.800  12.551   6.120 -0.0165 -0.2146 -0.0214
12362W        W27493   4.333  11.391  12.343 -0.0954  0.1921  0.2088
12363W        W27494  11.086   8.789   2.680  0.4486 -0.0694  0.1076
12364W        W27495   4.177  16.533   3.171 -0.1776  0.3672 -0.0733
12365W        W27496  16.685   4.740  11.691  0.0210 -0.1102 -0.2466
12366W        W27497   2.199   9.373   3.487 -0.0733 -0.0831  0.2218
12367W        W27498   2.228  15.086  15.627 -0.2077 -0.0800 -0.0266
12368W        W27499   1.276   0.845   2.514  0.0177  0.0324 -0.1444
12369W        W27500  17.868   4.290   0.204 -0.0923  0.1550 -0.1778
12370W        W27501  10.431  17.058  13.723 -0.0534 -0.2804  0.0080
12371W        W27502  12.325  13.057  10.906  0.1692  0.0701 -0.3296
12372W        W27503   0.553  12.187  12.642 -0.1090 -0.0479 -0.2184
12373W        W27504  12.600  10.683  14.859  0.3428 -0.1803  0.2299
12374W        W27505   7.440  11.496  10.625 -0.0088 -0.3003 -0.4816
12375W        W27506   9.604  15.196   3.643 -0.1504 -0.1027 -0.0259
12376W        W27507   7.760   0.720  15.629  0.1251 -0.0786  0.0785
12377W        W27508  14.871  12.421   1.225 -0.0711  0.1185  0.2047
12378W        W27509  13.931   9.736  11.721 -0.0104  0.2669 -0.3165
12379W        W27510  14.543   3.715   4.688  0.0623 -0.1021  0.1943
12380W        W27511   9.058   2.272   0.860  0.1289 -0.1628  0.1044
12381W        W27512  13.327   4.145   3.197  0.0159 -0.0823 -0.1140
12382W        W27513  12.718  14.402   3.134 -0.4689 -0.2688  0.2560
12383W        W27514  11.880   5.399  12.890  0.2474 -0.0642 -0.0265
12384W        W27515  16.976   2.614   3.707 -0.0712  0.0473  0.1772
12385W        W27516  10.373  12.908  10.661  0.0248  0.3194  0.1705
12386W        W27517   6.740  15.959  11.472  0.0929  0.2555  0.1471
12387W        W27518  17.638  11.776  13.048 -0.0349  0.2408  0.1714
12388W        W27519   6.938  13.284  15.826 -0.0369  0.2233 -0.0751
12389W        W27520   4.745  15.011  10.771 -0.2131  0.3340  0.1815
12390W        W27521  15.611  16.625  14.199  0.0199  0.0082  0.1888
12391W        W27522  15.046  18.294   6.015  0.1081 -0.0623 -0.1526
12392W        W27523  11.803  15.147  13.600  0.1107  0.0791  0.1413
12393W        W27524  15.121   7.518  13.061  0.2395  0.0288  0.0974
12394W        W27525  14.365   1.632   3.763 -0.1776  0.1233  0.0911
12395W        W27526   1.967   3.275  10.678  0.1526  0.2307 -0.4528
12396W        W27527   0.711   0.348   4.991 -0.0626  0.1162  0.0675
12397W        W27528  15.460  16.132  13.429  0.1569  0.1467  0.1529
12398W        W27529   4.029   1.754   2.248  0.0267  0.1579 -0.2054
12399W        W27530  16.211   1.200   0.248  0.1139  0.0662  0.1639
12400W        W27531   4.948  15.632  14.041 -0.1603  0.1776 -0.0619
12401W        W27532   5.280   4.255  14.310  0.2310  0.0958  0.1004
12402W        W27533  14.739  11.634  15.673 -0.1011 -0.5284 -0.4447
12403W        W27534   3.154   3.422  13.455 -0.0434 -0.1601  0.1934
12404W        W27535  11.537   3.214   4.205  0.3069 -0.1695  0.0003
12405W        W27536  14.221   7.899  13.541 -0.0219 -0.0515  0.2728
12406W        W27537   0.090   4.735   4.793  0.1763  0.1390  0.1883
12407W        W27538  12.535  10.527   4.788 -0.0194 -0.0659  0.0670
12408W        W27539  16.421   4.611   3.655  0.2296 -0.1236  0.1528
12409W        W27540  18.410  17.777  10.395  0.3582  0.0184  0.0967
12410W        W27541   7.534   6.880   4.680  0.2307  0.1406 -0.0181
12411W        W27542   8.580   5.067  14.686 -0.1230  0.3929  0.1209
12412W        W27543  10.144  17.916  13.593  0.1343 -0.0628  0.2529
12413W        W27544  13.450  15.014  15.815  0.1053  0.1902  0.0231
12414W        W27545  17.413  14.848  13.493 -0.2003  0.0928 -0.1620
12415W        W27546  15.547  12.458   4.811  0.1247  0.2102  0.1580
12416W        W27547   2.625  13.904  15.249  0.1544 -0.0192 -0.1839
12417W        W27548   6.723   8.172  15.868 -0.1370 -0.0234  0.2302
12418W        W27549   2.280   7.860  15.433  0.3182 -0.4164  0.0456
12419W        W27550  12.991   1.722  12.016  0.3166  0.2306  0.0503
12420W        W27551   1.737   7.726   5.945  0.3452 -0.1197 -0.0458
12421W        W27552  17.054  10.283   4.297  0.0683 -0.1171  0.0885
12422W        W27553   9.887   8.320   3.755  0.2861 -0.1142 -0.1192
12423W        W27554  11.507   9.901  11.104 -0.0493 -0.0527  0.0445
12424W        W27555   1.611   2.304  11.359 -0.1333 -0.1471  0.1177
12425W        W27556  11.111   4.400   3.672  0.2502  0.2840  0.0601
12426W        W27557  17.311   3.906   1.207 -0.3480 -0.2124  0.0456
12427W        W27558   9.144   2.743   0.766 -0.2875 -0.1958  0.1384
12428W        W27559   2.431   0.246  13.321 -0.0973 -0.1742  0.0335
12429W        W27560   7.638   3.091   9.737 -0.0996  0.0887  0.2805
12430W        W27561   8.761  13.605   2.581  0.0574 -0.0761 -0.1967
12431W        W27562  13.136   0.964  13.426  0.0506  0.1574 -0.3202
12432W        W27563  15.714  11.066  11.433  0.0930 -0.2778 -0.0612
12433W        W27564  17.178  18.081  11.497  0.0612 -0.0529 -0.5339
12434W        W27565  13.266  10.986  14.947 -0.0428  0.5270  0.1444
12435W        W27566   2.077   0.335   4.607 -0.1194  0.3688 -0.0306
12436W        W27567   6.260  15.612  13.841  0.2599 -0.1310 -0.0640
12437W        W27568  15.960   3.316   4.031  0.0184 -0.0430  0.2366
12438W        W27569   4.418  17.920   1.677  0.1801 -0.3142  0.1415
12439W        W27570   4.950  15.176   2.223  0.5166  0.2672  0.1980
12440W        W27571   7.465  10.641   1.851  0.1600 -0.1652 -0.1991
12441W        W27572   3.619  11.231  11.855 -0.1971 -0.3272  0.3543
12442W        W27573  15.445  16.674   1.803  0.0127  0.0810  0.0884
12443W        W27574  18.461  10.828   0.312 -0.1160 -0.0908 -0.3576
12444W        W27575  12.181  11.733   1.645  0.2265  0.0550  0.2291
12445W        W27576  14.949   4.217  14.756  0.2793 -0.1393 -0.0090
12446W        W27577  14.592   6.225   1.736 -0.0318 -0.1211  0.0376
12447W        W27578   2.574  13.208  12.658 -0.0705 -0.3700  0.0472
12448W        W27579  13.460  11.011  10.703 -0.0562  0.1872 -0.0710
12449W        W27580  11.447   6.112  12.928  0.2634  0.2805 -0.3857
12450W        W27581  14.631  18.477   1.262  0.0816 -0.1155 -0.1038
12451W        W27582   1.361   8.939  12.855 -0.0991  0.1031  0.3247
12452W        W27583   3.528  11.515   0.718  0.0014  0.0511 -0.0980
12453W        W27584  17.453   5.138  15.792 -0.1698  0.1002 -0.0795
12454W        W27585   3.962  14.718   1.695  0.1516 -0.0099 -0.3971
12455W        W27586   0.597   6.036   2.229  0.1074 -0.0464 -0.0382
12456W        W27587   8.397  10.077   1.563  0.2597 -0.2090 -0.1300
12457W        W27588  16.886  13.146  14.330  0.0920  0.1014  0.0828
12458W        W27589  12.367  15.233  12.192  0.0417  0.0454 -0.0660
12459W        W27590  10.495  16.151  11.595  0.1605  0.1724  0.0996
12460W        W27591  11.282   2.176  15.552 -0.2900  0.0536 -0.0522
12461W        W27592   2.324   9.473  12.350 -0.0012 -0.0073  0.0755
12462W        W27593  15.271   1.781   1.214  0.1897 -0.3509  0.1453
12463W        W27594   4.697   0.039  14.539 -0.2365 -0.1333 -0.0430
12464W        W27595   2.640   7.254  15.104 -0.1019  0.1650  0.0277
12465W        W27596  17.795  13.403  11.219  0.0336  0.2565 -0.0533
12466W        W27597   7.920   7.701   2.368  0.0637  0.1065  0.1659
12467W        W27598  12.041   2.922  14.973 -0.2183 -0.0453 -0.1823
12468W        W27599  16.675  10.029   0.508 -0.0019 -0.0693  0.0335
12469W        W27600  16.222  13.731  15.390  0.1192  0.1264  0.0077
12470W        W27601   5.677  15.516  11.133  0.1134  0.1848 -0.0438
12471W        W27602   2.100   1.238  12.873  0.0424 -0.0062 -0.2250
12472W        W27603  13.461   8.719   3.095  0.1942  0.1700  0.0611
12473W        W27604   2.056   5.880   2.568 -0.0649 -0.0438  0.2329
12474W        W27605  14.639   6.787   3.116 -0.1176  0.0276 -0.1367
12475W        W27606  11.338   8.000   3.207  0.0442 -0.0986  0.2260
12476W        W27607   6.718  17.302   0.384 -0.1847 -0.1992 -0.0363
12477W        W27608   2.966  13.748   0.881  0.1210  0.0585  0.0438
12478W        W27609   5.252  18.309  11.541 -0.2248  0.1588  0.0479
12479W        W27610   6.859   1.004   2.568 -0.1952  0.1596 -0.0048
12480W        W27611   4.916  16.135  11.623  0.1969 -0.1894  0.0035
12481W        W27612   0.618  12.585  12.300 -0.2071 -0.0521  0.2177
12482W        W27613  10.500  13.544  14.571  0.3729 -0.0454  0.2293
12483W        W27614  16.522   1.545  15.751 -0.1100 -0.1710  0.2765
12484W        W27615  11.859  12.704   2.516  0.3655  0.3205 -0.4465
12485W        W27616   6.953   3.361   1.221  0.1526  0.0113 -0.0121
12486W        W27617  14.095   7.810  10.384  0.0548 -0.0099  0.0837
12487W        W27618   3.914   0.113   0.955 -0.0882  0.1328 -0.0173
12488W        W27619  16.808  17.057  11.874  0.1553  0.0418 -0.0630
12489W        W27620  11.173   7.230   0.366 -0.1683  0.0351 -0.1276
12490W        W27621  13.245   0.384  12.073 -0.0801 -0.0199 -0.2474
12491W        W27622  10.314   2.593   1.850  0.0366  0.0003 -0.3892
12492W        W27623  13.096  13.280   4.265 -0.1598  0.1188  0.2370
12493W        W27624  15.486  16.011   0.486 -0.0684 -0.0013  0.1302
12494W        W27625   9.909   6.000   1.746 -0.0510  0.0661 -0.0547
12495W        W27626  12.800  11.482   0.348 -0.0935  0.1243  0.2354
12496W        W27627  16.351  13.287  12.641 -0.0615 -0.0693  0.0294
12497W        W27628  12.962   9.264   1.585  0.1394  0.0246 -0.0740
12498W        W27629  13.741   7.490   5.283 -0.0332  0.3697  0.3521
12499W        W27630   8.347  10.922  14.014  0.2602 -0.2293 -0.2176
12500W        W27631   1.516  10.995  14.376  0.0283 -0.2916  0.2506
12501W        W27632   8.458   1.945   3.079  0.0496  0.0958  0.2380
12502W        W27633   9.145  12.277  11.591  0.0795  0.2253 -0.0089
12503W        W27634  16.213   1.977   3.448 -0.1740 -0.0173 -0.2102
12504W        W27635  15.336   5.266   0.294 -0.0910 -0.0671  0.2628
12505W        W27636   2.761  14.129  11.461 -0.1919 -0.2244  0.0253
12506W        W27637  18.226  18.104   3.921  0.1653 -0.1943  0.2238
12507W        W27638   9.347  14.790   3.971 -0.1900  0.1276 -0.2321
12508W        W27639   5.184   4.505  11.217  0.0331 -0.1463  0.2063
12509W        W27640  14.778   3.563   5.680  0.0288 -0.0260 -0.2388
12510W        W27641  12.501  18.247   0.436  0.4918 -0.2932 -0.1769
12511W        W27642  13.147  15.355   1.102 -0.3264 -0.0006  0.1096
12512W        W27643  10.527   4.751   1.576 -0.2098 -0.0744 -0.2520
12513W        W27644   7.439   5.295   4.550  0.0029  0.1477  0.0345
12514W        W27645  17.284  15.820  14.165  0.1255 -0.2517  0.1716
12515W        W27646   8.477  17.544   0.305 -0.0046 -0.2100 -0.0754
12516W        W27647  17.397  12.889   4.902  0.3733  0.0563 -0.4613
12517W        W27648  13.880   0.468   3.008  0.2617  0.0921 -0.2953
12518W        W27649   1.757   4.056   2.639  0.1531  0.0523 -0.0338
12519W        W27650  11.764   3.302  15.738  0.0681  0.2332  0.3661
12520W        W27651   2.273   3.848  11.394  0.1573  0.0909  0.2061
12521W        W27652   0.109  11.947   3.662 -0.0183  0.1696  0.3610
12522W        W27653   2.192  12.925  12.880  0.2516  0.1336  0.0729
12523W        W27654   4.859  14.624  13.268  0.3032  0.0280 -0.1284
12524W        W27655   3.552   8.442   0.835 -0.2993 -0.0409  0.3134
12525W        W27656   2.878   2.888   2.329 -0.0562  0.1427  0.2967
12526W        W27657   4.788   4.285   2.832 -0.1600 -0.0412 -0.4375
12527W        W27658  16.784   2.426  12.779  0.1418  0.2732 -0.2097
12528W        W27659   8.245  12.078  13.878  0.1886 -0.1251 -0.1047
12529W        W27660   7.586   1.160   2.865  0.2665 -0.1425  0.2080
12530W        W27661  15.352  12.235   0.719  0.0154 -0.1394  0.0087
12531W        W27662  11.067  14.042  13.822 -0.3031  0.1673 -0.0718
12532W        W27663   4.449  14.237   2.359  0.1152  0.1701 -0.0454
12533W        W27664  13.536   9.932   2.157 -0.3934  0.1543 -0.0404
12534W        W27665  17.725   7.195   4.970  0.2640 -0.1009 -0.0742
12535W        W27666  10.750  18.416   4.809  0.0103  0.1146 -0.0035
12536W        W27667   1.763   8.753   3.732 -0.1681 -0.2730 -0.0209
12537W        W27668  17.734   8.958  12.644  0.0566  0.0912  0.0429
12538W        W27669   6.666   5.112   3.838 -0.0268 -0.0950 -0.2421
12539W        W27670   2.296   5.680  11.735  0.1017 -0.0973 -0.0087
12540W        W27671  17.529   9.859   1.293 -0.1534 -0.0165 -0.1384
12541W        W27672   8.019  16.033   1.862  0.1756 -0.2067 -0.5308
12542W        W27673   8.023   6.788  12.888 -0.0654 -0.2753  0.0471
12543W        W27674  16.024   5.734   3.741 -0.0668  0.0159 -0.2599
12544W        W27675   7.255  16.097   3.607 -0.1946  0.2712 -0.5009
12545W        W27676   2.970  13.723  14.011  0.1028  0.0014  0.3538
12546W        W27677   1.617  17.499   0.986 -0.0086 -0.2194  0.2012
12547W        W27678   7.271   8.170  13.716 -0.0527 -0.0160  0.2106
12548W        W27679  16.485   9.352   2.941  0.1346  0.0104 -0.1287
12549W        W27680  14.605  11.802   2.334 -0.0058 -0.0009  0.0836
12550W        W27681   5.191  10.938   3.204  0.1630  0.2351 -0.1126
12551W        W27682  14.712   1.842  10.909 -0.0449 -0.3279 -0.0254
12552W        W27683  17.252   7.669  12.437  0.0479  0.0343 -0.0578
12553W        W27684   4.874   4.157  13.240 -0.3507  0.1483 -0.0032
12554W        W27685   3.388   2.721  15.708 -0.0763 -0.1744 -0.1395
12555W        W27686  12.064  17.888   3.409 -0.0354  0.0682 -0.1549
12556W        W27687  11.946   1.275  12.578  0.0796 -0.0154 -0.0425
12557W        W27688   2.354  14.115   0.312  0.2414  0.2414 -0.2137
12558W        W27689   9.302  11.414  11.119 -0.1476 -0.1663 -0.0489
12559W        W27690   8.854   3.934   0.715  0.0820 -0.0078 -0.0290
12560W        W27691   5.837  14.875   2.581 -0.0763  0.0744  0.1472
12561W        W27692   1.626  10.068  15.853  0.0961 -0.1623  0.1163
12562W        W27693  13.931  12.262  15.824 -0.0560  0.2542  0.3619
12563W        W27694  15.433   7.941   5.524  0.0139 -0.1472 -0.1855
12564W        W27695   9.340  12.988   1.322 -0.1910 -0.0415  0.2345
12565W        W27696   6.223   9.657   1.195  0.0301 -0.2674  0.1096
12566W        W27697   0.781  14.650  14.592  0.1572 -0.0946  0.2880
12567W        W27698   7.630  10.457   2.671  0.2502  0.0662  0.0699
12568W        W27699  18.281   9.426  12.031  0.1167  0.1185 -0.1864
12569W        W27700   7.373   9.927  15.426  0.4995  0.1802  0.3563
12570W        W27701   7.466   1.495   4.566  0.0412 -0.4613  0.1158
12571W        W27702  11.193   0.295  15.413 -0.0788  0.4738  0.1578
12572W        W27703   2.333   1.792  11.331 -0.1591  0.2036 -0.0877
12573W        W27704   6.579   3.424   5.580 -0.4810 -0.2422 -0.2302
12574W        W27705   1.729   5.013   2.792 -0.1721 -0.2120 -0.0477
12575W        W27706  12.180   6.856  10.071  0.1509  0.0066 -0.2941
12576W        W27707   8.005   3.537  10.988  0.4284 -0.0831  0.0970
12577W        W27708   9.649   9.320   0.076  0.1161 -0.0696 -0.0344
12578W        W27709  17.204  11.907   1.964 -0.1782  0.3266 -0.1863
12579W        W27710  18.284  15.553   3.869  0.2231 -0.1233 -0.3341
12580W        W27711   8.804   3.657   1.158  0.5978 -0.2457  0.0174
12581W        W27712  16.758   5.414   3.076 -0.1598 -0.1104  0.2449
12582W        W27713   2.505  11.397   0.913 -0.1405 -0.0498  0.4659
12583W        W27714  13.020   9.491  13.341 -0.1271 -0.0339 -0.0824
12584W        W27715   8.527   3.198   3.344 -0.2169  0.0812  0.3466
12585W        W27716  16.958   7.961   4.918  0.0519  0.1411  0.3221
12586W        W27717   5.679  16.447   1.114  0.1789  0.0181 -0.0417
12587W        W27718   8.757  15.809   0.193  0.0723  0.6511 -0.0190
12588W        W27719   5.025  11.818  12.505 -0.1161  0.1358  0.1360
12589W        W27720  11.656  12.610  12.444 -0.0181  0.1777  0.1479
12590W        W27721   4.347   5.345   0.637 -0.1022 -0.3324  0.1683
12591W        W27722   0.435  14.627  12.926  0.1348 -0.0381 -0.1392
12592W        W27723   6.063   0.405  12.109  0.0794  0.0036  0.0928
12593W        W27724   9.466   1.929   3.183  0.0352  0.0592  0.3077
12594W        W27725  17.639  17.549  13.960  0.0762 -0.0777  0.0419
12595W        W27726   1.282   2.101   5.577 -0.1401  0.3086  0.0547
12596W        W27727   7.928  10.975  13.592  0.1004  0.2826 -0.1132
12597W        W27728   3.322  11.075   1.831  0.2205  0.0315 -0.0070
12598W        W27729  16.615   6.128   2.695 -0.1531  0.0870  0.2033
12599W        W27730   0.606  17.722  12.857 -0.1122  0.0492  0.2647
12600W        W27731  13.713  18.217  13.018 -0.3112 -0.0767  0.0243
12601W        W27732  17.920   5.060   3.241 -0.0313 -0.0312 -0.2979
12602W        W27733  13.002  14.795   1.843 -0.1358  0.0849 -0.2131
12603W        W27734  16.223  11.052  12.807 -0.2157  0.1802  0.0281
12604W        W27735   8.762  14.762   5.428  0.4900 -0.5625 -0.1121
12605W        W27736  13.675   1.702  12.626 -0.1155  0.0229 -0.0260
12606W        W27737   4.020  15.966  11.440 -0.0443 -0.0798 -0.3114
12607W        W27738   7.506   3.313   5.697  0.0306  0.1988 -0.0661
12608W        W27739  11.242  15.006   4.645  0.0321 -0.1329 -0.0401
12609W        W27740  12.139  14.193   0.299  0.1438  0.0205  0.0633
12610W        W27741  11.755  15.662  11.020  0.3223  0.0850 -0.0395
12611W        W27742   1.940  10.767   2.107 -0.2996 -0.2405 -0.2009
12612W        W27743   1.551   7.465  14.928  0.1458 -0.1328  0.4468
12613W        W27744  14.225   9.113   2.253 -0.1730 -0.0289 -0.0690
12614W        W27745   2.836  11.420  14.548 -0.2251  0.0852 -0.0719
12615W        W27746   9.920  16.794   1.791 -0.0890 -0.2646 -0.1005
12616W        W27747   4.772  11.186   3.150  0.0397  0.1761 -0.3028
12617W        W27748  10.774  14.488  13.898  0.1737  0.4664 -0.2512
12618W        W27749   5.007   7.877   1.905  0.1294 -0.3347 -0.0159
12619W        W27750  11.181   5.326   2.607  0.0802  0.2732 -0.0640
12620W        W27751  18.168   2.417   4.556  0.5010  0.0683  0.0095
12621W        W27752   2.604   9.583   1.034  0.0576 -0.1801  0.2075
12622W        W27753  11.464  13.481  10.810  0.2365  0.0811 -0.2894
12623W        W27754   9.439  10.766   0.943  0.1014 -0.0207  0.0468
12624W        W27755   0.822   4.674   5.310  0.0646  0.0644 -0.0390
12625W        W27756   9.694   7.939  11.967 -0.0364  0.1212  0.0334
12626W        W27757   1.274   0.636  15.651 -0.0997  0.0742 -0.0510
12627W        W27758   3.756  17.987   3.432 -0.2804 -0.1517 -0.2587
12628W        W27759   1.407  10.467   2.447  0.1267  0.2430  0.0125
12629W        W27760  10.607   5.552   0.515 -0.3475  0.1136  0.2997
12630W        W27761  17.469  17.931   2.561  0.0079 -0.0987  0.0415
12631W        W27762  11.470  12.174  11.123  0.0488 -0.2163 -0.0126
12632W        W27763  16.237  13.873   2.142 -0.1044  0.0570 -0.1818
12633W        W27764   0.869   5.137  11.246 -0.1297  0.4618  0.1412
12634W        W27765  12.671   8.197  13.296 -0.1242  0.2249 -0.1717
12635W        W27766   5.136  12.295   6.051 -0.1241 -0.0330 -0.1282
12636W        W27767   9.521  10.078   4.782  0.0151 -0.0528 -0.2632
12637W        W27768  13.697   7.008  11.571 -0.0763  0.2122 -0.1918
12638W        W27769  16.071  11.704   2.255  0.3333  0.1543  0.1142
12639W        W27770  15.152  17.959  11.507  0.1396  0.0680 -0.0507
12640W        W27771  11.053   2.578   3.892 -0.2263  0.2601  0.2055
12641W        W27772  10.181   2.361   4.499 -0.0666 -0.1001 -0.1948
12642W        W27773  18.511   5.412   1.085 -0.2172  0.3374  0.0634
12643W        W27774  13.227   3.905  13.912  0.0986  0.0903 -0.1637
12644W        W27775   5.445   2.737   4.553  0.2218  0.2421  0.0567
12645W        W27776  12.606   0.349  11.619  0.0372  0.1565  0.2973
12646W        W27777  14.904   3.393   4.825  0.1367  0.0455 -0.1819
12647W        W27778   0.379   0.588   1.510 -0.0498 -0.4106 -0.2517
12648W        W27779   4.330   0.091   2.309  0.6166 -0.4051 -0.0011
12649W        W27780  12.201   1.602   1.843 -0.0773 -0.1774  0.2569
12650W        W27781  13.145   9.003   0.321  0.0999  0.0281  0.1381
12651W        W27782  11.663   4.163  14.430 -0.1075  0.2089 -0.1969
12652W        W27783   3.001   4.495   2.778 -0.1766 -0.2400 -0.2272
12653W        W27784  12.267  18.407   3.321 -0.1867 -0.2917  0.3052
12654W        W27785  11.784  13.136  12.135  0.1064 -0.2626  0.0914
12655W        W27786   4.593  16.536   5.955  0.0767  0.0754 -0.1770
12656W        W27787   7.620  16.693  14.538 -0.0356  0.0941  0.0604
12657W        W27788   6.882  16.949   2.653 -0.0780  0.2980  0.2368
12658W        W27789   1.553   4.435  12.841 -0.3045 -0.0278  0.0702
12659W        W27790   2.771   8.166   5.275 -0.0824 -0.0264  0.0739
12660W        W27791   8.534  15.533  10.871  0.2486 -0.1101  0.0461
12661W        W27792  15.799  13.402   0.322  0.1023 -0.0297 -0.1873
12662W        W27793  11.751   3.738   2.547 -0.1670 -0.1639  0.0075
12663W        W27794  14.197  12.377   2.935 -0.0118 -0.0919 -0.0503
12664W        W27795   6.823  11.820  14.589 -0.0118 -0.0670  0.0123
12665W        W27796   9.050   2.314  12.682 -0.0925 -0.3141  0.0600
12666W        W27797   7.746  15.202  11.072  0.3691 -0.0230 -0.2222
12667W        W27798   7.445  15.575  10.803  0.1696 -0.1191  0.1039
12668W        W27799  13.777   5.619   1.767 -0.0164  0.0794 -0.0424
12669W        W27800  11.183   7.189  11.920  0.5620 -0.1374  0.3353
12670W        W27801   5.528   6.800   1.511  0.0316 -0.0600  0.1027
12671W        W27802   8.831  15.407  15.347 -0.0776 -0.4138  0.1944
12672W        W27803  13.407   6.187   5.857 -0.1673 -0.1336 -0.1492
12673W        W27804   7.753  11.249   9.951 -0.0643  0.3476  0.3482
12674W        W27805  14.581   3.586  13.698 -0.3098 -0.0327  0.1805
12675W        W27806  12.241  17.434   5.853  0.1890 -0.0352  0.1066
12676W        W27807   4.127   5.170   2.647  0.1287  0.0356 -0.0450
12677W        W27808   5.816  13.851  11.220 -0.0969 -0.0962  0.0119
12678W        W27809   7.728  18.195   0.517  0.0156  0.0997 -0.0708
12679W        W27810   9.243  15.670  15.626  0.2332 -0.0751 -0.0195
12680W        W27811   7.735   7.890   3.151 -0.0995 -0.0070 -0.0014
12681W        W27812  17.638  17.119  12.577  0.0313 -0.1499 -0.4625
12682W        W27813   7.225   0.472  13.930  0.1268 -0.1819  0.0008
12683W        W27814   3.567   3.544   4.489 -0.1573  0.0114  0.1168
12684W        W27815   8.609  12.209   3.383  0.1700 -0.0037 -0.0880
12685W        W27816   0.521   5.382  15.518 -0.1036  0.3274 -0.0736
12686W        W27817  14.079  14.944   2.138 -0.1381 -0.1301 -0.4424
12687W        W27818  10.132  18.193   1.342  0.1288  0.0237 -0.1469
12688W        W27819  17.371  15.062  12.643 -0.1453  0.0085 -0.2392
12689W        W27820   7.402   6.095  15.276 -0.1574 -0.1382 -0.0317
12690W        W27821  12.259  10.201  14.989  0.3600  0.0851  0.0995
12691W        W27822   2.914   9.380   1.386  0.2056 -0.0317 -0.3041
12692W        W27823  18.004   6.919  15.451  0.1627  0.2387  0.0051
12693W        W27824  16.470   1.243   2.302  0.2512 -0.1783  0.0776
12694W        W27825  16.505  14.175   3.631 -0.1923  0.0183  0.0451
12695W        W27826   4.402   2.586  14.148  0.0791  0.1124  0.1406
12696W        W27827   5.774   6.658  14.952 -0.0493 -0.1093 -0.2273
12697W        W27828   4.331   7.510   1.024 -0.1877 -0.0258  0.0040
12698W        W27829  14.861  13.768  11.989  0.0190  0.0082 -0.1478
12699W        W27830  14.669  11.342  11.637  0.1020 -0.1392 -0.0490
12700W        W27831   0.480  10.149  14.245  0.0054 -0.1506  0.1773
12701W        W27832  13.377   9.049  10.827  0.4518  0.2253 -0.0632
12702W        W27833  15.184   1.303   4.302 -0.1633  0.1586  0.2726
12703W        W27834   8.515   9.007   3.525  0.2411  0.1823 -0.0116
12704W        W27835   1.741  14.421   0.823  0.1154 -0.1463 -0.4198
12705W        W27836   5.318  15.704   3.496 -0.6486 -0.2433  0.0152
12706W        W27837  15.746   9.946   1.594  0.0995 -0.2089 -0.0984
12707W        W27838  12.757  17.672   3.757 -0.1198  0.0631 -0.1470
12708W        W27839  14.787   7.988   2.411 -0.0040  0.0103  0.0460
12709W        W27840  13.366  15.511  15.552  0.3519 -0.1434 -0.2001
12710W        W27841  14.770  13.949   9.959  0.0532  0.1667 -0.0105
12711W        W27842  10.360  17.405   2.560  0.3799 -0.1573  0.3667
12712W        W27843  18.287   4.331  10.192  0.4872  0.0602  0.0082
12713W        W27844   9.166  14.988  14.563  0.1196 -0.0681  0.1149
12714W        W27845   9.232   6.132  12.225 -0.0216  0.2724 -0.3679
12715W        W27846  18.082   5.443   2.382  0.1176  0.0166 -0.0825
12716W        W27847   2.666  15.499   1.587 -0.0792  0.0805  0.1355
12717W        W27848  10.595   3.190  14.906  0.3342  0.3303 -0.2310
12718W        W27849  10.035   0.115   2.236 -0.0736 -0.2438  0.3412
12719W        W27850  15.561  13.044   4.783 -0.2892 -0.5700 -0.3330
12720W        W27851   6.474  16.420  11.377  0.0192  0.1954 -0.0307
12721W        W27852   7.695   9.980  10.591 -0.0474  0.1859  0.0798
12722W        W27853  13.051  17.303  15.588 -0.1041  0.1447 -0.0611
12723W        W27854  12.912  17.803  15.851 -0.1552  0.0835  0.1942
12724W        W27855  10.685  14.234   4.086 -0.1969 -0.0891 -0.2752
12725W        W27856  16.321   4.352   1.947  0.1035 -0.0338  0.1413
12726W        W27857  15.012  16.319   4.479 -0.2653  0.0064  0.0084
12727W        W27858  13.956   5.199  12.966 -0.2186  0.1267 -0.3845
12728W        W27859   1.807  18.187   3.866  0.0852  0.0212  0.2288
12729W        W27860  16.726   8.787  13.599 -0.1561 -0.0839 -0.0430
12730W        W27861   0.774   3.729   2.828  0.2960  0.1413 -0.5031
12731W        W27862  15.440   1.838   0.019 -0.3492 -0.1670  0.1279
12732W        W27863   4.316  11.284   0.338  0.2439  0.0252 -0.1110
12733W        W27864   3.186  10.820  14.776 -0.0481  0.2234  0.0242
12734W        W27865   1.880   6.364   2.607 -0.1307  0.1766 -0.0002
12735W        W27866  15.904  18.388  14.649 -0.1128  0.3601 -0.0483
12736W        W27867   0.093   2.273   4.565 -0.0884  0.2473 -0.1913
12737W        W27868   4.775  17.976   4.232  0.0040  0.0539 -0.1558
12738W        W27869   9.858   5.572   3.623  0.0333  0.1916  0.3054
12739W        W27870  13.882   3.202  11.721 -0.2985 -0.0492 -0.2170
12740W        W27871  11.481   5.395  13.265  0.1915 -0.1667 -0.0814
12741W        W27872  10.458   3.593   5.036 -0.1513  0.0826 -0.3067
12742W        W27873  13.708  11.179   0.288  0.0492 -0.0194  0.0188
12743W        W27874   1.563  10.042   3.831 -0.2217 -0.2803 -0.0465
12744W        W27875  12.705   1.903   4.307 -0.3212 -0.4273 -0.3254
12745W        W27876  13.235  11.988   4.585 -0.1930  0.3402 -0.0168
12746W        W27877  15.210   2.736   3.636  0.0338 -0.0145 -0.3995
12747W        W27878   7.475  17.371   3.790  0.2060  0.0425  0.2218
12748W        W27879   2.617  12.684   4.209  0.1657  0.0772  0.0164
12749W        W27880  18.005  16.209   2.946 -0.1177  0.1973  0.3752
12750W        W27881  15.833   1.245  15.195  0.1188  0.0467 -0.2568
12751W        W27882   3.494  13.430  11.779 -0.3400  0.0214 -0.1430
12752W        W27883   7.733   0.640  13.884  0.0055  0.1517 -0.2382
12753W        W27884  10.812  14.018  11.356 -0.1146 -0.2236  0.1168
12754W        W27885  10.295   4.154  12.831 -0.1363 -0.1101  0.2934
12755W        W27886   6.518  17.889  10.850  0.2741  0.0485  0.0919
12756W        W27887  15.893   8.236  12.769 -0.3155 -0.1174  0.2834
12757W        W27888  18.428  12.333  15.835 -0.0850  0.2274  0.0693
12758W        W27889  14.516   0.054  12.661  0.3201 -0.0736  0.0703
12759W        W27890  17.195  17.090  11.092 -0.1634  0.1832  0.2721
12760W        W27891   7.056  13.647   4.052  0.3505 -0.0960 -0.0085
12761W        W27892   8.671   0.625  15.667  0.2347 -0.0156  0.1059
12762W        W27893   1.605  14.802   1.302 -0.1192  0.2220 -0.0105
12763W        W27894   2.153   0.706   0.534  0.0309  0.1875 -0.1783
12764W        W27895   5.033  14.271   4.946  0.2855 -0.1213 -0.5487
12765W        W27896  18.075   2.057  14.038  0.1259 -0.0857 -0.0849
12766W        W27897   9.980  10.234   2.261 -0.1776 -0.1905  0.2926
12767W        W27898  13.038   1.501  13.312 -0.1176  0.0645 -0.1876
12768W        W27899   7.327   3.905  15.615  0.0214  0.0195  0.0462
12769W        W27900   5.524   5.719   4.519 -0.0595 -0.0326 -0.2271
12770W        W27901   1.993   9.678  10.853  0.0129 -0.1193  0.0278
12771W        W27902   9.229   6.290   3.486 -0.2170  0.2618 -0.2276
12772W        W27903   0.089  17.947  15.774  0.0979  0.0975 -0.1794
12773W        W27904   9.924   7.557   2.955 -0.0568 -0.3188 -0.0656
12774W        W27905  10.671  10.816   5.650 -0.0345 -0.0100  0.1909
12775W        W27906  17.176  11.610  11.729 -0.0913  0.2561 -0.1799
12776W        W27907  12.169   2.085  14.383 -0.0413  0.1879 -0.3795
12777W        W27908  12.361   2.863   2.958  0.0298  0.2503  0.0605
12778W        W27909   0.358   6.502  10.978 -0.0024  0.2365  0.1630
12779W        W27910   9.888  17.675  15.605  0.1923 -0.0758 -0.0421
12780W        W27911   0.628   3.245   2.643 -0.1055 -0.0259 -0.1877
12781W        W27912   9.354   3.973  12.239 -0.1665  0.2646  0.4057
12782W        W27913   7.859  10.530  10.549  0.0893 -0.0579 -0.1373
12783W        W27914   6.734  16.833  15.147 -0.1397 -0.1751 -0.0559
12784W        W27915  17.486  17.546  15.882  0.3847  0.1851 -0.2996
12785W        W27916  16.081  16.200  14.763  0.1281  0.2724  0.0311
12786W        W27917  16.386   7.771  14.912 -0.3024 -0.1676 -0.2428
12787W        W27918   0.625  11.702   1.439  0.0423  0.0155 -0.0525
12788W        W27919   8.305   4.364  11.563 -0.0934 -0.0907  0.2052
12789W        W27920   3.172   1.156   1.816 -0.0396  0.0118 -0.1283
12790W        W27921   5.988   9.502  14.261  0.1909  0.0620  0.1043
12791W        W27922   0.283  12.110  11.396  0.0512  0.2143  0.0026
12792W        W27923   9.208  17.222   1.435  0.0425 -0.0344 -0.0084
12793W        W27924   0.712  15.258   2.938  0.3011  0.0522  0.0815
12794W        W27925  15.340   2.223   0.351 -0.2088 -0.1257  0.3313
12795W        W27926  15.773  14.552  10.536 -0.1929  0.0662  0.1369
12796W        W27927   1.597  14.302   1.312  0.0518 -0.2518  0.1851
12797W        W27928  13.431   6.342   2.278  0.2162  0.1032 -0.0654
12798W        W27929   3.625   9.272   5.270  0.1900  0.0805  0.3875
12799W        W27930  17.594  15.144   2.142  0.0888  0.1858  0.0509
12800W        W27931   0.953   8.786   4.512  0.1207 -0.4027 -0.1920
12801W        W27932   2.404  12.074   1.136  0.3261 -0.0296 -0.0574
12802W        W27933  11.962   8.471  14.549 -0.3581 -0.1820  0.1285
12803W        W27934  13.968  12.946  11.781  0.0362  0.0005 -0.0694
12804W        W27935  16.622  16.641  11.496  0.2073 -0.0030 -0.3017
12805W        W27936   9.397   7.664  13.725  0.4457 -0.2108  0.2138
12806W        W27937   7.697   2.511  12.738 -0.4683  0.1101 -0.0432
12807W        W27938   1.843  10.419   0.972  0.2662 -0.0070 -0.2954
12808W        W27939   1.426  17.070   4.791 -0.1617  0.1063  0.2176
12809W        W27940   9.546   7.278   5.386 -0.0624  0.2094 -0.0654
12810W        W27941  12.712  13.762  10.801  0.0336 -0.2078 -0.2720
12811W        W27942  14.275  16.155   1.550  0.0541  0.0790  0.0942
12812W        W27943   6.202   4.447   3.732  0.1865  0.1392  0.1299
12813W        W27944  16.913   8.872  14.787 -0.1098 -0.0034 -0.0134
12814W        W27945   5.924  18.193   4.843  0.2825  0.2612 -0.0176
12815W        W27946   8.451  13.421   1.329 -0.1387 -0.1022 -0.1037
12816W        W27947   3.329  10.966  13.116  0.2677 -0.0576 -0.0032
12817W        W27948   3.344   1.597   0.840 -0.0641  0.0199 -0.3011
12818W        W27949   8.573   3.402  12.277 -0.1346  0.0641  0.0863
12819W        W27950   2.239  16.494  13.757 -0.0703 -0.1675  0.2018
12820W        W27951   3.890  16.654  14.455 -0.3122 -0.3110  0.0487
12821W        W27952   4.360   2.348  13.467 -0.1520  0.2031  0.4518
12822W        W27953   0.513   7.601  13.734 -0.0304 -0.2092  0.3030
12823W        W27954  11.195  11.248  15.376 -0.1616 -0.2606  0.1769
12824W        W27955   2.633   4.381  15.865  0.0737 -0.1759 -0.3945
12825W        W27956  13.273   9.850   0.639  0.1114 -0.0199 -0.0818
12826W        W27957   5.527   9.973  10.981 -0.0571  0.0594  0.0531
12827W        W27958  13.118   0.044  15.721  0.0847 -0.0080 -0.1485
12828W        W27959   6.323   7.948   1.947 -0.0607  0.1939 -0.2395
12829W        W27960  11.162  18.138   9.892 -0.2137  0.1208 -0.1526
12830W        W27961   0.856  15.277  13.033  0.2621 -0.0294 -0.1796
12831W        W27962  12.691  14.653  11.208 -0.0333  0.2519 -0.0913
12832W        W27963   0.602   9.399  14.148 -0.0381  0.2627 -0.1267
12833W        W27964   7.741   1.252   4.203  0.0197  0.2829 -0.0918
12834W        W27965  15.285  15.256   3.421  0.0479  0.1585 -0.0230
12835W        W27966   0.038  16.211   1.892 -0.0415  0.2952 -0.0951
12836W        W27967  12.074   4.842   3.406  0.1139  0.0505  0.1680
12837W        W27968  12.833   6.801  13.763 -0.0284  0.0339  0.0669
12838W        W27969  17.895  14.276   0.876 -0.3566  0.0740  0.0304
12839W        W27970   4.086   5.441  13.099  0.0151 -0.4246  0.1371
12840W        W27971   0.619  18.343  14.727  0.3104  0.3492 -0.0015
12841W        W27972   1.339  14.184   4.846  0.4071 -0.0601  0.0027
12842W        W27973   4.290  11.199  14.165  0.1577  0.2406  0.1856
12843W        W27974   9.082  10.457  12.518 -0.1036 -0.0332  0.1938
12844W        W27975  17.239   7.155  15.681 -0.0585  0.0841  0.1504
12845W        W27976  15.707   4.204   4.129  0.0881  0.0922  0.0051
12846W        W27977  13.959  18.362   4.039  0.2080  0.0432  0.2708
12847W        W27978  12.215   1.210   2.794 -0.0850  0.0062  0.0753
12848W        W27979  10.176   4.607  12.674  0.0697  0.0466  0.2934
12849W        W27980   0.571  15.295   9.904 -0.1261  0.2261 -0.0573
12850W        W27981   5.136  10.861  11.589 -0.2729 -0.1004 -0.0910
12851W        W27982  14.468   5.128  13.296  0.0595 -0.1769  0.0618
12852W        W27983   8.441  14.637  14.789 -0.0894 -0.2091  0.1788
12853W        W27984  13.436   3.275   1.422  0.0131  0.2582 -0.0375
12854W        W27985  11.120   8.465   1.706  0.0734  0.1346  0.1489
12855W        W27986  11.677   3.453  14.308 -0.2422  0.2144  0.0442
12856W        W27987  14.016   0.703   1.846  0.0115 -0.0591 -0.0578
12857W        W27988   4.630   1.283   2.626 -0.3895  0.2238  0.0584
12858W        W27989  13.423  13.061  15.432  0.0312  0.0030  0.0369
12859W        W27990  14.070   5.810  14.730  0.1209 -0.0478 -0.1444
12860W        W27991   2.927  16.555  14.407  0.3783 -0.0057  0.1753
12861W        W27992  15.003  10.225   4.129 -0.0954  0.1795  0.1597
12862W        W27993   7.388   9.684  11.081  0.1953  0.0144  0.2647
12863W        W27994   9.843   0.503   1.802 -0.0105  0.0304  0.0606
12864W        W27995  18.093   9.611   0.180  0.0204 -0.2428 -0.0110
12865W        W27996   3.627  13.897  10.632 -0.2660  0.0012 -0.0725
12866W        W27997   3.529   3.348  13.870  0.5650  0.2876 -0.2044
12867W        W27998  11.306  10.606  11.780  0.0057  0.0327 -0.1563
12868W        W27999   1.862   3.433  14.984 -0.1795  0.0554 -0.2901
12869W        W28000   5.548  14.587  11.209 -0.3663 -0.0822 -0.1068
12870W        W28001   8.146   5.274  12.569 -0.1115 -0.2045  0.0678
12871W        W28002   0.271   4.915  15.571 -0.0901 -0.0703  0.2636
12872W        W28003   0.655   1.928  10.164  0.0507 -0.2220  0.0169
12873W        W28004  16.697   3.297  15.063  0.0933 -0.0855  0.1287
12874W        W28005  10.346  14.139   0.087 -0.1342 -0.0143  0.0684
12875W        W28006  16.459  10.682  15.553  0.1116 -0.1308 -0.3008
12876W        W28007  15.321  13.356  15.809  0.2484 -0.0729 -0.0083
12877W        W28008   4.154  15.601  11.797  0.1287  0.5205 -0.2896
12878W        W28009   5.489  13.323   4.745  0.1481 -0.2482  0.0837
12879W        W28010  15.238  16.290  10.930 -0.0141  0.0691  0.0781
12880W        W28011  13.012  10.850  10.882 -0.1718 -0.2638  0.1185
12881W        W28012  16.617   8.633   1.211 -0.0508 -0.1315 -0.2055
12882W        W28013   6.311  14.332  13.643  0.0948  0.1965  0.2228
12883W        W28014  16.837  18.136   0.771 -0.2557  0.0719 -0.1407
12884W        W28015  10.119  16.495   0.391 -0.2511  0.1531 -0.0262
12885W        W28016  10.115   9.199  11.238  0.1587 -0.2601  0.1336
12886W        W28017   3.585   5.014  11.708 -0.0871  0.5064  0.2303
12887W        W28018  18.494   0.288  15.309 -0.2972 -0.1868 -0.0709
12888W        W28019   0.897  10.302   0.730  0.0456 -0.3161 -0.0913
12889W        W28020  12.612   7.998   0.974  0.2605 -0.1114  0.0530
12890W        W28021  13.100   7.189  13.862  0.1225 -0.1089  0.1949
12891W        W28022  13.740  16.503   2.941 -0.0035  0.1466  0.3839
12892W        W28023  17.691   5.004   1.363  0.2536  0.4025  0.2317
12893W        W28024   2.108  16.541   3.227  0.1962 -0.1608  0.3423
12894W        W28025   5.420  14.233   5.333 -0.0271 -0.1933  0.3116
12895W        W28026   2.765   9.130  14.738  0.1772 -0.0971 -0.1702
12896W        W28027  17.132  11.714   1.472  0.2669  0.1165 -0.3075
12897W        W28028  12.314   6.355   5.490 -0.2454 -0.1066  0.0320
12898W        W28029   1.930   9.726   4.879  0.2947 -0.1658  0.0236
12899W        W28030  17.026   5.606  12.242 -0.1506 -0.0471  0.0337
12900W        W28031   6.983   6.000  11.266 -0.1429 -0.2841 -0.2453
12901W        W28032  18.352   3.830   1.703  0.1700  0.2989  0.0717
12902W        W28033  13.413   5.412   1.124  0.1391  0.1065 -0.1294
12903W        W28034   1.451   0.208   2.609 -0.0823 -0.1000 -0.0635
12904W        W28035  11.356   0.052   1.279  0.2164  0.0604  0.2149
12905W        W28036  14.691   3.670  11.984  0.0332  0.1918  0.0925
12906W        W28037  11.017  10.344  13.843  0.1118  0.1250  0.1357
12907W        W28038   4.760   8.649   5.466 -0.1498 -0.0528  0.3606
12908W        W28039   8.722   4.579  14.635 -0.0866  0.1427 -0.2550
12909W        W28040   6.860   8.129   3.725  0.3377 -0.1923 -0.0436
12910W        W28041   4.640   7.488  14.524 -0.1830 -0.0547  0.1179
12911W        W28042   3.489  13.254   5.786 -0.0678 -0.1268  0.2300
12912W        W28043  16.956  10.811   5.588  0.2967  0.4037  0.1308
12913W        W28044  16.480   0.146   2.182  0.3573  0.2501  0.2394
12914W        W28045   8.100  13.179   2.914 -0.1957  0.2985  0.0814
12915W        W28046   0.806   3.911  15.487 -0.1855  0.3434  0.3562
12916W        W28047  14.285  13.353   2.897  0.1231  0.1210 -0.1754
12917W        W28048  15.292  14.077  11.742  0.2419  0.1534 -0.0325
12918W        W28049  13.890   4.611  14.793  0.3778 -0.0082 -0.1176
12919W        W28050  15.009  11.778  15.225  0.1776 -0.1015  0.0630
12920W        W28051  17.903  13.087  12.906 -0.0311  0.1815 -0.0137
12921W        W28052   1.286  12.928  13.825  0.1875  0.0137  0.0124
12922W        W28053   2.287   5.202   1.253 -0.2286  0.0925 -0.1152
12923W        W28054  16.745   9.160   2.509  0.1367  0.1809  0.1115
12924W        W28055   2.061  12.462  13.237  0.2237 -0.0582  0.0838
12925W        W28056   6.447   3.960   0.044  0.2101 -0.0651 -0.1657
12926W        W28057  15.904  13.513   4.594 -0.0729  0.1170 -0.0696
12927W        W28058  16.053  10.510  11.968 -0.3197 -0.1407 -0.1480
12928W        W28059   4.304   4.095  14.007 -0.4806  0.0999  0.1321
12929W        W28060  12.625  17.027  13.541 -0.0403 -0.1816 -0.2877
12930W        W28061   9.280  10.317   1.173 -0.0173 -0.0917 -0.1553
12931W        W28062   3.879   7.809   3.675 -0.0926 -0.0936  0.2788
12932W        W28063  16.925   9.956   3.447 -0.1764  0.1973 -0.0286
12933W        W28064  13.899   9.146  13.678 -0.0691 -0.1415 -0.2798
12934W        W28065   9.935   3.775  11.510  0.1934  0.0047 -0.2282
12935W        W28066   3.464  13.572  13.722  0.0609 -0.0718 -0.0848
12936W        W28067  13.851   4.775   0.690 -0.2544 -0.0854 -0.0927
12937W        W28068   4.288   5.509   3.881  0.2560  0.2997 -0.2232
12938W        W28069  15.505  11.479  14.679  0.3897 -0.0585  0.2305
12939W        W28070  17.207   6.434  11.771 -0.2747  0.0174  0.1516
12940W        W28071   8.676  11.645   4.786  0.0783  0.0092  0.3568
12941W        W28072  13.520   4.852   2.260 -0.2362 -0.2299  0.0511
12942W        W28073  14.259  16.260   3.743  0.1131 -0.1370 -0.1225
12943W        W28074   6.885  16.326  11.755  0.3010  0.0872  0.1751
12944W        W28075   9.570  13.550  15.059  0.2975  0.0760 -0.3520
12945W        W28076   8.319  17.718  13.757  0.3597  0.0839 -0.4435
12946W        W28077  17.980   0.034   3.164  0.1078  0.2851 -0.1794
12947W        W28078   7.977   0.329  15.818 -0.3680  0.3972 -0.1417
12948W        W28079   2.104   0.244   1.377 -0.0442 -0.0610  0.1692
12949W        W28080  16.276   0.727  13.589  0.0282  0.0025  0.1597
12950W        W28081  10.301  10.625  11.134  0.0253  0.1028  0.0222
12951W        W28082   8.273   3.570   2.544 -0.0668  0.0902 -0.0224
12952W        W28083  13.484  16.108   2.876  0.1125  0.2023 -0.1908
12953W        W28084   5.194   8.480  12.819 -0.2033  0.0124  0.0804
12954W        W28085   8.630   6.818   0.918  0.0035 -0.2144  0.1957
12955W        W28086  15.923   4.917   5.957  0.3442  0.0786  0.0875
12956W        W28087   7.493   8.570   4.017 -0.2728 -0.0548 -0.0755
12957W        W28088  14.470  11.562  15.040 -0.3660  0.1673 -0.2148
12958W        W28089  14.239  17.453   5.182  0.0596 -0.0816  0.1978
12959W        W28090  10.380  15.179  10.786  0.2245 -0.2752  0.0812
12960W        W28091  17.467  11.002   5.764 -0.1773 -0.0721 -0.2307
12961W        W28092  12.064   6.875  11.041  0.1733 -0.0865  0.1121
12962W        W28093  13.976   3.523   5.896  0.0620 -0.2396 -0.1338
12963W        W28094   4.092   9.576  10.681  0.1499  0.2677  0.2729
12964W        W28095  16.044  17.322  13.256 -0.5189 -0.0639  0.2606
12965W        W28096  13.611   2.478  14.201 -0.1453 -0.1944  0.2426
12966W        W28097   9.471   1.761  11.029 -0.0646 -0.0194  0.1638
12967W        W28098  12.305   7.294  15.135  0.2552 -0.0039  0.0661
12968W        W28099  17.586   0.313  11.856  0.3170  0.1745  0.1200
12969W        W28100  15.173   1.938  11.047  0.1866 -0.0447  0.1088
12970W        W28101   7.930  12.603   1.316 -0.0581  0.2017 -0.0306
12971W        W28102  12.320  13.572   0.818  0.1288  0.0291  0.0917
12972W        W28103   7.137  12.905  11.565  0.2336  0.0062  0.1892
12973W        W28104   9.202   7.411   3.697 -0.0041 -0.1335 -0.0399
12974W        W28105  15.995   6.107   1.346 -0.0231 -0.2364 -0.0751
12975W        W28106   7.257  10.315   3.198 -0.0099 -0.0014  0.0055
12976W        W28107  11.693  13.163   9.797 -0.0492 -0.2347 -0.1235
12977W        W28108   5.160   9.871   0.263 -0.1255  0.1153 -0.0896
12978W        W28109  16.498  16.683  11.980  0.0281  0.0018  0.1790
12979W        W28110   6.231   8.979  12.761 -0.0572 -0.2461  0.0345
12980W        W28111   4.970  12.124  15.257 -0.3932  0.3712  0.3439
12981W        W28112  10.209  16.768  11.175  0.0597  0.3051 -0.2023
12982W        W28113  17.721  13.722  10.195  0.1292 -0.3049 -0.4054
12983W        W28114   4.394  11.926   9.828  0.1528  0.0880  0.3410
12984W        W28115  10.254   3.051  15.779  0.0555 -0.0126 -0.4253
12985W        W28116   3.637   6.598  12.269 -0.0418 -0.0192  0.0563
12986W        W28117  15.984  17.007   4.116 -0.2034 -0.0695  0.0705
12987W        W28118  15.850   4.034  13.808 -0.0482 -0.0962 -0.2132
12988W        W28119   1.691   1.412   0.196 -0.1559  0.1605  0.1851
12989W        W28120  16.881   2.696   0.889  0.0805  0.0185  0.0756
12990W        W28121   0.026   6.874   5.886 -0.1132 -0.2510 -0.1512
12991W        W28122  16.578  10.350   6.478  0.1162  0.0942  0.0060
12992W        W28123  15.949   6.129   0.844 -0.0227 -0.1665 -0.1646
12993W        W28124   7.456   1.800  11.187  0.2881  0.1521  0.2656
12994W        W28125   1.757   2.693   4.824  0.3100 -0.0873  0.0435
12995W        W28126  17.757   0.587   2.436 -0.1374  0.3159 -0.1260
12996W        W28127   3.104   2.401  14.735 -0.1182  0.1034  0.1380
12997W        W28128  13.151   3.233  12.732  0.0507  0.0821 -0.0715
12998W        W28129  14.823  14.677   3.778  0.2123 -0.1058 -0.1559
12999W        W28130   6.102  15.909   0.918  0.0466  0.0204  0.1112
13000W        W28131  14.385   8.245   2.798  0.0510  0.1455  0.3847
13001W        W28132  15.727  15.553   6.054  0.1939  0.2218 -0.0696
13002W        W28133  10.628  16.686  12.452 -0.1085 -0.1164 -0.2750
13003W        W28134   1.708  13.095   5.227 -0.0574  0.0344  0.1448
13004W        W28135   0.233   6.869   2.998  0.1631  0.3227 -0.1327
13005W        W28136   4.774   7.936   3.339 -0.0435  0.0759  0.0722
13006W        W28137   9.401  10.938  11.529 -0.1283 -0.0198 -0.1446
13007W        W28138   0.496   4.738   1.426  0.1483 -0.1516 -0.1357
13008W        W28139   9.947   6.099   4.296  0.0362  0.0141 -0.0150
13009W        W28140  10.884  15.984  11.323 -0.0263  0.1840 -0.0990
13010W        W28141  16.532   2.127   2.810 -0.2086  0.0690  0.0634
13011W        W28142  11.966  11.331   2.997 -0.0134 -0.0004  0.1709
13012W        W28143  12.386   8.535   0.502  0.0370 -0.1458 -0.0391
13013W        W28144  10.078   1.615  14.678 -0.1588 -0.0302  0.0009
13014W        W28145   5.820  12.404   5.388 -0.1604 -0.0497 -0.0316
13015W        W28146  10.221  11.648  11.401 -0.0211  0.0609  0.1104
13016W        W28147  13.007  11.434  11.733 -0.0591  0.0036 -0.4699
13017W        W28148  14.233  16.466   5.653  0.0884 -0.0368  0.0892
13018W        W28149  13.030   8.657  15.140  0.2613 -0.1247 -0.1640
13019W        W28150  13.772  15.194   2.967 -0.1304 -0.0843 -0.2112
13020W        W28151   8.311  13.602  11.890 -0.2332 -0.2329 -0.2089
13021W        W28152   2.511   1.194   1.760 -0.0385  0.0230  0.0645
13022W        W28153   7.136   8.686   0.496  0.1195  0.1521  0.1125
13023W        W28154  18.492  14.903  10.687  0.1313  0.2087  0.1190
13024W        W28155   0.796   5.041   1.751  0.0376  0.2059 -0.0293
13025W        W28156   1.887   4.369  13.648  0.3406 -0.1610  0.0058
13026W        W28157  13.982   6.601   1.024 -0.0186 -0.1407  0.0812
13027W        W28158  18.487   7.532   4.061  0.4853  0.1220  0.0624
13028W        W28159   4.342  10.500  11.010 -0.0212  0.3262  0.0914
13029W        W28160  16.567  11.139   1.775 -0.0007  0.4704  0.2547
13030W        W28161   8.453   2.908  12.471 -0.2555 -0.1354 -0.0231
13031W        W28162   1.949  12.448  11.657  0.3406 -0.1295 -0.3139
13032W        W28163   7.609   0.181   0.943  0.0929 -0.0434 -0.0015
13033W        W28164   6.934   3.246  14.385  0.0436 -0.1558 -0.2178
13034W        W28165  10.850  15.505  10.470  0.1846  0.2044 -0.1528
13035W        W28166   0.900  10.541   2.459  0.1984 -0.1563 -0.0690
13036W        W28167  17.804   8.121   5.883 -0.4077 -0.0393 -0.1146
13037W        W28168  10.654   6.829  14.194  0.1746  0.0182 -0.2451
13038W        W28169   8.752  16.736  15.408  0.0838 -0.2860 -0.0118
13039W        W28170  17.752  12.479   0.964  0.1048  0.1817  0.1625
13040W        W28171   1.387  14.643   1.817  0.1010  0.0117 -0.3147
13041W        W28172   4.132  17.001   2.773 -0.3568  0.0816  0.2536
13042W        W28173  10.325   9.559   1.725  0.3478 -0.2001  0.1648
13043W        W28174  17.398   9.091   3.175 -0.0183 -0.1253  0.2331
13044W        W28175  13.210  16.639   5.130  0.3309 -0.2323 -0.0893
13045W        W28176   6.703   4.075  15.231  0.1751 -0.0169  0.3661
13046W        W28177  11.143  11.589   3.035  0.2943 -0.0066  0.4353
13047W        W28178  10.315   4.877  14.066  0.1309  0.1909  0.0486
13048W        W28179   9.982   4.490  15.686  0.0489 -0.0905 -0.1512
13049W        W28180  11.011  16.442   9.356  0.0403  0.2857 -0.1356
13050W        W28181   9.051   5.266  11.434  0.2464 -0.0061 -0.0970
13051W        W28182   5.613   5.532  14.966 -0.1114 -0.1858 -0.2285
13052W        W28183  18.497   6.512  14.169  0.0824  0.0670  0.1316
13053W        W28184   9.764  10.471   3.662  0.0847 -0.1839  0.0898
13054W        W28185  16.655   9.616   4.735  0.3611 -0.1487 -0.0073
13055W        W28186   9.187  16.338  13.449  0.0892 -0.4201 -0.0872
13056W        W28187  11.626   3.658   2.051 -0.1696  0.1548 -0.1330
13057W        W28188  15.770   7.231  12.611 -0.1404  0.0446 -0.2297
13058W        W28189  15.042   1.215  15.776  0.0073  0.1176 -0.0790
13059W        W28190   9.197   7.554   1.309  0.0761  0.0425  0.2992
13060W        W28191   4.677  16.669  10.682  0.0990 -0.0099  0.0086
13061W        W28192  13.998   7.985  13.044 -0.2675 -0.0726 -0.1570
13062W        W28193   9.585  14.225  15.585 -0.0592 -0.1783  0.1859
13063W        W28194   2.522   1.618   4.074  0.3040 -0.0835  0.0109
13064W        W28195  10.892   8.352   9.679 -0.0900  0.1194 -0.1604
13065W        W28196   8.899   2.498  15.086  0.0823 -0.1302  0.4269
13066W        W28197  11.958  15.530   0.355 -0.5262 -0.1928  0.0236
13067W        W28198  16.785   4.358   1.732  0.2645 -0.0331  0.4735
13068W        W28199  16.312   4.476   3.135  0.0154 -0.2370 -0.2745
13069W        W28200   8.231  15.142  11.230 -0.2445 -0.1918 -0.2322
13070W        W28201  17.180   1.862  15.536 -0.1753 -0.3511 -0.0297
13071W        W28202  14.120   0.749   3.793  0.0119 -0.0896 -0.1404
13072W        W28203   0.938   2.552   2.189  0.0005 -0.0915 -0.1509
13073W        W28204  17.394  16.282   6.018 -0.0743 -0.1143 -0.1143
13074W        W28205   8.829  11.671   4.244  0.1220 -0.0702  0.1191
13075W        W28206   5.838   5.740   5.500 -0.0430 -0.0606  0.6943
13076W        W28207   6.691   6.217   0.550  0.0509 -0.4740  0.3462
13077W        W28208   5.422  17.358   4.571 -0.2310 -0.2199 -0.1147
13078W        W28209   1.097   2.233  15.208 -0.2925  0.2348 -0.1555
13079W        W28210  11.278  16.179   2.880  0.0965 -0.4885  0.1995
13080W        W28211  15.083   8.511   0.085 -0.1081  0.0127  0.3065
13081W        W28212   6.492  13.775  11.894 -0.0059 -0.1256  0.1899
13082W        W28213   5.302  14.538  15.776  0.1388  0.0636  0.0436
13083W        W28214   6.056   3.339  13.487 -0.1697  0.0723 -0.2234
13084W        W28215   9.517  14.684  10.315 -0.0645  0.0858  0.0210
13085W        W28216   9.131  13.646   2.970  0.0572 -0.1430  0.0160
13086W        W28217   5.646   2.683   1.144 -0.1540 -0.2946  0.2132
13087W        W28218   2.556  11.873   5.214 -0.0197 -0.1798 -0.1330
13088W        W28219   6.844   8.356   2.714 -0.0642 -0.1986 -0.0221
13089W        W28220   7.385  10.722   4.450 -0.2393 -0.0369  0.0420
13090W        W28221  14.499   9.677   1.574 -0.0800 -0.2816  0.1444
13091W        W28222   0.979   7.860  13.660  0.2583 -0.0421  0.0605
13092W        W28223   5.467   1.457  15.798  0.1610  0.2899 -0.1896
13093W        W28224  18.011  17.764   3.421 -0.4708  0.4856 -0.3724
13094W        W28225   3.167  18.339  12.612 -0.0451 -0.1129  0.0618
13095W        W28226  15.674  10.253  13.637 -0.1013  0.0439  0.1516
13096W        W28227  11.045  17.246  13.006  0.0747  0.2771 -0.0795
13097W        W28228  12.334   4.045   1.622  0.0050 -0.3603 -0.1318
13098W        W28229  12.867  12.090  12.368 -0.0377  0.1417  0.2956
13099W        W28230  10.851  10.634  13.444 -0.2193 -0.1129 -0.1836
13100W        W28231   8.577  13.427   3.089 -0.2144  0.0955 -0.0534
13101W        W28232   4.842   5.213  15.142  0.0073  0.1104 -0.0392
13102W        W28233   9.308   5.783   0.905  0.0669 -0.1160 -0.2378
13103W        W28234  12.425   8.549  10.889 -0.1920  0.1105 -0.0486
13104W        W28235  15.915  12.582  15.462  0.1908 -0.1933 -0.3788
13105W        W28236  15.483  14.405   5.557 -0.1128 -0.0578 -0.0397
13106W        W28237   6.405   5.484  15.304  0.1795 -0.0148  0.0868
13107W        W28238   1.526  15.687   3.550 -0.0942 -0.2789  0.5405
13108W        W28239   4.243   9.031   3.270 -0.0140  0.1631  0.3463
13109W        W28240  15.687  10.153   0.160 -0.0360 -0.2374 -0.0725
13110W        W28241   9.877  13.830  10.409  0.0051 -0.0790  0.0441
13111W        W28242  13.480   9.629  14.162 -0.1386  0.0668  0.2564
13112W        W28243   9.596   1.653  12.933  0.0873 -0.0349  0.1434
13113W        W28244  12.661  11.480   4.959 -0.2748 -0.2307 -0.0780
13114W        W28245   3.731  13.980   2.782  0.0091 -0.3882  0.0441
13115W        W28246  14.691  13.904  14.850 -0.0721  0.0333  0.0772
13116W        W28247  17.762  15.113   0.231  0.0538  0.0172  0.0573
13117W        W28248   9.886  10.897   2.203  0.0223 -0.1822 -0.2477
13118W        W28249  10.364  15.806   2.622 -0.1210 -0.0989  0.1623
13119W        W28250  10.930  11.868   4.954  0.0157  0.0381  0.0793
13120W        W28251   5.881   3.506   2.296 -0.1708 -0.0516 -0.2153
13121W        W28252  11.778   9.832   1.054 -0.0211  0.3275  0.0566
13122W        W28253  11.507   2.545  13.339  0.4569 -0.1490  0.0141
13123W        W28254   7.733  13.839   0.642  0.1266 -0.1173  0.1728
13124W        W28255   4.381  16.562   1.687 -0.2096  0.0388  0.1658
13125W        W28256   7.279  12.214   6.048  0.3676  0.4318  0.2265
13126W        W28257  13.700   0.282   4.766  0.1429 -0.2654 -0.0287
13127W        W28258   6.281  15.154   2.640  0.1534  0.1711  0.3643
13128W        W28259   7.832  17.278   4.115 -0.2516 -0.3452 -0.2888
13129W        W28260   5.250   2.069  10.814 -0.0910 -0.0392 -0.0065
13130W        W28261  15.067   1.103  14.936 -0.0876 -0.0141  0.1117
13131W        W28262   9.322  10.720  12.046 -0.0592  0.0325  0.1275
13132W        W28263   8.147   2.789   1.750  0.1876  0.3586 -0.1455
13133W        W28264   3.040  16.699  10.665 -0.1808 -0.1463  0.2418
13134W        W28265   0.987  15.797  12.871 -0.0679  0.2250  0.1036
13135W        W28266  12.734   1.404  14.678 -0.0499 -0.3033  0.1078
13136W        W28267   0.400  10.656   0.227  0.2071 -0.2038  0.1892
13137W        W28268  15.429  15.084  15.256  0.1991 -0.1467 -0.0721
13138W        W28269   6.945   5.601   0.993 -0.1718 -0.0349  0.0474
13139W        W28270   3.015  13.288  15.763  0.0251  0.0171 -0.1011
13140W        W28271  15.808   8.167   2.784  0.2460  0.1064 -0.0586
13141W        W28272   0.977   0.683  11.289  0.0692  0.2633  0.0722
13142W        W28273   0.847   5.372   3.123 -0.0835  0.0924  0.0053
13143W        W28274   8.427  11.013   6.086  0.3267 -0.0714  0.0960
13144W        W28275   7.299   0.206  14.973 -0.1398  0.0487  0.1650
13145W        W28276   9.811   1.101   2.760  0.0274  0.2650 -0.0940
13146W        W28277  13.706  11.853  13.890 -0.4154 -0.0097 -0.1178
13147W        W28278  11.760  18.052   4.765  0.0139 -0.3185 -0.1510
13148W        W28279  14.583  14.787   4.965 -0.0482 -0.2414 -0.1371
13149W        W28280  10.649   4.408  14.440  0.2535 -0.1155 -0.1746
13150W        W28281  14.565  15.740   9.892 -0.1240  0.0543 -0.5212
13151W        W28282   6.317  11.173   1.322  0.2568  0.2278 -0.0024
13152W        W28283  10.188  16.949  12.289 -0.0827  0.0031  0.1296
13153W        W28284  18.373  15.482  12.921 -0.4558  0.2252 -0.0914
13154W        W28285   8.163   3.946   3.822  0.3754  0.0139 -0.0920
13155W        W28286  17.001   7.047  10.602  0.0321  0.2163 -0.1945
13156W        W28287   0.214   2.033  15.628  0.0294 -0.0585  0.1507
13157W        W28288  12.753   1.507   0.984 -0.3177  0.0395 -0.1146
13158W        W28289   1.309   9.094   3.685 -0.2881  0.1366 -0.1678
13159W        W28290   7.055  18.508   0.130 -0.2843  0.0721 -0.3537
13160W        W28291   5.927  12.485   1.884  0.2503 -0.0361 -0.2171
13161W        W28292   7.349  16.124  12.606 -0.0925  0.0656  0.1226
13162W        W28293   8.448   3.661  14.317 -0.1288 -0.0294 -0.0831
13163W        W28294   0.241  15.333   3.770 -0.0440  0.2358  0.0298
13164W        W28295   5.746   0.509  14.189 -0.1498 -0.0653  0.2058
13165W        W28296   2.829   5.593  13.594  0.2622  0.2877  0.0120
13166W        W28297  13.884  12.692  11.089  0.1804 -0.0943  0.0979
13167W        W28298   8.888  12.425   0.619  0.1458  0.0774  0.0994
13168W        W28299   0.529   3.646   0.477  0.0747 -0.1852  0.2089
13169W        W28300   2.683  13.506  14.949  0.1419 -0.1202  0.3786
13170W        W28301   5.784   6.331   5.440  0.2813 -0.1175 -0.0844
13171W        W28302   7.839  18.377   3.665 -0.1416 -0.0018 -0.1055
13172W        W28303  17.043   3.450  11.933 -0.2048  0.2192  0.3540
13173W        W28304   2.183   2.063  10.826  0.1052  0.1995 -0.0367
13174W        W28305  12.510   7.397   0.168 -0.2692  0.0813  0.0932
13175W        W28306   0.880  10.272  13.970 -0.0832  0.2931 -0.3223
13176W        W28307  15.858   9.983  15.410 -0.3431 -0.3060 -0.2391
13177W        W28308   7.807   9.783  14.109 -0.5210  0.0259 -0.2016
13178W        W28309  17.350  15.349   0.565 -0.1273  0.0418 -0.4048
13179W        W28310  15.830  10.873   9.769  0.0229  0.0669 -0.0735
13180W        W28311   8.329  16.884   4.002 -0.0725 -0.1192  0.0737
13181W        W28312  15.335  15.502   5.643 -0.3521 -0.1363  0.5116
13182W        W28313  15.838  13.144   3.280 -0.0664  0.1339 -0.3024
13183W        W28314  10.449  16.591   2.115  0.0057 -0.0997  0.3399
13184W        W28315  17.445  17.789  14.943  0.0481 -0.3064  0.0432
13185W        W28316  11.356  13.096  13.609  0.3229  0.6240  0.2519
13186W        W28317   3.868   4.093  15.795 -0.0328 -0.2413  0.1588
13187W        W28318   6.112   7.021   1.595 -0.0095 -0.1096 -0.1233
13188W        W28319  11.120  15.059   2.609 -0.2968  0.2712 -0.3239
13189W        W28320  17.410  11.663  11.251 -0.1324 -0.1926 -0.1187
13190W        W28321   1.534  13.949  10.448  0.0777 -0.0370 -0.2092
13191W        W28322   5.294  17.935  14.496 -0.0808 -0.0921  0.1440
13192W        W28323   9.706   4.064   1.334  0.3521  0.2175  0.1065
13193W        W28324  12.120  12.363  14.595 -0.0777  0.2674 -0.0647
13194W        W28325   6.937  12.269  11.020  0.0859 -0.2034  0.3368
13195W        W28326   3.902  18.290   4.970  0.3126  0.0526 -0.0891
13196W        W28327  16.039   7.104  13.127 -0.2204 -0.3459  0.0209
13197W        W28328   8.256   9.966  11.423 -0.3319 -0.1650  0.4302
13198W        W28329   5.068  10.223  12.265 -0.0446  0.0439  0.0788
13199W        W28330  12.926   4.529   5.324 -0.2728 -0.1418 -0.2605
13200W        W28331  15.217  14.006   4.802  0.1273  0.0252  0.1048
13201W        W28332  11.913  11.961  11.313 -0.0955  0.1658 -0.1175
13202W        W28333   3.851  14.603  13.976  0.3710 -0.2691  0.0131
13203W        W28334  12.038   3.403   0.314 -0.0067 -0.2783 -0.1030
13204W        W28335  14.982  12.333   4.929  0.3993 -0.2669  0.4444
13205W        W28336   2.501  15.920   5.533  0.1319 -0.5207 -0.0473
13206W        W28337   9.145  17.858   1.365 -0.1476  0.1485  0.2545
13207W        W28338   6.877   8.329   2.246  0.1360  0.2408  0.2633
13208W        W28339   9.939   7.610  10.522  0.1772 -0.2604 -0.0314
13209W        W28340  12.898   6.657   9.827 -0.1938 -0.0610 -0.1043
13210W        W28341   1.889  11.396   3.488  0.1542 -0.0991 -0.0486
13211W        W28342  10.312  17.394   4.143  0.2622 -0.1317  0.1786
13212W        W28343   8.256   5.210  13.620  0.0493  0.4736  0.2819
13213W        W28344   6.779   0.998   1.998  0.3439 -0.3618 -0.0586
13214W        W28345  11.790  15.247  14.136 -0.0849  0.1160  0.1489
13215W        W28346  10.452   4.554   6.147 -0.0362 -0.0393 -0.0190
13216W        W28347  12.852   2.954  15.732 -0.2668 -0.1445 -0.0223
13217W        W28348  11.820   6.362   5.571 -0.2026  0.1107  0.4624
13218W        W28349  14.699   5.198  11.909  0.1946 -0.1415 -0.0723
13219W        W28350   1.569   7.235  11.083  0.0376 -0.0084 -0.1022
13220W        W28351   9.384   4.269   1.689 -0.0077 -0.1535  0.3850
13221W        W28352  14.851   6.561  12.822  0.2222 -0.1024  0.0929
13222W        W28353  15.953   4.165   2.363 -0.0851  0.1359  0.3232
13223W        W28354  12.926  10.917  11.561  0.2269  0.1974  0.0328
13224W        W28355   3.929  14.902  15.787  0.1383  0.1385 -0.0758
13225W        W28356  12.556  13.055   2.009 -0.0070  0.1767  0.0248
13226W        W28357   6.769   3.209  15.655  0.2137 -0.4717  0.3270
13227W        W28358  12.057   5.727  10.921  0.0959  0.2863  0.0625
13228W        W28359   9.749   8.561  12.798  0.0187 -0.0888  0.2179
13229W        W28360   9.618  13.896  10.848  0.2825  0.0094  0.0780
13230W        W28361  11.592  15.426   0.034 -0.1676  0.1555 -0.0383
13231W        W28362   4.735   9.838  15.838  0.1564  0.3580  0.1825
13232W        W28363  15.884   1.148  11.561 -0.0320  0.0718  0.1709
13233W        W28364  11.933  11.206  11.858 -0.2698 -0.0273  0.0121
13234W        W28365  12.033  12.672  14.187 -0.0775 -0.1918  0.0937
13235W        W28366   1.746  14.766  15.590 -0.1440 -0.0057  0.0615
13236W        W28367  10.960   8.192   2.474 -0.0919 -0.2041  0.0310
13237W        W28368  15.079  16.318   0.556 -0.1270  0.2681  0.1071
13238W        W28369  17.910   3.186   2.384  0.1331  0.3303  0.1106
13239W        W28370   8.417  12.481   4.641 -0.1425  0.1233 -0.1286
13240W        W28371   9.924   7.939   3.480  0.1768 -0.1383  0.0387
13241W        W28372   5.525  12.641  12.605 -0.1108  0.0856  0.2571
13242W        W28373  15.477  14.438   6.107 -0.0347  0.2213 -0.0119
13243W        W28374   4.553  12.214   0.112 -0.0813 -0.0013  0.4327
13244W        W28375  12.450  13.362  10.544 -0.1107 -0.2721  0.0009
13245W        W28376  16.449   5.116  14.786  0.3860 -0.0248  0.0963
13246W        W28377   0.968  10.240  12.181 -0.0922  0.0193  0.0947
13247W        W28378   7.992  14.698   4.738  0.1079 -0.0514 -0.0802
13248W        W28379  17.619   8.301   4.087 -0.1319  0.0291 -0.0585
13249W        W28380  18.222   1.119  14.393  0.0219  0.1410  0.1176
13250W        W28381   7.439   4.962  10.901 -0.1831 -0.0249 -0.0701
13251W        W28382  18.317   8.106   2.755 -0.0995  0.3935  0.1640
13252W        W28383   8.271   0.716   1.831  0.0821  0.2460 -0.3136
13253W        W28384  15.632   7.948   1.969 -0.2264  0.0847  0.2381
13254W        W28385  11.080   8.505  13.334  0.2101 -0.0507 -0.0621
13255W        W28386  11.893   6.978  12.365  0.3072  0.1050  0.0607
13256W        W28387   2.276  13.184   0.812  0.2403 -0.0943  0.0607
13257W        W28388  17.777   0.670  15.468 -0.3378  0.2981 -0.1958
13258W        W28389   5.578   2.338   2.081  0.0936  0.1314 -0.0517
13259W        W28390  17.683   4.799  15.224 -0.1918  0.1701  0.0799
13260W        W28391  16.485  16.485  11.046 -0.2058 -0.1263  0.0167
13261W        W28392   7.434  14.860   3.638  0.1160 -0.1721  0.2299
13262W        W28393   0.397  11.489   0.037  0.1139  0.1270  0.2062
13263W        W28394   5.760   1.029  15.141 -0.2231  0.2499 -0.2731
13264W        W28395   5.675  14.848  12.592  0.3422 -0.0964  0.1159
13265W        W28396   6.020   3.971  11.868  0.1577 -0.2159 -0.0723
13266W        W28397   6.080  14.034   1.977  0.1230 -0.1610 -0.1199
13267W        W28398  12.106  16.708  10.114  0.1645 -0.0792  0.4015
13268W        W28399  12.239   4.969   1.593 -0.2630 -0.2199 -0.0613
13269W        W28400   9.793   9.691   3.884 -0.1877  0.0437 -0.0300
13270W        W28401   2.266  17.276  12.843 -0.0152 -0.0059  0.3442
13271W        W28402   5.833  18.366   1.640 -0.0682 -0.1728  0.1798
13272W        W28403  12.087   2.932   3.803  0.2395 -0.1201 -0.0998
13273W        W28404   0.632   3.581  10.674 -0.0126  0.0424  0.1364
13274W        W28405   8.628  13.992  11.928 -0.0014 -0.0953 -0.0684
13275W        W28406  13.110   3.721  11.723 -0.1431 -0.0802  0.0330
13276W        W28407  10.760   8.654  15.249 -0.0817 -0.0556 -0.0151
13277W        W28408   6.384   3.175   1.041 -0.0742 -0.2474  0.1962
13278W        W28409   0.328   1.845  13.400  0.1144 -0.1333 -0.1399
13279W        W28410   6.479   4.592  14.843  0.2749 -0.0761 -0.1008
13280W        W28411  14.532   1.828  12.321  0.0762 -0.2613  0.1252
13281W        W28412   4.696  10.152  11.044  0.2102 -0.0053  0.1619
13282W        W28413  10.833  16.021  12.430  0.0548  0.1476  0.0460
13283W        W28414   4.047  11.379   2.556 -0.0600  0.1280 -0.1496
13284W        W28415  10.130  18.527  10.165  0.3586 -0.2291  0.1030
13285W        W28416   2.278   4.049  14.275 -0.1141  0.1638  0.0579
13286W        W28417  10.787  13.636   0.714  0.1509  0.2426  0.1213
13287W        W28418   4.969  12.380   3.303 -0.2081 -0.1956  0.0456
13288W        W28419   0.795   0.523  14.844 -0.0484  0.4748 -0.0056
13289W        W28420   6.766   9.412   1.873  0.2131  0.2777 -0.1104
13290W        W28421   6.148  15.230  11.289  0.0428  0.1902 -0.1467
13291W        W28422   7.172  10.231   2.670 -0.1264 -0.3149  0.1215
13292W        W28423  15.124  14.919   2.438  0.0050 -0.0954  0.1101
13293W        W28424  12.097  12.106  15.834  0.1398  0.1337  0.0670
13294W        W28425  11.949   3.337   2.304  0.2207  0.1700  0.0798
13295W        W28426  14.190  18.249  12.409 -0.2227  0.1527  0.1404
13296W        W28427  17.015   9.805   1.409  0.2014  0.1318  0.1127
13297W        W28428  15.297   9.803   1.417  0.1577  0.2636  0.4829
13298W        W28429   6.165   9.181   4.301 -0.1055 -0.0193 -0.2196
13299W        W28430  15.463   2.690  12.109 -0.2277  0.0549  0.1104
13300W        W28431   7.363  12.060   1.718 -0.3302 -0.1981  0.0526
13301W        W28432   1.264  13.144   0.357 -0.2015 -0.1280  0.2211
13302W        W28433  16.045   8.428   5.838  0.0108 -0.1806  0.2261
13303W        W28434  15.240  11.506   2.164 -0.1021 -0.1080 -0.0146
13304W        W28435   2.612  11.375   5.201 -0.1322  0.1530  0.0828
13305W        W28436   7.098   8.976   1.990  0.0822  0.3730 -0.2768
13306W        W28437   6.630   0.818  12.684  0.2556  0.3237  0.0744
13307W        W28438  15.263  17.942   4.188 -0.1619 -0.2217  0.1556
13308W        W28439   1.455  10.980   4.237  0.0965 -0.0880  0.1618
13309W        W28440   5.143   8.446   2.443  0.3535  0.1890  0.0439
13310W        W28441   6.310   8.906   3.485 -0.0522  0.2802  0.0576
13311W        W28442  18.280  12.472  13.216 -0.0085  0.1931  0.0595
13312W        W28443   2.517  11.926  11.212 -0.1925  0.2496  0.1576
13313W        W28444   0.723   2.071  15.499  0.1128  0.0002 -0.0403
13314W        W28445  16.478  15.571   4.849  0.2654 -0.2720  0.4025
13315W        W28446  14.333   1.383   4.437 -0.1477 -0.1075  0.1317
13316W        W28447  15.713  14.100  10.421 -0.3244 -0.0239  0.1054
13317W        W28448  16.274   4.557  11.391 -0.0188  0.0933  0.3472
13318W        W28449   5.161   6.099  13.856  0.0894  0.3432 -0.0722
13319W        W28450   6.383  13.033   5.783 -0.1637 -0.0300 -0.0739
13320W        W28451  14.461   5.684   0.447  0.0396 -0.2297  0.1958
13321W        W28452   2.063   3.469   1.494  0.1755  0.0491 -0.2663
13322W        W28453  17.856  13.032  15.724  0.2458 -0.2693  0.0718
13323W        W28454   2.735   2.804  14.967 -0.3198 -0.1130  0.1340
13324W        W28455   6.805   4.490  12.967 -0.0347 -0.0067  0.2026
13325W        W28456  11.153  10.059  15.378 -0.0510  0.1253  0.1465
13326W        W28457   5.583   3.619  14.916 -0.3047 -0.3689 -0.0535
13327W        W28458   2.649   6.182   3.360  0.0037  0.2255 -0.2344
13328W        W28459   6.251  12.333   1.298 -0.1667 -0.0498 -0.0176
13329W        W28460   1.265  15.177   1.137 -0.2337  0.0642  0.3378
13330W        W28461  11.880   6.188   2.232 -0.0654  0.1805  0.1378
13331W        W28462  17.610  15.000   4.648  0.1148  0.1208 -0.0830
13332W        W28463   7.421  12.301   3.871 -0.3651  0.3683 -0.2271
13333W        W28464  13.479   8.131   2.915  0.1371 -0.0187 -0.5610
13334W        W28465   0.581  11.027   6.024 -0.3582 -0.1346  0.0669
13335W        W28466  10.653   8.022  12.172 -0.1948  0.1008  0.0584
13336W        W28467  12.933   1.623   2.442 -0.1434 -0.2936  0.0918
13337W        W28468   1.356   0.369  11.445 -0.2984  0.1057  0.1477
13338W        W28469  15.192  16.818  13.123 -0.0897  0.0611 -0.2388
13339W        W28470  15.402  12.602   5.291  0.0672  0.1170 -0.2802
13340W        W28471   2.357   2.504   0.643 -0.0294 -0.3056  0.1465
13341W        W28472   2.513  13.002   4.583  0.0705 -0.0558  0.2210
13342W        W28473  13.686   9.385   3.930 -0.5055 -0.1369  0.1336
13343W        W28474   3.168   4.184  14.975 -0.0714 -0.0871 -0.0232
13344W        W28475  17.916   2.998   3.614 -0.0289 -0.1485  0.1197
13345W        W28476  17.702   6.389  15.269  0.1944 -0.0343 -0.4544
13346W        W28477   7.924  18.209  15.616  0.0843 -0.2117 -0.0206
13347W        W28478   1.807  15.336  15.566  0.0003  0.0097 -0.2297
13348W        W28479   4.792   3.610  14.937  0.2830  0.1607 -0.3401
13349W        W28480  14.387   0.522   2.080 -0.0808  0.0674 -0.1830
13350W        W28481   8.667   5.442   1.752  0.1731 -0.1012  0.0040
13351W        W28482   3.257  13.491   4.823  0.0734 -0.4519  0.0189
13352W        W28483  17.240   3.736  10.790 -0.1134 -0.0288 -0.3489
13353W        W28484   8.897  17.216  13.800  0.2788 -0.0535  0.3705
13354W        W28485   2.294   8.771   0.456 -0.2820 -0.2461 -0.0679
13355W        W28486  17.517  18.009  11.024 -0.0077  0.1123 -0.0116
13356W        W28487  17.602  15.103  14.124  0.3058  0.0112  0.3110
13357W        W28488  11.822  10.530   0.043  0.1945  0.3952 -0.0190
13358W        W28489   7.891   0.396   9.251  0.0489  0.0346  0.0248
13359W        W28490   2.934   0.979   3.042 -0.3405  0.0015  0.1391
13360W        W28491   2.788   8.582  12.295  0.2370  0.2333 -0.1038
13361W        W28492  10.784   2.538   5.136  0.0604 -0.1511 -0.2359
13362W        W28493   5.833   5.662   2.781  0.0757  0.1932 -0.1244
13363W        W28494  13.198  10.055  13.564 -0.0614  0.2213  0.4513
13364W        W28495   6.052   8.201   2.322  0.1138  0.4332 -0.0096
13365W        W28496   9.156  16.649   0.693  0.1482 -0.0970  0.1733
13366W        W28497  13.423   4.361  13.766  0.0780  0.0374  0.0401
13367W        W28498   6.284  17.398   4.070  0.0132  0.3144  0.0726
13368W        W28499   7.265  16.297   2.706 -0.2586 -0.0771 -0.1903
13369W        W28500   2.098   8.848   1.815 -0.0056 -0.0785  0.0456
13370W        W28501  15.696   6.057  12.470  0.1615  0.0501  0.0676
13371W        W28502   3.650   0.391   5.409  0.0222  0.0716  0.0289
13372W        W28503   2.064  14.793  15.136 -0.1146 -0.3111  0.3708
13373W        W28504   1.727   2.231   3.233  0.2395  0.2255 -0.0426
13374W        W28505   0.377  11.089   3.225 -0.1868  0.1438  0.0268
13375W        W28506   7.927   8.659   2.206  0.1524 -0.0574  0.0268
13376W        W28507  18.159  16.860   4.500 -0.0358  0.0579 -0.0169
13377W        W28508   2.002  11.254   5.886  0.1984 -0.0155 -0.4952
13378W        W28509  13.605   8.333  14.690 -0.6003 -0.0369  0.1904
13379W        W28510  15.456  13.334   1.673 -0.2448 -0.0863  0.0734
13380W        W28511  18.171  10.615  10.942 -0.1206  0.1551 -0.0867
13381W        W28512  11.642  15.301   2.446  0.2324  0.1642  0.0301
13382W        W28513   2.597  13.766  14.489 -0.0585  0.0310 -0.0530
13383W        W28514  11.100   4.836  11.049  0.1357  0.1562  0.1143
13384W        W28515   6.108   3.655   2.803 -0.0234 -0.0134  0.2735
13385W        W28516   3.276  18.341   2.078  0.1220  0.0101 -0.0208
13386W        W28517   4.197   0.099   4.686 -0.1207 -0.3372  0.2833
13387W        W28518   9.691   7.653   1.218  0.1546 -0.1121  0.0607
13388W        W28519   8.161  11.225  12.857 -0.3737  0.0240  0.0070
13389W        W28520  17.702   9.314   1.874  0.1388  0.0600  0.0439
13390W        W28521   6.704  12.243  12.869 -0.2121 -0.0628 -0.1185
13391W        W28522  13.977   0.848  13.683 -0.3147 -0.0459 -0.2016
13392W        W28523  11.677   6.361  15.796  0.4911  0.1876 -0.1927
13393W        W28524   6.824  13.763   3.582  0.1493  0.0492  0.2136
13394W        W28525  12.125   6.553   4.723  0.1984 -0.1467  0.0771
13395W        W28526  10.168  14.348   3.940 -0.1896 -0.1657 -0.1461
13396W        W28527   1.772  16.069   3.314 -0.0956 -0.0695  0.1722
13397W        W28528   3.941  17.701  11.330  0.2992 -0.1853  0.2331
13398W        W28529   3.499  18.004  15.337  0.3855 -0.0840  0.1692
13399W        W28530   4.167  12.118   5.180 -0.1392  0.1028 -0.4100
13400W        W28531   8.528   2.321  13.585 -0.0529  0.1882  0.2155
13401W        W28532   9.924  10.877  14.013  0.1405  0.1968  0.1917
13402W        W28533   5.921  14.457   4.031 -0.0188 -0.2791  0.2013
13403W        W28534  15.820   3.082  14.938  0.0735  0.1365 -0.2376
13404W        W28535  15.134  18.297   0.989  0.1600  0.0808  0.1598
13405W        W28536  12.392   7.916  15.275 -0.2060  0.1414  0.1681
13406W        W28537   8.314  13.618   2.348 -0.1132  0.1020 -0.1473
13407W        W28538  17.106  10.436   3.287  0.0117 -0.3731 -0.2405
13408W        W28539   9.444   7.959   0.019 -0.1675  0.0291  0.0787
13409W        W28540  15.666   6.416   5.278 -0.0486 -0.3579  0.1208
13410W        W28541  15.892   2.928  11.924 -0.3466  0.2688 -0.1223
13411W        W28542   0.364   3.905   5.554 -0.0592  0.1803 -0.1960
13412W        W28543  18.431   1.309   4.134 -0.2552 -0.1793  0.1656
13413W        W28544  15.923  16.154   0.943 -0.0700  0.0052 -0.3981
13414W        W28545  17.358  16.334   5.482  0.2146 -0.0875  0.0361
13415W        W28546   1.430   9.914  11.995  0.1325  0.3925  0.1917
13416W        W28547   3.669   2.039   0.882 -0.2306 -0.2241 -0.0610
13417W        W28548   9.464  16.318  10.167  0.0656 -0.1819 -0.0530
13418W        W28549  13.989   4.243  13.783  0.1629  0.2506 -0.0007
13419W        W28550  14.122  12.122  13.754  0.0997 -0.4227  0.0089
13420W        W28551  10.973   3.681  13.680 -0.0370 -0.0091  0.0545
13421W        W28552  15.177   0.016  10.292  0.0327 -0.1040  0.0892
13422W        W28553   7.832   4.888  13.832  0.1712  0.0080  0.1194
13423W        W28554  18.284  10.142   2.072 -0.0387  0.1621  0.1516
13424W        W28555  13.258   5.329   0.268 -0.0212 -0.2261 -0.1346
13425W        W28556   4.454  17.845   1.212  0.2173 -0.0525  0.1423
13426W        W28557  15.672  13.882  13.449  0.2370 -0.0262 -0.1020
13427W        W28558  14.189   0.313   4.379  0.0206 -0.1371 -0.0633
13428W        W28559   0.648  17.571   0.591  0.2567  0.2110 -0.2861
13429W        W28560   5.142  11.727   2.487 -0.1318 -0.1051  0.5224
13430W        W28561  13.693   9.809  11.303  0.3704 -0.0962  0.1444
13431W        W28562  11.763   1.789  14.613 -0.0332  0.0153 -0.0882
13432W        W28563   6.068   3.830   0.928 -0.2823 -0.0324 -0.2410
13433W        W28564   6.736   9.060  12.841  0.0530  0.1496  0.3392
13434W        W28565   1.939   7.585   1.878 -0.2298  0.1110  0.1679
13435W        W28566  14.373  14.828   4.051 -0.3287 -0.5238  0.2804
13436W        W28567  12.835  10.147   1.394 -0.3255  0.0674 -0.1394
13437W        W28568  17.376  14.811  11.060  0.0577 -0.0442 -0.1782
13438W        W28569   2.293   8.996  14.632 -0.2709 -0.0695 -0.0667
13439W        W28570  10.857  11.869   1.250 -0.0039  0.0564 -0.0902
13440W        W28571   2.376   9.608  11.216  0.0443 -0.2463 -0.4515
13441W        W28572  13.587  10.430  14.892 -0.2106  0.4538  0.0957
13442W        W28573   7.202   4.931  14.202  0.1782 -0.1504  0.0253
13443W        W28574  13.129   8.779   3.494  0.0744 -0.0468  0.1319
13444W        W28575  18.189  16.803  14.537  0.2724  0.2532 -0.1340
13445W        W28576   0.866  12.005  15.842  0.1077  0.2839  0.0128
13446W        W28577   0.703  10.150   6.199 -0.2763  0.2578  0.2948
13447W        W28578  10.687  17.707   2.831  0.2292 -0.1870 -0.2819
13448W        W28579  16.738   2.276   5.182 -0.3329 -0.0117  0.4430
13449W        W28580  13.476  16.022   4.548 -0.1126 -0.1501  0.2901
13450W        W28581   8.600  13.176   5.214  0.0832  0.0146 -0.2712
13451W        W28582  18.357   6.078   5.501  0.5323 -0.0808 -0.0263
13452W        W28583  11.699  18.280  12.671 -0.0870  0.1312  0.2637
13453W        W28584   5.808   2.660  10.865  0.0808 -0.0299 -0.1717
13454W        W28585   7.292   1.608  15.466  0.3201  0.1234  0.0866
13455W        W28586   5.301   0.118   3.282  0.3734  0.2774  0.1634
13456W        W28587  15.745   5.723  12.862  0.1150 -0.0166 -0.0245
13457W        W28588  14.722  12.033   3.648  0.1320  0.0579  0.0358
13458W        W28589   2.959  17.029   2.008 -0.1507  0.2184  0.0652
13459W        W28590  11.925  18.483   5.715  0.1622  0.1305  0.1721
13460W        W28591   5.780   8.883  13.568  0.0339 -0.0086  0.0342
13461W        W28592   4.320  13.357  10.547  0.0271  0.0861  0.0574
13462W        W28593  11.132  18.256   2.121 -0.1592 -0.1269 -0.3119
13463W        W28594   0.550   7.359  11.081 -0.1190 -0.0405 -0.3570
13464W        W28595  17.564  11.711  14.710 -0.4923  0.0270  0.0168
13465W        W28596   3.554   4.501   5.358 -0.1366  0.0429 -0.1400
13466W        W28597  12.849   6.902   4.033 -0.2257 -0.1819  0.1825
13467W        W28598  11.743  12.211  14.121 -0.3045 -0.0752 -0.2607
13468W        W28599  18.274   4.313  13.945  0.1157  0.3143  0.0391
13469W        W28600  16.805   7.892  15.740 -0.1746 -0.0888 -0.1178
13470W        W28601   3.295   5.456   3.529 -0.1174  0.0496 -0.1099
13471W        W28602   9.948   6.491  12.390  0.1502  0.1243 -0.0446
13472W        W28603   6.811   0.542   2.928  0.0782 -0.2358  0.0538
13473W        W28604   2.650   8.635  13.362 -0.2356  0.3047 -0.3219
13474W        W28605   4.079   1.460  14.144 -0.2402 -0.0259  0.0777
13475W        W28606  15.914   2.393  12.071 -0.0709  0.2906 -0.1274
13476W        W28607  12.823   5.216  10.478 -0.1225 -0.4369  0.1620
13477W        W28608  16.616   3.814  12.073 -0.3022 -0.0922  0.5107
13478W        W28609  16.859  10.729   6.072  0.2501  0.0254 -0.3643
13479W        W28610   3.427  12.438   1.722  0.1311  0.2181 -0.0039
13480W        W28611  13.442  17.059  13.383  0.1872 -0.1032 -0.1454
13481W        W28612  17.199   0.063  11.297  0.0186 -0.2970  0.3712
13482W        W28613   6.816   8.042  11.216 -0.0324  0.1326  0.1913
13483W        W28614   6.004   7.842   5.765  0.0021 -0.1280 -0.1991
13484W        W28615  15.266   0.626  14.708  0.0333 -0.2091  0.1547
13485W        W28616   0.406   0.125  11.419 -0.0455 -0.1258  0.0009
13486W        W28617   8.092  15.132   0.267  0.0912 -0.1697 -0.1372
13487W        W28618   4.313   6.845  14.714 -0.0131  0.2053  0.1493
13488W        W28619   2.831  11.831  12.780  0.1810 -0.2838  0.3824
13489W        W28620   0.592   7.360   2.983 -0.0751  0.1522  0.1482
13490W        W28621   7.125   4.560  12.578 -0.2640 -0.0742  0.2391
13491W        W28622   2.128   7.864  10.719 -0.2134 -0.1538 -0.1501
13492W        W28623   7.688   6.110  12.086 -0.3368  0.1490  0.4460
13493W        W28624  12.057   6.682  14.442 -0.0595 -0.0738  0.0300
13494W        W28625   5.855   6.960  15.861  0.2876  0.1486 -0.0160
13495W        W28626  14.527   0.754   4.182 -0.1669 -0.2206  0.1440
13496W        W28627  17.133   1.303  15.824 -0.1494  0.0430  0.2065
13497W        W28628   6.433   4.879  11.114 -0.0591  0.0975 -0.1752
13498W        W28629   7.569   3.894  12.798  0.1588 -0.0056  0.2060
13499W        W28630   7.943  11.541  10.917  0.3695  0.2219 -0.0941
13500W        W28631   3.745  12.381  14.573  0.2593  0.0852  0.0172
13501W        W28632   7.995  14.162   2.810  0.0911 -0.0251  0.1089
13502W        W28633  13.900   7.159   9.938 -0.1405  0.3799 -0.0342
13503W        W28634  15.091   6.042   4.560 -0.3260 -0.1696 -0.2949
13504W        W28635   9.877   9.203  15.505  0.0466  0.0768 -0.1553
13505W        W28636  14.009  10.363   4.933  0.1618 -0.2519  0.0125
13506W        W28637   0.949  18.098   5.324 -0.0363  0.3726  0.2258
13507W        W28638  13.170   4.310  14.204 -0.0762 -0.3068  0.2795
13508W        W28639  10.090  10.322  12.442  0.0708 -0.1493  0.0350
13509W        W28640   9.463  15.461  15.255 -0.2491 -0.5872  0.2313
13510W        W28641   0.396  14.193  12.049 -0.1329  0.1144 -0.0477
13511W        W28642   2.315   1.410  15.247  0.2223 -0.0502  0.2551
13512W        W28643  14.864  12.011   1.951  0.1422  0.2668 -0.2754
13513W        W28644   4.502  18.159  14.180 -0.0967 -0.1547  0.0819
13514W        W28645   3.253   8.810  14.760  0.1245  0.2572  0.0331
13515W        W28646   7.695  15.271  10.444 -0.0621 -0.1032 -0.4303
13516W        W28647  10.807  16.948   2.274 -0.1272 -0.1403 -0.1942
13517W        W28648   2.667  15.003   2.610 -0.0146  0.2056 -0.2174
13518W        W28649  10.025  11.732   3.714 -0.1860  0.2840  0.0090
13519W        W28650   7.059  16.956   5.030 -0.0223 -0.0759  0.3762
13520W        W28651   1.633  12.272  12.461  0.0974 -0.1903  0.1313
13521W        W28652  17.215  10.426  14.560 -0.4434  0.0905  0.0063
13522W        W28653  17.144   3.654  15.773  0.0054  0.4512  0.3676
13523W        W28654   5.216  11.667   3.827  0.1029  0.1906  0.2945
13524W        W28655   6.372   5.654   0.322 -0.3057 -0.0580  0.2194
13525W        W28656   1.933   1.534   0.908 -0.3246  0.3548  0.1479
13526W        W28657  14.316   9.841  13.985 -0.1090 -0.0247  0.0359
13527W        W28658   9.181   3.034   1.201  0.0037 -0.1877  0.1892
13528W        W28659   1.451   3.801   0.567 -0.0413  0.0963 -0.1358
13529W        W28660  10.900  18.446   1.035 -0.2145  0.1057 -0.3185
13530W        W28661   1.070   7.423   1.279 -0.1121 -0.0378 -0.0713
13531W        W28662   3.709   3.515   3.348  0.3135  0.2434  0.0082
13532W        W28663  17.876   2.096   0.765  0.5404 -0.0905  0.0613
13533W        W28664  12.144   1.032   0.214  0.0105  0.1411 -0.0852
13534W        W28665   5.670   6.782  11.911 -0.1967  0.1763 -0.1326
13535W        W28666   4.735  12.482   5.876 -0.0409 -0.2368 -0.2874
13536W        W28667   7.050   5.650   3.322  0.2046 -0.2545 -0.1318
13537W        W28668  12.396  13.717   5.142 -0.1470  0.2078  0.2841
13538W        W28669  16.697  12.472   1.271 -0.1748  0.2277 -0.4459
13539W        W28670  18.130   8.842   2.109 -0.1418 -0.2586 -0.1763
13540W        W28671   7.212  10.672   1.243 -0.0784  0.1923  0.0545
13541W        W28672   1.696  15.810   2.868  0.0882 -0.3980  0.1090
13542W        W28673   6.955  14.128   1.424  0.1260  0.0312 -0.0677
13543W        W28674   6.574  11.987   5.053  0.1919 -0.1261  0.2714
13544W        W28675   2.430  10.239  13.242  0.3448 -0.3190  0.0867
13545W        W28676  15.988   1.948  14.227  0.1039 -0.1293  0.1416
13546W        W28677   1.927   4.353   3.223  0.0845  0.0541  0.0424
13547W        W28678   6.457  11.231  10.190 -0.1520 -0.1274 -0.1613
13548W        W28679  12.624   3.557  13.412 -0.2120  0.0986  0.1955
13549W        W28680   5.443  15.559  13.977 -0.1351 -0.0282  0.2448
13550W        W28681   9.225   8.678  11.409  0.3161 -0.0159  0.2070
13551W        W28682  17.215   9.297   2.189 -0.1313 -0.0843  0.1231
13552W        W28683   8.928   9.500   3.191 -0.2467  0.2960 -0.2085
13553W        W28684  13.172  14.472   5.034 -0.1739  0.2284  0.0283
13554W        W28685  15.098  12.557   2.958 -0.0065 -0.1553  0.1181
13555W        W28686  14.038   9.182   1.292  0.1150  0.1995  0.0831
13556W        W28687  12.551  15.252   0.653  0.0175  0.0084  0.1067
13557W        W28688   8.623  17.264   0.889 -0.0057  0.5501  0.0750
13558W        W28689  16.186   5.394  11.192  0.0154 -0.0163 -0.2001
13559W        W28690   6.217   4.761  10.616  0.2603  0.1917  0.2885
13560W        W28691  13.591   9.431   2.266 -0.0394  0.0373 -0.1498
13561W        W28692  14.015   6.339   5.428 -0.1323  0.0280 -0.3110
13562W        W28693  11.462  10.086   9.776  0.0725 -0.2415 -0.1619
13563W        W28694  16.578  11.997  12.731  0.0171  0.1653 -0.1760
13564W        W28695   1.809   5.533  11.547 -0.1734 -0.0410  0.0982
13565W        W28696   0.697   7.570   4.524 -0.1417 -0.2656  0.1345
13566W        W28697  11.777   7.225   3.251 -0.2578 -0.0826 -0.2824
13567W        W28698   8.384  14.068   4.183 -0.3301  0.1195 -0.2197
13568W        W28699  13.044   7.968  12.870  0.1912  0.0623  0.1367
13569W        W28700   5.924   9.798  13.800 -0.1850  0.4384 -0.0078
13570W        W28701  14.152   5.554  15.856  0.1224 -0.2728  0.0587
13571W        W28702  17.231   4.394  11.715  0.0845 -0.0547  0.0633
13572W        W28703  16.718  10.824   1.425  0.3139  0.2947 -0.1101
13573W        W28704  13.188   1.506  11.081  0.0988  0.1284 -0.0097
13574W        W28705   4.919   2.212   0.465  0.3777  0.1065  0.0067
13575W        W28706   6.297   7.897  12.114 -0.1220  0.1950  0.0245
13576W        W28707   7.886   9.154  15.752 -0.1914 -0.2181  0.0899
13577W        W28708  15.966   0.814  15.292 -0.0530 -0.6119 -0.1522
13578W        W28709   6.637   5.346   5.307 -0.1299 -0.2495 -0.0176
13579W        W28710  10.218   4.238  11.443  0.0483 -0.2701  0.0197
13580W        W28711   1.457  16.010   4.298 -0.0821 -0.0135 -0.0841
13581W        W28712  12.816   6.466   5.354  0.3193  0.1846 -0.2847
13582W        W28713  13.370   2.720  12.547 -0.1174 -0.2459 -0.0574
13583W        W28714   1.376  11.113  14.848 -0.0133  0.4004 -0.2096
13584W        W28715   1.704  16.252  13.494  0.1222 -0.0413 -0.1855
13585W        W28716   6.589  16.203   2.097 -0.1704  0.0039 -0.1101
13586W        W28717   8.907   4.901   5.075 -0.1442  0.4510  0.0062
13587W        W28718   8.124   9.174   4.525 -0.1510  0.0339 -0.2575
13588W        W28719  16.373  16.810   4.700 -0.2113 -0.1326 -0.0185
13589W        W28720  13.058   4.222   0.107 -0.1386 -0.0363 -0.0039
13590W        W28721   2.687   8.659  12.849  0.2151 -0.1868 -0.2339
13591W        W28722   4.753   1.670   3.172 -0.1424  0.1808  0.0785
13592W        W28723   6.203   4.296   0.428 -0.0471  0.0019 -0.2634
13593W        W28724  15.630   7.364   2.072  0.0587  0.0917  0.0133
13594W        W28725  17.559  13.219   0.265  0.2654 -0.1442 -0.2511
13595W        W28726  14.946   7.323  11.195 -0.0612 -0.0590 -0.2000
13596W        W28727  16.201  13.679  14.347 -0.1070 -0.0020 -0.1786
13597W        W28728  15.439  14.361   0.916  0.1500 -0.1883  0.1790
13598W        W28729  11.967   1.793  12.668 -0.3591 -0.3341 -0.2579
13599W        W28730   1.452   7.517   1.980 -0.2806  0.3912  0.0441
13600W        W28731   0.721  17.533  12.364  0.1812  0.1447  0.3556
13601W        W28732   0.685   3.341   1.062 -0.1493 -0.1050  0.1260
13602W        W28733  17.857  10.818   0.585  0.3434  0.0002  0.2990
13603W        W28734   9.955  10.853   5.203 -0.2664 -0.1809  0.0933
13604W        W28735  16.291  13.475   5.355 -0.3135  0.1691 -0.0427
13605W        W28736  15.582   9.014   4.703 -0.0030 -0.0707 -0.1661
13606W        W28737   7.868  11.290   3.461  0.3768  0.0449  0.1258
13607W        W28738   1.966   3.653   5.474 -0.1673  0.1292  0.2590
13608W        W28739  10.165  17.087   3.466 -0.0662 -0.1578  0.1012
13609W        W28740  10.146  18.517  11.913  0.0132 -0.1612 -0.1858
13610W        W28741  10.252   5.320   4.501  0.1609  0.0705  0.3963
13611W        W28742   7.963   2.584   2.818  0.1699 -0.0067 -0.1606
13612W        W28743   4.677  13.775   2.190 -0.0738 -0.0821 -0.2638
13613W        W28744  12.750   3.337   5.779  0.0647  0.2131  0.0254
13614W        W28745  14.181  15.820   2.800  0.1466  0.1074 -0.1524
13615W        W28746   9.774   2.160   6.029  0.0471 -0.0636 -0.0073
13616W        W28747   6.320  15.203  13.168  0.0362 -0.2898 -0.0673
13617W        W28748   0.271  11.986   2.032  0.0639  0.1429  0.0874
13618W        W28749  13.494   4.485  12.522  0.1575  0.1464  0.0133
13619W        W28750   2.056  14.479  12.676 -0.2033 -0.0485 -0.1106
13620W        W28751  10.128   0.995  13.063  0.1403 -0.1010  0.1476
13621W        W28752   3.595   2.011   3.954  0.2433 -0.0894  0.1973
13622W        W28753   0.026  17.293   1.012  0.1200 -0.2404  0.0292
13623W        W28754   4.346   5.089   0.127  0.1624 -0.2101  0.0621
13624W        W28755   8.382   5.890  14.571  0.1306  0.3040 -0.0128
13625W        W28756  11.862   8.399   0.718 -0.2687  0.0284 -0.2562
13626W        W28757   5.293   3.594   2.526  0.1308 -0.2829  0.0416
13627W        W28758   7.364   9.050  12.641  0.1322 -0.0011 -0.4779
13628W        W28759  11.901   2.223   5.215 -0.1323  0.1818 -0.1163
13629W        W28760  14.660  18.482   1.763 -0.0589  0.1170 -0.4900
13630W        W28761  12.813   5.146   0.353  0.0247 -0.3058 -0.0060
13631W        W28762   3.957   5.924  15.675 -0.0254  0.2421  0.0316
13632W        W28763   3.830  18.406   1.709  0.2616 -0.1480  0.1926
13633W        W28764   8.121   6.517  12.101 -0.2127  0.0056  0.0671
13634W        W28765   2.894  18.176   2.897  0.0467 -0.0047 -0.1136
13635W        W28766   9.044  14.011  11.606 -0.1609  0.3585 -0.1077
13636W        W28767   6.158  16.491   2.926  0.1779  0.1179 -0.2584
13637W        W28768   8.790  13.105  15.704 -0.0388  0.0049  0.1338
13638W        W28769   1.056   1.882   9.911 -0.0639 -0.2352  0.0702
13639W        W28770  11.302   5.987  12.395  0.2324 -0.1975 -0.0639
13640W        W28771   1.476   8.788   1.508  0.1989 -0.2175  0.1620
13641W        W28772   2.492   7.744  11.555 -0.0764  0.0086 -0.2247
13642W        W28773   8.953   6.653  10.750 -0.2119 -0.1049  0.3177
13643W        W28774  11.776  12.457  11.389  0.0527 -0.0231  0.3194
13644W        W28775  11.626  17.154  11.724  0.1766 -0.0367  0.0520
13645W        W28776  15.376  13.898  12.168  0.2172  0.0679 -0.2859
13646W        W28777  10.198   8.472  11.683  0.2307  0.0162 -0.0374
13647W        W28778   9.785  13.963  14.027  0.4742 -0.0959 -0.1869
13648W        W28779   4.588  18.324   2.675 -0.1568 -0.0543  0.0019
13649W        W28780   2.800   5.517   4.863 -0.1314  0.1378 -0.0905
13650W        W28781   7.737   6.661   5.432 -0.1876 -0.0744 -0.1134
13651W        W28782   2.315  10.683   3.926  0.1102 -0.0048  0.3984
13652W        W28783  14.436   3.983  10.092 -0.0627  0.1379  0.1080
13653W        W28784  16.640   9.254  10.959 -0.1698 -0.0373 -0.1145
13654W        W28785  17.563  17.229   5.148 -0.1730  0.2652 -0.0910
13655W        W28786   2.342  18.074   4.071 -0.6155  0.1633  0.3709
13656W        W28787  17.259   6.906  13.729  0.3686  0.2300 -0.1201
13657W        W28788   1.279   9.159   2.468 -0.2445  0.0386  0.0796
13658W        W28789  14.566   7.736  11.481 -0.3620  0.2756  0.6237
13659W        W28790   4.617   6.169   3.251  0.1442  0.0596 -0.2079
13660W        W28791  18.031   7.532   0.012  0.0431 -0.1594  0.3204
13661W        W28792   1.350  11.564  14.944 -0.1912  0.2334 -0.0504
13662W        W28793   8.668  12.425  11.834  0.2616 -0.1702 -0.0446
13663W        W28794   3.157   0.120   0.263  0.1897 -0.0196  0.2017
13664W        W28795   0.972  11.993  12.796 -0.0498 -0.0094 -0.2959
13665W        W28796  10.080   4.143  12.398 -0.0517  0.0246  0.1306
13666W        W28797  12.234   5.984   1.917 -0.2577 -0.0120 -0.0679
13667W        W28798  15.951   9.355  13.875  0.0218 -0.1594  0.0192
13668W        W28799  10.090   8.756  13.556 -0.1028  0.1605 -0.1220
13669W        W28800  13.959  11.450   1.776  0.0669  0.0879  0.0561
13670W        W28801  16.124   6.033   4.495  0.1928 -0.1451  0.2542
13671W        W28802  17.182   0.429   2.217  0.1917 -0.0243 -0.0530
13672W        W28803  15.299  13.691   3.810 -0.3215 -0.0286 -0.1150
13673W        W28804   2.330   9.676  11.741  0.1306  0.0505  0.1810
13674W        W28805  11.865   0.068  13.708 -0.3659 -0.0985 -0.2574
13675W        W28806  17.093  10.303   6.271 -0.1371 -0.0771 -0.1126
13676W        W28807   4.494  13.938   5.619 -0.4330  0.0899 -0.0559
13677W        W28808  11.657   1.880   4.021 -0.0304 -0.1323  0.1435
13678W        W28809   9.493   6.312  14.589  0.1065  0.1176  0.2034
13679W        W28810  16.394   3.029  12.374 -0.0623  0.0286  0.0997
13680W        W28811  17.743   7.086   3.726  0.1502 -0.0541 -0.0926
13681W        W28812   8.179  15.436  15.341 -0.3058  0.1481 -0.0619
13682W        W28813  11.653  14.829   5.547  0.0373 -0.1272  0.4589
13683W        W28814   0.175  15.108   0.426  0.2986 -0.1565 -0.0889
13684W        W28815  14.297   2.139   4.958 -0.0298  0.1767  0.0791
13685W        W28816   2.613   1.896  15.127  0.2995 -0.0396  0.0670
13686W        W28817   5.068   2.987  14.464 -0.3771  0.2342 -0.0109
13687W        W28818   1.267   5.014   3.024 -0.0345  0.2195 -0.0794
13688W        W28819  13.150  11.289  14.163 -0.1133  0.1506  0.0717
13689W        W28820  13.306  17.569   1.313 -0.0818 -0.0459 -0.1922
13690W        W28821   5.897   4.004  15.879 -0.3068 -0.0555  0.1485
13691W        W28822   4.219   6.308  14.648 -0.0398  0.1544 -0.0359
13692W        W28823   8.979  10.639   1.905 -0.0631 -0.2437 -0.1652
13693W        W28824   4.817   3.525   2.532  0.3210 -0.0434 -0.1363
13694W        W28825   0.031  11.551   3.113 -0.2330 -0.3103  0.0443
13695W        W28826   0.548   2.720   2.496  0.2163 -0.0368 -0.5388
13696W        W28827  15.941   8.502  13.830  0.1423  0.4574 -0.0049
13697W        W28828   4.703  11.618   3.306 -0.1737  0.0815  0.1802
13698W        W28829   6.408   5.952  13.196  0.2206 -0.1952  0.0711
13699W        W28830  12.968   8.515  13.081 -0.0321  0.0453  0.1164
13700W        W28831   4.864   0.133  13.852  0.2140 -0.0135  0.1875
13701W        W28832   3.653  13.041   4.510  0.4550  0.0008  0.0193
13702W        W28833  14.885  10.896  15.562  0.0399 -0.2931  0.1145
13703W        W28834  16.159   1.464  13.271  0.0592 -0.3930  0.2285
13704W        W28835  10.171   8.044  10.688 -0.0010 -0.1081  0.0904
13705W        W28836  15.728   8.144  14.580 -0.0898 -0.0038 -0.1467
13706W        W28837  15.983   5.877  10.752 -0.0401 -0.0319 -0.0177
13707W        W28838   8.496  11.769  13.500  0.1819 -0.0025 -0.2939
13708W        W28839  11.286   5.666  12.868 -0.0333 -0.0514  0.2760
13709W        W28840   2.487  11.000  12.516  0.1198  0.0506 -0.2627
13710W        W28841   8.540  16.842   3.174  0.0104  0.3326  0.1913
13711W        W28842   9.012   9.782  11.813 -0.1832  0.0584  0.0913
13712W        W28843  16.194  10.989   3.723 -0.1686  0.0884  0.1447
13713W        W28844  12.308  12.619   5.507  0.1858  0.0692 -0.0522
13714W        W28845   0.018  14.095   4.063 -0.0844 -0.1454 -0.3803
13715W        W28846   8.834  12.220   2.880  0.3462  0.2958  0.2314
13716W        W28847   5.193   1.532  12.654  0.2741 -0.0220  0.0164
13717W        W28848  16.834  14.022  12.670 -0.0586  0.2143 -0.2188
13718W        W28849  10.874   3.841  11.887 -0.0065  0.0725  0.1035
13719W        W28850  16.936   8.798  10.970 -0.0095 -0.0908 -0.1355
13720W        W28851  10.573   9.769   9.301  0.0511  0.1306  0.2633
13721W        W28852   3.002  15.083  13.192  0.1192  0.0382 -0.3268
13722W        W28853   5.982  14.440   1.120 -0.0682  0.1561  0.3077
13723W        W28854   4.257  12.423  10.507 -0.1363 -0.0083 -0.0263
13724W        W28855  15.645   9.437   4.169  0.0650 -0.0022  0.2279
13725W        W28856  17.535  17.058  13.204  0.0359  0.1368  0.0813
13726W        W28857  11.770   7.798  13.613  0.1168 -0.0795  0.2220
13727W        W28858   4.702   0.819  12.639 -0.1362  0.0154 -0.0566
13728W        W28859  14.734   9.456  11.042 -0.4473  0.0829 -0.0026
13729W        W28860   0.937   2.493  12.365  0.2773 -0.1147 -0.1330
13730W        W28861  15.595   0.690   3.419 -0.1712  0.1978  0.0609
13731W        W28862   0.624   7.508  11.679 -0.0480  0.0848 -0.1118
13732W        W28863   4.864   7.870  14.243 -0.0902  0.0110  0.0104
13733W        W28864   1.809   5.294  14.396 -0.3326  0.0833 -0.0142
13734W        W28865  16.547   2.826   3.588 -0.2751 -0.1437 -0.0488
13735W        W28866   0.241  17.213  15.638 -0.0735  0.1039  0.1923
13736W        W28867   3.472  10.252   0.539 -0.2443 -0.2107  0.1412
13737W        W28868  17.872  15.463   4.329 -0.0487  0.0056  0.1576
13738W        W28869  18.505  12.015  13.090 -0.0625 -0.2419  0.1588
13739W        W28870   0.826   6.052  12.797 -0.0802  0.0313  0.4289
13740W        W28871  10.024  11.540  13.018  0.3523  0.0893  0.0352
13741W        W28872   3.607   5.062   3.675  0.0288  0.1461  0.1798
13742W        W28873   5.311   6.871  13.195 -0.1475 -0.0780 -0.3023
13743W        W28874   4.187  13.461  12.617 -0.2103 -0.0376 -0.1571
13744W        W28875  16.531   5.271  15.774  0.1924 -0.1788 -0.1612
13745W        W28876  13.652  11.106   2.998 -0.0975  0.0611  0.1546
13746W        W28877   7.379   0.465  12.473  0.0812 -0.0220  0.0655
13747W        W28878   9.861   3.580   1.672 -0.0631 -0.0623 -0.0114
13748W        W28879  12.883  15.681  13.491 -0.4457 -0.4021  0.4257
13749W        W28880  15.515  11.887   1.028  0.1562  0.1100  0.1715
13750W        W28881  11.345  16.490   5.004  0.2497  0.1027  0.0597
13751W        W28882   6.669   7.687  11.909  0.0686  0.1894 -0.0005
13752W        W28883   6.041   0.104   5.505  0.0043 -0.1314 -0.1514
13753W        W28884  11.233   7.355   4.910 -0.3695 -0.0122 -0.1196
13754W        W28885   4.042  18.364   2.729  0.3153  0.1732 -0.0394
13755W        W28886  13.445   0.181  14.033  0.3443  0.1823 -0.3853
13756W        W28887   9.375   3.074  15.214 -0.0090 -0.2729 -0.1142
13757W        W28888   4.808   7.226  15.817  0.0978 -0.3592 -0.2372
13758W        W28889  11.221   4.601  15.331 -0.0061 -0.0445 -0.3882
13759W        W28890  10.492   2.810   0.764 -0.0220  0.1060  0.1235
13760W        W28891   2.297  10.566  14.642 -0.2103 -0.0349  0.0115
13761W        W28892  13.690  10.116   3.841 -0.2003  0.1913  0.0173
13762W        W28893   2.438  18.220   3.068  0.2345 -0.0591  0.1093
13763W        W28894  17.131  11.388   5.005  0.0321 -0.3911  0.1547
13764W        W28895   7.840  12.863   2.180 -0.1902  0.0213 -0.1362
13765W        W28896  12.396   7.831  14.470 -0.1828  0.0950 -0.0666
13766W        W28897  11.755   9.689  13.655 -0.0624  0.1014  0.2512
13767W        W28898  14.004   4.572   0.107 -0.0269  0.0831 -0.0328
13768W        W28899   8.756  12.769  11.346  0.0840  0.4156  0.0061
13769W        W28900  12.198  13.373   2.731 -0.0020 -0.1480 -0.1978
13770W        W28901  14.230   0.902  14.682 -0.0891 -0.3489 -0.0211
13771W        W28902  14.680  15.308   4.269 -0.3050 -0.0610  0.3470
13772W        W28903  15.187  12.774   1.496 -0.1947 -0.3275 -0.1552
13773W        W28904  16.590   9.680  15.865  0.1995 -0.0057  0.0065
13774W        W28905   2.456   1.933   2.800  0.1307  0.0453  0.0141
13775W        W28906   7.708   5.165   3.345  0.2622 -0.0128 -0.2938
13776W        W28907  10.398  15.407  15.864  0.3221  0.1303  0.1112
13777W        W28908  18.220  10.458  13.184 -0.0433  0.0967 -0.4466
13778W        W28909   3.271  13.955   0.151 -0.1496 -0.0423 -0.2437
13779W        W28910  10.686   3.652   3.188 -0.1043 -0.0758  0.1533
13780W        W28911   6.907   7.961   4.281 -0.0808 -0.4892  0.3394
13781W        W28912  12.066   4.330  15.024  0.0709  0.1683 -0.0773
13782W        W28913  11.072  13.523   9.490 -0.0790  0.1815  0.1679
13783W        W28914  16.539   3.831   1.819  0.0918  0.3327  0.0149
13784W        W28915   3.270   3.737   3.411 -0.3177  0.0425 -0.2421
13785W        W28916   5.053  10.947  14.600 -0.0878  0.0604 -0.0506
13786W        W28917  17.569   6.093   4.044 -0.0325  0.2643 -0.1067
13787W        W28918   2.821   9.675   5.787 -0.3747  0.0220 -0.1928
13788W        W28919  13.439   9.279  15.057 -0.1164  0.2709  0.3823
13789W        W28920   6.938   2.688  14.358 -0.0681  0.0637  0.0796
13790W        W28921   0.174   1.069  14.731 -0.0301 -0.1632  0.1649
13791W        W28922   1.500  11.876  12.713  0.4455  0.2024  0.0685
13792W        W28923   9.573   6.657   2.172 -0.1614  0.1687  0.0894
13793W        W28924   3.624  14.518   4.531  0.1580 -0.0108  0.0995
13794W        W28925   1.991  12.318   1.728  0.0630 -0.0255  0.1399
13795W        W28926   2.361   6.338  11.377 -0.2284  0.1889  0.3064
13796W        W28927   3.171   0.067  15.436  0.1983  0.2396  0.0761
13797W        W28928  16.836  14.916   5.512  0.2546  0.1083 -0.1896
13798W        W28929   6.642   9.282  15.736 -0.3727  0.0780  0.0673
13799W        W28930   9.957  12.318  13.299  0.1622  0.0404  0.2884
13800W        W28931   3.021   4.564  14.439  0.0833 -0.0813  0.1787
13801W        W28932   3.693   9.800   1.675 -0.0623 -0.0469 -0.1482
13802W        W28933   9.419  17.773  10.566 -0.0881  0.0851  0.3088
13803W        W28934   5.820  15.917  11.426 -0.0059 -0.2752  0.0007
13804W        W28935  13.489  11.425   1.598 -0.2478  0.2732 -0.0383
13805W        W28936   7.764  16.094  10.836 -0.0716 -0.0194  0.0301
13806W        W28937  14.300   2.387  13.620  0.1468 -0.0260 -0.0286
13807W        W28938  15.225   1.450   2.710 -0.0900  0.2083  0.5663
13808W        W28939   4.607   8.408   3.149 -0.1880 -0.1358  0.1967
13809W        W28940   3.806  17.695  13.631  0.0405 -0.0711 -0.1397
13810W        W28941   4.862   7.379  12.220 -0.0174 -0.2151  0.1991
13811W        W28942  13.869  15.714  15.367  0.0400  0.1071 -0.3448
13812W        W28943   5.660  15.915   0.120  0.1909  0.0758  0.0050
13813W        W28944  17.575   1.358   0.346 -0.2876  0.1597  0.1675
13814W        W28945   0.760  16.743   5.312  0.1529 -0.0774 -0.3412
13815W        W28946   5.406   4.400   2.684  0.1556  0.1048 -0.0862
13816W        W28947   3.580   7.627   0.149  0.1167 -0.2087 -0.0132
13817W        W28948   1.943  17.034  15.131  0.0690 -0.2474  0.5098
13818W        W28949  11.541   5.761   4.890 -0.1961  0.1582 -0.3888
13819W        W28950   1.588   3.182   0.027 -0.3225 -0.0130  0.2307
13820W        W28951   3.594   5.448  14.180  0.1225 -0.1494  0.1380
13821W        W28952  13.184  16.011   2.417  0.0863  0.0647  0.0459
13822W        W28953   8.034  15.819  12.189 -0.3174 -0.1838 -0.0301
13823W        W28954  17.572  14.084  14.525  0.1454  0.2342  0.1276
13824W        W28955   6.283  13.489  10.951 -0.0555 -0.0179  0.0312
13825W        W28956   9.792   0.097   2.944 -0.0374 -0.0038 -0.0745
13826W        W28957   0.486  10.552   2.160  0.0198 -0.4040 -0.0319
13827W        W28958   7.660   4.492   1.567 -0.0731 -0.1926 -0.2643
13828W        W28959  17.361  12.936   1.887 -0.1985 -0.0826  0.1225
13829W        W28960   2.103   2.136  12.886  0.3416  0.1511 -0.0597
13830W        W28961   7.420   6.289   4.537 -0.0828  0.0170  0.1227
13831W        W28962   3.683   4.028   5.331  0.2315  0.2074 -0.1120
13832W        W28963   2.354  10.989  14.918  0.2760  0.3587 -0.0703
13833W        W28964   2.910  17.409  11.627 -0.1454 -0.0965 -0.1425
13834W        W28965  11.757   4.460   4.668 -0.3515 -0.1454  0.0579
13835W        W28966   8.743  16.374   1.868  0.2912  0.3034 -0.3096
13836W        W28967  15.444   5.413   1.720 -0.0569 -0.2111 -0.0575
13837W        W28968   3.542   8.961   1.060 -0.1100  0.1103 -0.0742
13838W        W28969  17.425   7.511  11.565 -0.0415 -0.0337  0.1985
13839W        W28970   6.372   6.758   4.172 -0.2234 -0.1299  0.1863
13840W        W28971   8.456  14.238   0.346 -0.0251 -0.1248 -0.1279
13841W        W28972   5.609   1.300   1.402 -0.2652 -0.0549 -0.1865
13842W        W28973  12.070   3.391  12.819 -0.3303 -0.3079 -0.1569
13843W        W28974  15.485  10.464   0.930 -0.1188 -0.0584  0.3040
13844W        W28975  11.812   3.726   0.708 -0.0306  0.1941  0.5020
13845W        W28976  17.324   7.803  14.891 -0.1789  0.1929  0.1636
13846W        W28977  11.444   2.191   0.184 -0.0251 -0.4256  0.1890
13847W        W28978   4.429  18.096   2.271  0.0963 -0.1299 -0.0159
13848W        W28979   9.700  16.970   0.522 -0.1023  0.0740 -0.0519
13849W        W28980  16.342  11.027  15.896 -0.0636  0.0998  0.1914
13850W        W28981  17.458   7.517   3.309 -0.1365 -0.0559 -0.3996
13851W        W28982   8.130   4.113   1.799 -0.0928  0.2505 -0.1970
13852W        W28983   5.628   1.286   1.857  0.1390  0.1060  0.1295
13853W        W28984  14.287  11.832  13.011  0.0987  0.2154 -0.0243
13854W        W28985   1.129   9.042  12.192  0.1262  0.1650  0.2373
13855W        W28986   7.231   2.904   5.747  0.0008 -0.3162 -0.1972
13856W        W28987   6.457  13.256   0.679  0.2254  0.4498  0.2609
13857W        W28988   2.008  12.923  13.410 -0.0431  0.2364  0.0674
13858W        W28989   2.187  16.129   4.705 -0.0124  0.0576 -0.0368
13859W        W28990   3.907   5.951   6.322 -0.0762  0.0958  0.0561
13860W        W28991   1.782  11.945   0.336  0.0677  0.0758  0.0580
13861W        W28992   8.609  17.387  14.669 -0.0818  0.1708  0.0283
13862W        W28993   4.256   1.272  13.336  0.1464  0.0782  0.1430
13863W        W28994   2.926  16.999  12.360 -0.0660 -0.1078 -0.0035
13864W        W28995   1.102  14.576   4.575 -0.0938  0.0378 -0.2118
13865W        W28996   6.394   4.842   3.064 -0.0315 -0.2714  0.0635
13866W        W28997  11.373   0.068  14.392  0.4409  0.0586 -0.0362
13867W        W28998  18.507   9.587  15.790  0.2556 -0.1240 -0.3116
13868W        W28999   1.131   8.932  15.169  0.1341  0.0910 -0.0376
13869W        W29000   1.056   1.135   5.475 -0.1873 -0.1465 -0.0204
13870W        W29001   5.303   6.932  10.486 -0.0248 -0.0225 -0.2942
13871W        W29002  16.658  12.211   0.209 -0.1192  0.0200 -0.0507
13872W        W29003  10.949   9.718   3.559  0.0578  0.0330 -0.0675
13873W        W29004   8.947  10.194  13.597  0.2968  0.0336  0.1803
13874W        W29005  14.847  18.196   4.383 -0.1053 -0.2333  0.0837
13875W        W29006  15.725   1.616  11.628  0.3645 -0.0011  0.0459
13876W        W29007   3.551  17.595  10.923  0.0826  0.1217  0.2651
13877W        W29008   0.513  18.368   2.551 -0.0234  0.0456 -0.1815
13878W        W29009   4.540  12.808   4.612 -0.1013 -0.3078 -0.0451
13879W        W29010   3.090   5.424  12.402  0.1356  0.0144  0.0599
13880W        W29011   0.163  11.871   0.996  0.1333  0.1545 -0.4339
13881W        W29012   0.233  16.055   1.282 -0.3189 -0.0281 -0.0133
13882W        W29013  11.637   8.510   1.621 -0.0896 -0.0322 -0.0634
13883W        W29014  13.516   3.043   4.763 -0.3072  0.1504 -0.0784
13884W        W29015   1.431  14.709   3.212  0.0230  0.1003 -0.0443
13885W        W29016   1.537   7.141  13.284  0.0877  0.3072 -0.0418
13886W        W29017  12.141  13.173   9.355  0.0243  0.1919  0.1524
13887W        W29018  15.030  17.011  13.585 -0.3233 -0.0299 -0.2612
13888W        W29019   8.586   8.811   5.255  0.0326  0.0498 -0.0706
13889W        W29020  15.710   0.732  12.603  0.1346 -0.0918  0.3582
13890W        W29021   3.123  13.903   5.087 -0.1222  0.0328 -0.0342
13891W        W29022   9.619  11.675  10.089 -0.1292  0.2067  0.2300
13892W        W29023   2.304   0.508   4.200 -0.0784 -0.2435 -0.0029
13893W        W29024  15.485   4.007   1.127 -0.5658  0.0713 -0.1633
13894W        W29025  11.175   4.977  14.041 -0.2457 -0.2152  0.1285
13895W        W29026  17.667   4.490   4.360  0.1694 -0.3220 -0.0731
13896W        W29027  13.719  12.893   2.955  0.1011 -0.0474 -0.0350
13897W        W29028  12.304   2.914  14.506 -0.0725  0.0521 -0.3496
13898W        W29029  16.902   3.134  11.491  0.1024 -0.1224 -0.0039
13899W        W29030   3.189   9.187  10.428  0.0542  0.2632 -0.0768
13900W        W29031   2.860  11.349   6.250  0.1006  0.2421  0.1036
13901W        W29032   5.559   5.694   3.210 -0.2923  0.0903 -0.1257
13902W        W29033  18.157   4.633  15.003  0.1135  0.1696  0.2380
13903W        W29034  16.923   6.228   2.258  0.0708 -0.0330 -0.4186
13904W        W29035  12.034   1.892   0.942 -0.0393  0.1593 -0.1074
13905W        W29036  14.589   4.196   2.603 -0.2744 -0.0566  0.0819
13906W        W29037  18.003  12.731   2.581 -0.0714 -0.0006 -0.1486
13907W        W29038   6.043   4.691   1.209  0.1095 -0.0884 -0.1359
13908W        W29039   7.376   2.215  10.360  0.1144 -0.0610 -0.1891
13909W        W29040   5.886   9.546   4.125 -0.0376 -0.2792  0.2361
13910W        W29041  13.376  17.340   0.601  0.1986  0.1436 -0.0513
13911W        W29042   7.120  12.841   3.055 -0.1344  0.0612 -0.0008
13912W        W29043   8.147   3.968  11.299  0.0720 -0.1860  0.1358
13913W        W29044  15.314  13.514   1.206  0.0686 -0.2757 -0.1480
13914W        W29045  11.362  18.074   5.119  0.0542  0.0077  0.0292
13915W        W29046   2.886  13.656   4.073  0.2121 -0.2463 -0.3985
13916W        W29047  18.247  14.134   5.425  0.1837  0.0272 -0.2014
13917W        W29048  15.342  12.465  15.707 -0.0131 -0.1733  0.2424
13918W        W29049  15.486   6.267   0.613 -0.1080  0.1807  0.1633
13919W        W29050   8.811   0.715   1.046  0.0239  0.0461  0.1365
13920W        W29051   8.035  16.144  11.440  0.0907 -0.0329  0.1739
13921W        W29052  15.886  16.345   1.851  0.2506  0.0529 -0.2411
13922W        W29053  17.273   2.381  15.559  0.1845 -0.1419  0.2252
13923W        W29054   0.464   9.137   2.524 -0.0682  0.0258  0.2268
13924W        W29055   7.773  18.064   4.061  0.0678  0.0205  0.3540
13925W        W29056   4.856   5.646  12.887  0.0419  0.2789 -0.3167
13926W        W29057  10.672  16.657  11.271  0.2911 -0.2982 -0.2358
13927W        W29058  14.774  17.446   9.833 -0.1101 -0.0877 -0.2547
13928W        W29059  13.466  16.928  15.143  0.2241  0.1772  0.0028
13929W        W29060   9.308  15.106   0.796  0.3126 -0.1696  0.2220
13930W        W29061  10.197   2.283   4.004  0.1453  0.2155  0.1592
13931W        W29062   2.067   8.297   3.604  0.2187 -0.3112 -0.1164
13932W        W29063   8.737  10.189  10.522  0.0758  0.0094  0.1576
13933W        W29064  18.193   0.880   3.550 -0.2038 -0.3337 -0.0571
13934W        W29065   3.040  15.052   3.434 -0.1051 -0.0062  0.1289
13935W        W29066   6.484  18.317  14.617 -0.0282 -0.0704  0.3451
13936W        W29067   4.115   2.514   0.269 -0.3181 -0.2009 -0.0569
13937W        W29068  13.039  11.473  13.259 -0.0102 -0.1159 -0.3634
13938W        W29069   8.280  14.899   1.137 -0.3272  0.1062 -0.0518
13939W        W29070   6.634   3.651  11.749 -0.4553 -0.1897 -0.4108
13940W        W29071   8.932  15.466   5.041 -0.2183 -0.0806 -0.0754
13941W        W29072  14.586   6.171  12.995  0.2967 -0.0764 -0.1390
13942W        W29073  14.501  12.601   0.844 -0.1825 -0.2306 -0.2950
13943W        W29074  14.603   5.498   1.528  0.0549  0.1514 -0.1718
13944W        W29075  10.981   4.388   1.671 -0.0811  0.0026  0.0945
13945W        W29076   4.367  12.007   3.378 -0.0851 -0.1753 -0.1713
13946W        W29077  14.594   7.398   4.149 -0.0027 -0.0778  0.1114
13947W        W29078   3.336   3.243   3.698 -0.0571 -0.2998  0.0866
13948W        W29079   2.765   6.066  13.825 -0.0238 -0.2865  0.1824
13949W        W29080  16.242  18.320   3.261 -0.1713 -0.0475 -0.0318
13950W        W29081  13.440   5.164   3.805  0.1278 -0.0367 -0.1975
13951W        W29082  16.276   4.552   2.593 -0.0907  0.0564  0.1867
13952W        W29083  14.087  13.083   3.744  0.0275 -0.2257  0.0106
13953W        W29084  12.832  15.620  14.859 -0.4835  0.1945  0.0010
13954W        W29085   6.509   2.300   6.129  0.2672  0.0628  0.1452
13955W        W29086   2.701  16.041  12.005  0.0262 -0.0415  0.2009
13956W        W29087   7.401  12.663  15.071 -0.0881 -0.1828  0.0533
13957W        W29088   7.126   7.771  13.364  0.2503 -0.0289  0.0602
13958W        W29089   5.959   0.002   3.106 -0.0446 -0.1888  0.1806
13959W        W29090  16.501   6.859   0.363 -0.0199 -0.2770 -0.1374
13960W        W29091   5.082   1.837  12.290  0.2002  0.1596 -0.3119
13961W        W29092   5.111   8.075   4.440 -0.0003 -0.1261  0.1814
13962W        W29093   2.828  17.452  12.145  0.1578 -0.1187 -0.0897
13963W        W29094   4.694   3.058  14.763 -0.2872  0.1245 -0.1020
13964W        W29095   1.158   7.328   2.993  0.2542  0.0291  0.4012
13965W        W29096  12.728   5.644   4.694 -0.0971 -0.2218 -0.1470
13966W        W29097  13.087   9.662   1.187  0.0012  0.0274  0.0603
13967W        W29098  18.430  16.796   1.738  0.1494 -0.0170  0.1525
13968W        W29099   1.729  11.431  11.276 -0.2214  0.2274 -0.3368
13969W        W29100  16.791   4.570  15.443 -0.1185 -0.3057 -0.1414
13970W        W29101   8.576  13.096  15.218 -0.0866  0.0917  0.1078
13971W        W29102   5.374  12.260   1.026  0.0639 -0.0676 -0.0929
13972W        W29103  12.693   1.222   0.134 -0.0550  0.0422 -0.0818
13973W        W29104  17.972  13.246   1.209  0.0210  0.0385 -0.3495
13974W        W29105   8.977  11.572  14.260  0.2923 -0.3332 -0.2466
13975W        W29106  15.351  12.911   3.384 -0.0537 -0.1445  0.1692
13976W        W29107   9.555   7.202  12.922 -0.4989 -0.1108 -0.2109
13977W        W29108   1.948  12.007   0.805  0.0792 -0.5721  0.1166
13978W        W29109  15.004  10.226   2.073 -0.2668 -0.1256  0.0155
13979W        W29110   8.092   3.049   1.240  0.0706 -0.3043 -0.0420
13980W        W29111  13.265  16.974   0.308 -0.0331 -0.0859  0.1116
13981W        W29112  17.963   8.400  15.390  0.2004 -0.1812 -0.1853
13982W        W29113   7.758  12.315  15.159 -0.0581 -0.0710  0.1180
13983W        W29114   0.276   7.339   5.169  0.1193 -0.1071  0.2169
13984W        W29115  10.548  18.330  13.687  0.0396 -0.3085  0.2820
13985W        W29116   1.113   6.113  15.396  0.0052 -0.0039  0.0805
13986W        W29117  14.306  11.232  13.297  0.2830 -0.1640 -0.1109
13987W        W29118   4.754   3.359  11.687  0.0296 -0.0510 -0.0498
13988W        W29119  16.373   7.329   5.231 -0.1731 -0.0277  0.0102
13989W        W29120   2.942  12.510  14.532 -0.2720 -0.1798 -0.0322
13990W        W29121   8.120  14.926  12.469 -0.2967  0.0493  0.0009
13991W        W29122   2.659   5.433  13.150  0.0376 -0.0453 -0.1919
13992W        W29123   0.570  13.775  14.382  0.1535 -0.1522  0.2611
13993W        W29124  18.040  15.944  13.927 -0.1311  0.1695 -0.0692
13994W        W29125   1.222  12.357   0.316  0.2853 -0.2967  0.0487
13995W        W29126   8.361  14.498   5.425 -0.2243  0.2311  0.0437
13996W        W29127   0.194   7.243  11.591 -0.5503  0.0550  0.1002
13997W        W29128   7.321   7.058   4.246 -0.2737  0.0624 -0.0425
13998W        W29129  14.657   7.836  13.876  0.0254 -0.2692  0.2717
13999W        W29130   3.311   0.982   4.050  0.2942  0.3032  0.0033
14000W        W29131   7.240   2.089  12.503 -0.0232 -0.0355 -0.2954
14001W        W29132  14.928  10.934  13.887  0.4063  0.0860  0.0908
14002W        W29133  13.601  16.939   3.189 -0.0183  0.2372  0.2616
14003W        W29134  11.611  15.111   0.577  0.1813 -0.3187  0.3110
14004W        W29135  10.931   9.286   4.201  0.0179  0.0197 -0.0410
14005W        W29136   4.638   7.826   4.426 -0.1096  0.1867 -0.1570
14006W        W29137  16.644   3.546  13.467  0.1996  0.3508  0.0194
14007W        W29138   3.537  10.940   0.791 -0.2338 -0.0641  0.2692
14008W        W29139  16.896   0.011  14.511  0.1305 -0.2763 -0.1468
14009W        W29140   9.699   1.570  12.437  0.1279 -0.4126 -0.0771
14010W        W29141   3.723   8.916  11.359 -0.3578  0.1508  0.1706
14011W        W29142  16.102   7.168  15.367  0.0221  0.1761  0.2061
14012W        W29143  11.665  13.409   3.774 -0.0566  0.0732 -0.5059
14013W        W29144  13.024   0.375   5.434 -0.0338  0.0911  0.4123
14014W        W29145  14.236  13.817   4.572 -0.1514 -0.1648  0.0657
14015W        W29146   0.867  15.119  11.133 -0.0413  0.0169  0.0813
14016W        W29147   0.112   5.407   4.993 -0.2483 -0.1026  0.2308
14017W        W29148   5.631  10.637  14.025  0.3139  0.0273  0.2896
14018W        W29149   6.689  12.291  14.524 -0.2149 -0.2690 -0.1415
14019W        W29150  17.217  10.543   5.870 -0.3584  0.0238  0.1125
14020W        W29151  17.349   2.138   4.396 -0.0449 -0.1392  0.2592
14021W        W29152   1.601  11.317  15.269  0.0024  0.0954  0.0258
14022W        W29153  16.091  13.898   3.942 -0.1813 -0.0944 -0.2014
14023W        W29154  15.740   0.613  10.650 -0.0775 -0.1172  0.0745
14024W        W29155   0.154   8.007   0.379  0.1688  0.2877  0.0130
14025W        W29156   0.581  15.932  13.230  0.2427 -0.1808 -0.0212
14026W        W29157  18.525  17.817   3.462 -0.1253 -0.4503  0.4385
14027W        W29158  12.260   3.635   3.668 -0.3080  0.0101 -0.2227
14028W        W29159   7.467  12.675  14.531  0.0124  0.1988 -0.2166
14029W        W29160   3.537   7.000   3.703 -0.1835  0.3553 -0.0175
14030W        W29161   0.268   6.173   4.173 -0.0770  0.0566  0.1689
14031W        W29162  14.893  17.363  15.806  0.0104  0.1430 -0.3495
14032W        W29163  15.406   7.350   1.306  0.1881  0.0454  0.0269
14033W        W29164   4.945  15.805  12.319 -0.1464 -0.2396  0.2019
14034W        W29165   8.845  15.323   1.949 -0.0087 -0.1002 -0.1263
14035W        W29166  10.292  14.467   2.595  0.2200  0.0239 -0.3267
14036W        W29167   4.175  16.500   2.121  0.2356 -0.1113 -0.0131
14037W        W29168  14.540  13.910  11.612  0.3463  0.1204 -0.0410
14038W        W29169   4.360   8.191  13.236  0.1589 -0.1679 -0.4682
14039W        W29170  10.061   4.857  13.095  0.1497  0.1426  0.1614
14040W        W29171   6.344   8.686  14.659  0.0818 -0.2437 -0.2489
14041W        W29172   1.314  12.330  12.133 -0.0346  0.2215 -0.2247
14042W        W29173   3.412   1.560   3.275 -0.0468  0.0688 -0.3388
14043W        W29174  14.914   8.999   1.889  0.1630  0.0905  0.1286
14044W        W29175  11.439   1.620  15.151  0.1960 -0.1904 -0.0813
14045W        W29176  10.956  10.940  12.658  0.1983 -0.0270  0.0971
14046W        W29177   0.956   9.265   5.064 -0.0203 -0.0742 -0.1088
14047W        W29178   2.199   7.098   0.043 -0.0991 -0.1204  0.0553
14048W        W29179   8.478  14.070   2.559  0.5050  0.2435 -0.1904
14049W        W29180   4.952  16.858   5.674  0.2448 -0.0276 -0.0612
14050W        W29181  16.620  12.332  14.028 -0.0686  0.0573 -0.3078
14051W        W29182  16.601  10.397   5.620 -0.0697 -0.3190  0.3693
14052W        W29183  16.767   8.396  14.371 -0.0751 -0.1216 -0.1800
14053W        W29184   2.289   6.040  15.614 -0.1520  0.1775 -0.2556
14054W        W29185   1.956  15.028  13.858  0.1907  0.0165 -0.3563
14055W        W29186  15.899   0.427   0.487 -0.0016 -0.1238  0.0487
14056W        W29187   1.118  11.763   0.835  0.0098 -0.3062 -0.2099
14057W        W29188  15.180  13.279  11.402  0.1122 -0.0313 -0.3647
14058W        W29189   2.227   9.313   1.952  0.0675 -0.0700  0.1652
14059W        W29190   0.444   2.441   3.183  0.1670 -0.1309  0.3102
14060W        W29191  11.363  14.294   9.984 -0.0906 -0.2336 -0.2656
14061W        W29192   1.746   2.729   3.015  0.0017  0.0393 -0.1796
14062W        W29193   1.323   0.662   2.981  0.0506 -0.0864 -0.1934
14063W        W29194  15.037   3.936  11.096  0.0361  0.2552  0.1251
14064W        W29195   2.191  10.566   0.602  0.0339 -0.0386 -0.0744
14065W        W29196   1.404  15.284  11.789  0.1401  0.1334 -0.2513
14066W        W29197   7.504  13.453   0.814 -0.1328 -0.4155  0.0880
14067W        W29198  16.618  14.471   1.554  0.1437  0.2658 -0.0181
14068W        W29199   2.168  15.937  13.753  0.0183  0.3782 -0.1038
14069W        W29200   2.683   6.461   0.498  0.3467  0.0696 -0.3998
14070W        W29201  13.712  11.348   2.531  0.1384  0.2623  0.0118
14071W        W29202  17.169  15.155   1.741 -0.2182 -0.0056  0.3997
14072W        W29203  10.314  17.644  14.907  0.2023  0.0724  0.3518
14073W        W29204   8.209  10.123  14.000 -0.1529 -0.0270 -0.2134
14074W        W29205   1.680   9.643  13.987 -0.0076 -0.0443 -0.1062
14075W        W29206   0.674   9.828  12.177  0.0099  0.0366  0.1702
14076W        W29207   1.398   4.233  12.257  0.4658  0.0758  0.0115
14077W        W29208  12.954  11.008   3.279 -0.0684 -0.0756 -0.0800
14078W        W29209  12.371   2.144   4.546  0.2098 -0.2995 -0.1480
14079W        W29210  15.956   3.736  12.284 -0.1542 -0.1833 -0.1464
14080W        W29211   2.521   7.003   0.651 -0.0906 -0.1123  0.3247
14081W        W29212  15.785  13.504  10.853  0.0675 -0.1906  0.1943
14082W        W29213  11.760  17.696  14.260  0.0430  0.2261 -0.1660
14083W        W29214   3.116  12.143   1.475  0.0219 -0.0806  0.2585
14084W        W29215  11.930   7.453   2.478 -0.1622  0.0572  0.4182
14085W        W29216  17.728   5.645  11.409  0.1461 -0.0333  0.0097
14086W        W29217  15.757   7.942  15.887 -0.5543 -0.2586 -0.2253
14087W        W29218  14.706   0.958  12.621  0.1023 -0.2922  0.1551
14088W        W29219  17.872  13.877  13.585 -0.1415  0.4209 -0.2169
14089W        W29220  12.249  17.318  13.308 -0.0432  0.0661 -0.0268
14090W        W29221  13.390   4.991  12.438 -0.0949  0.0160  0.0563
14091W        W29222  10.134  17.891   3.455 -0.1557  0.0738 -0.1389
14092W        W29223  15.157  17.787  13.087  0.0151  0.3446  0.1891
14093W        W29224   1.061   8.897  14.056 -0.0774  0.1756  0.3621
14094W        W29225  12.234   7.981   1.719 -0.3253  0.0892  0.1827
14095W        W29226  11.472   6.063   5.248  0.1726  0.2542 -0.1932
14096W        W29227  14.878  10.676   3.466  0.2334 -0.1184 -0.0579
14097W        W29228   6.737   5.320  12.559 -0.1797 -0.0194  0.0643
14098W        W29229   2.097  14.075  13.715  0.1023  0.0944 -0.0122
14099W        W29230   9.809  11.252   2.965 -0.1637 -0.3015 -0.1471
14100W        W29231   3.353   3.935   5.681 -0.3366 -0.0447 -0.1288
14101W        W29232   1.380   0.358  12.601 -0.2121 -0.3554  0.1541
14102W        W29233  10.248  14.028   5.021 -0.1759  0.2572 -0.2507
14103W        W29234   9.047   7.179  12.978  0.2375  0.2505 -0.2193
14104W        W29235   1.542  16.406  10.924  0.1108 -0.4923  0.1660
14105W        W29236   1.260   4.901   5.015  0.1286  0.2244 -0.2390
14106W        W29237   5.373  12.724   3.893 -0.1198  0.0514  0.0757
14107W        W29238  12.425  10.712  15.804  0.0403  0.0532  0.0941
14108W        W29239  10.675   0.407  12.465  0.2758  0.3136 -0.1141
14109W        W29240  14.387  14.231   1.306 -0.3079 -0.1709 -0.2220
14110W        W29241   8.709   6.067  14.955 -0.2319 -0.2743  0.0980
14111W        W29242  14.673  12.814   0.249 -0.0517 -0.0071 -0.1424
14112W        W29243   6.104   5.321  10.821  0.0293  0.3350  0.1198
14113W        W29244   6.368  18.170  14.178  0.4153  0.0971 -0.0897
14114W        W29245   7.406   0.238  13.032 -0.1094 -0.0143 -0.0690
14115W        W29246  17.628  14.603  12.961  0.2172 -0.0953  0.1725
14116W        W29247   7.612   6.487  11.204 -0.1005 -0.0344  0.0433
14117W        W29248   4.514   4.609  13.228  0.0833  0.2435 -0.3417
14118W        W29249  16.402   3.234   4.230 -0.2444  0.2712  0.0275
14119W        W29250   2.912  14.405  15.152  0.0158  0.0757 -0.3063
14120W        W29251  13.175   1.511   5.519 -0.2112 -0.1732  0.1656
14121W        W29252  18.072   6.793  12.250  0.0302  0.0772  0.1402
14122W        W29253   7.605  15.797  10.387 -0.0975  0.1948 -0.0374
14123W        W29254  10.200  11.976   0.757  0.2310 -0.1912 -0.0259
14124W        W29255   5.858   7.880  11.887  0.0913  0.3013 -0.4401
14125W        W29256   7.364  10.965  13.891  0.3526 -0.0099  0.0368
14126W        W29257  11.691  14.090  12.271 -0.1552  0.0410 -0.0537
14127W        W29258   8.488   7.923  15.310  0.2614  0.1008 -0.3113
14128W        W29259  17.874  11.005  11.700  0.0504  0.0874 -0.2296
14129W        W29260  12.650  13.699   4.273 -0.3663 -0.0264 -0.3208
14130W        W29261  11.935   5.813   2.559  0.1355  0.0351  0.3364
14131W        W29262  16.247   7.442  12.488  0.1154 -0.3112 -0.0665
14132W        W29263  16.851   5.481  14.565 -0.1276  0.3709 -0.2139
14133W        W29264  12.119  16.732  10.958  0.0361  0.2917  0.0519
14134W        W29265   7.988   7.391  12.074 -0.0448  0.1700 -0.3752
14135W        W29266  14.710  18.491  13.627 -0.3140 -0.0383  0.1926
14136W        W29267  13.745  17.251  10.718  0.1852 -0.2318 -0.1841
14137W        W29268  14.132   5.854  15.344  0.1257 -0.0822 -0.0071
14138W        W29269  10.950   5.777  13.346 -0.0277  0.0837 -0.0302
14139W        W29270   0.723  13.526   6.149  0.1625  0.0042 -0.0472
14140W        W29271  11.973   8.199   1.407 -0.0645  0.1606 -0.0474
14141W        W29272   7.290  16.743  14.937 -0.2344  0.3397 -0.0780
14142W        W29273   9.261  14.264   3.663  0.0792  0.2449  0.4492
14143W        W29274   3.635   0.531  11.831 -0.1115  0.0549 -0.1821
14144W        W29275  14.910   0.295   2.054 -0.0171 -0.1590 -0.2648
14145W        W29276  16.377  14.613   4.621  0.0103 -0.2040 -0.1031
14146W        W29277  16.419   6.223  14.768 -0.2506 -0.1282 -0.0384
14147W        W29278  17.594  16.664  13.898 -0.0785  0.1951 -0.3102
14148W        W29279   7.158  10.452   0.714  0.2416  0.2375 -0.1061
14149W        W29280  10.768   0.782   3.003  0.0540 -0.1039  0.3293
14150W        W29281  11.204   8.874   3.868 -0.2512  0.1256 -0.4326
14151W        W29282  12.401  17.549   3.447 -0.2872  0.1214  0.1268
14152W        W29283   6.753  10.392   4.675  0.1180 -0.1399  0.3159
14153W        W29284   6.100  17.266  14.556 -0.0236  0.0775 -0.2460
14154W        W29285  10.387   7.283  11.452  0.2038 -0.0026  0.1225
14155W        W29286   4.470   6.316   0.631 -0.2734 -0.0572  0.3861
14156W        W29287   2.050  13.401   3.534  0.2467  0.0141 -0.1892
14157W        W29288   1.735  13.373  14.777  0.0923  0.1045 -0.0241
14158W        W29289   9.773   2.074  13.870 -0.0718  0.0774 -0.0586
14159W        W29290  14.622  16.793   2.991  0.0451 -0.2472 -0.1427
14160W        W29291  14.827  12.497  15.094  0.0377  0.0699 -0.0465
14161W        W29292   7.481  16.253  15.844  0.0015 -0.4878  0.0357
14162W        W29293   5.423   1.837   1.635  0.3201  0.0399  0.0692
14163W        W29294  11.791   0.980  15.556 -0.3610 -0.2921 -0.4824
14164W        W29295  11.655   3.230  13.210 -0.1530 -0.1230 -0.1994
14165W        W29296   1.050   4.415   5.713 -0.1932 -0.1235  0.5092
14166W        W29297   1.485  16.921  14.875  0.0162 -0.2062 -0.0347
14167W        W29298   5.707  17.509  12.688  0.0507 -0.0505  0.2299
14168W        W29299   6.673  12.919  15.303  0.2345  0.0827 -0.2736
14169W        W29300  18.295   2.742   3.859  0.1272 -0.0172  0.1648
14170W        W29301   7.260   6.953  13.608 -0.2311  0.0706 -0.3661
14171W        W29302  17.848   7.349  13.954 -0.1030  0.2235  0.0470
14172W        W29303   6.314   7.052  10.565 -0.0137  0.0065 -0.0908
14173W        W29304  15.519   7.338   0.308 -0.0780  0.4262  0.3618
14174W        W29305   9.729   8.232  12.358 -0.3372 -0.0605  0.3454
14175W        W29306   0.740   6.589  13.124  0.1060 -0.1565 -0.1718
14176W        W29307  12.038   2.081  14.952 -0.0016  0.1260  0.0442
14177W        W29308  13.872  15.342   3.491 -0.3457 -0.2951 -0.2680
14178W        W29309   2.108  16.377   1.096  0.1201 -0.0908 -0.0537
14179W        W29310   5.127   3.165  14.020 -0.1097  0.2567  0.2613
14180W        W29311   6.243   0.615  14.278  0.1235 -0.3117 -0.1318
14181W        W29312  18.380   1.517  10.772 -0.1359  0.2622 -0.0411
14182W        W29313  16.434   9.078   1.106  0.3062  0.0463  0.0959
14183W        W29314  12.568  11.452   3.983 -0.5574  0.1635  0.2584
14184W        W29315  14.798  13.157   9.898 -0.0816  0.2114  0.0839
14185W        W29316  16.426  11.394  10.021  0.1115 -0.0907 -0.0484
14186W        W29317   8.405   2.459   5.682  0.0485  0.3363 -0.0243
14187W        W29318   8.761   9.912   4.957  0.0990  0.0274 -0.0369
14188W        W29319  10.324   9.437  15.685  0.2366 -0.0242 -0.0276
14189W        W29320  10.375  11.973   2.490  0.2301 -0.1284  0.1550
14190W        W29321  16.307  13.609  14.868 -0.3516 -0.1618  0.2715
14191W        W29322   9.221   1.076  13.230 -0.1117 -0.1706 -0.1186
14192W        W29323  17.795   2.502  15.320  0.0189 -0.2339 -0.0910
14193W        W29324  13.611   9.105  14.110  0.1410  0.0312 -0.0258
14194W        W29325  15.661   2.214  15.516 -0.0881  0.1192  0.0276
14195W        W29326  15.549   0.935  14.929 -0.1245  0.0673 -0.0621
14196W        W29327  11.654  16.587   3.883  0.0018  0.3616 -0.4861
14197W        W29328  14.657  12.819   1.758 -0.2141  0.1992  0.1487
14198W        W29329   2.891   3.794  10.569 -0.0822 -0.1387  0.0153
14199W        W29330  14.646   3.815   1.547  0.0494 -0.0948 -0.0130
14200W        W29331   4.935   2.350   2.621 -0.1048 -0.0319 -0.1585
14201W        W29332   2.456   5.684  13.923 -0.0666 -0.0053  0.1472
14202W        W29333  15.850   9.723   3.759  0.1175  0.0628 -0.2294
14203W        W29334  14.536   6.493  11.636  0.1585  0.2216  0.1124
14204W        W29335   6.260  17.832  14.700 -0.0502  0.0905  0.3045
14205W        W29336   8.757   7.781   5.391  0.1663 -0.3339 -0.2795
14206W        W29337  11.692  14.664  10.885 -0.0297  0.2805  0.0266
14207W        W29338  16.795   4.692   5.625 -0.3423  0.2011 -0.0255
14208W        W29339   6.412  11.531   3.643  0.0148 -0.2536 -0.0304
14209W        W29340  17.093  12.019  11.360  0.1191  0.2230 -0.0990
14210W        W29341  17.837   4.480   0.662  0.0394 -0.0277 -0.0499
14211W        W29342  12.641  13.248   3.857 -0.1608  0.0523  0.1204
14212W        W29343   1.037   1.403   3.468 -0.0292 -0.0725  0.1896
14213W        W29344   4.785  17.786   2.143  0.2435 -0.0143 -0.0698
14214W        W29345  13.258  12.605  11.180  0.0873  0.2088  0.2211
14215W        W29346   4.056  11.667   1.636  0.1452 -0.0221 -0.2055
14216W        W29347   3.524  18.100   0.450 -0.1210 -0.0362 -0.0589
14217W        W29348  15.446  17.260   2.773 -0.2457  0.2202 -0.1514
14218W        W29349  10.807  12.806  13.585 -0.0597 -0.1011 -0.0171
14219W        W29350   4.060   7.230   3.074  0.0654 -0.2757  0.1895
14220W        W29351   9.632  17.986   1.210  0.2367  0.1474  0.1596
14221W        W29352   4.929   2.197  10.417  0.2418  0.1007 -0.0977
14222W        W29353  10.557  11.059  13.647 -0.1136 -0.1789 -0.2449
14223W        W29354   2.772  13.858   1.817 -0.0529 -0.1864  0.3026
14224W        W29355  10.254   6.750  15.189  0.0547 -0.1754  0.0924
14225W        W29356   7.580  13.343   1.957 -0.1686  0.0720  0.3388
14226W        W29357   4.516  10.880  14.559 -0.2242  0.1262  0.0201
14227W        W29358  11.366   1.790   0.557  0.3250  0.0894 -0.0346
14228W        W29359  14.339  11.207   4.556 -0.1260  0.1813  0.0607
14229W        W29360   2.716   4.825   5.047  0.3496 -0.1335 -0.1126
14230W        W29361   7.055   6.389  14.349  0.1295 -0.0579 -0.2520
14231W        W29362  15.178  11.797   5.644 -0.1609  0.2442  0.1658
14232W        W29363  11.485   2.032  12.896 -0.0522  0.1815  0.0841
14233W        W29364  10.155  13.387   1.474  0.1190  0.2797  0.0707
14234W        W29365   0.601   2.765  12.668 -0.0907 -0.1690  0.0066
14235W        W29366  15.577  14.682   0.207  0.0287  0.1388 -0.0964
14236W        W29367  15.222  15.036   4.089  0.0789 -0.0815  0.2337
14237W        W29368  14.385   7.617   3.704 -0.0769 -0.0035  0.0070
14238W        W29369   8.463   8.296  11.229 -0.0809  0.1241 -0.1484
14239W        W29370  18.482   1.253  13.937  0.1380  0.0795 -0.1139
14240W        W29371   1.091  14.750  11.344  0.0127 -0.0362 -0.2041
14241W        W29372   9.420   3.195   4.830 -0.1462  0.2223 -0.4247
14242W        W29373   4.958  17.805  14.082 -0.2194 -0.2506 -0.0190
14243W        W29374  10.431   6.036   0.571 -0.0398  0.2538  0.2588
14244W        W29375   0.565  16.293   0.168 -0.1903  0.0732 -0.2288
14245W        W29376  13.929   3.111  11.010  0.0549  0.2037  0.0430
14246W        W29377   6.776  15.028  11.057  0.3207  0.0885  0.0763
14247W        W29378  16.874  10.128  12.025 -0.0093  0.3397 -0.2341
14248W        W29379   4.419   3.536  14.179  0.0607 -0.1417 -0.1656
14249W        W29380  14.853   9.568   0.229 -0.0129  0.3461  0.0609
14250W        W29381   4.269  14.398  15.155  0.0427  0.1062 -0.1943
14251W        W29382   0.616  13.060   6.140 -0.1729 -0.1532  0.0017
14252W        W29383  14.105  15.354  11.666  0.3891  0.1344  0.2934
14253W        W29384   8.918   9.272  15.671  0.1214  0.1229 -0.0234
14254W        W29385   6.298   7.270   4.255  0.1485 -0.1192  0.2840
14255W        W29386   6.496   9.383  11.237  0.0301 -0.1656 -0.1856
14256W        W29387   9.779  11.405   2.188 -0.2578  0.0930  0.4308
14257W        W29388   0.253  17.025   2.669 -0.0163 -0.0217  0.3663
14258W        W29389   3.655  16.219  13.411 -0.2139  0.3005 -0.0122
14259W        W29390   0.543   8.767   1.410 -0.2082  0.0503 -0.3250
14260W        W29391   4.005  15.121   3.165  0.0744 -0.1501  0.0078
14261W        W29392   0.118  12.665  13.683  0.1833  0.3630  0.0049
14262W        W29393   7.706  18.261  12.769  0.1025  0.0265  0.1779
14263W        W29394  16.287   8.150  14.591  0.2852  0.0898 -0.0330
14264W        W29395   9.613  12.089   3.602 -0.0061 -0.1157  0.1422
14265W        W29396  11.267   5.294   1.721 -0.0334  0.0700  0.1681
14266W        W29397   9.893  12.929   3.297 -0.0788 -0.1911 -0.1113
14267W        W29398  13.235   4.905   0.494 -0.0314  0.0288  0.1196
14268W        W29399  13.315   0.066  12.777  0.0823  0.1761  0.1924
14269W        W29400  17.247  10.902  12.303  0.0759 -0.2035 -0.1999
14270W        W29401   6.596   6.473  14.524  0.1589  0.2124 -0.1671
14271W        W29402  10.367   2.702  11.167 -0.2933 -0.1022 -0.2593
14272W        W29403  16.176  13.228  11.231  0.3211  0.0825  0.0206
14273W        W29404  11.050   8.879   4.425  0.2772  0.2158 -0.0849
14274W        W29405  12.465  11.270   5.497 -0.6967 -0.1753  0.1109
14275W        W29406   5.276   8.488   5.641 -0.0631 -0.0270 -0.1196
14276W        W29407   3.238   0.492  15.812 -0.0816  0.0526 -0.2655
14277W        W29408   3.223   0.305   2.296 -0.0470 -0.0331  0.2941
14278W        W29409  17.285  11.747  10.532 -0.1404 -0.1715 -0.0448
14279W        W29410   6.795  13.615   0.301 -0.0782  0.0356 -0.1069
14280W        W29411  13.062  14.050   1.092  0.2837  0.2582 -0.2746
14281W        W29412  13.014  11.426  14.997 -0.0290  0.2421  0.3172
14282W        W29413  17.403  15.034   5.428  0.1063 -0.1398  0.0166
14283W        W29414   4.613  13.339   4.809 -0.0956 -0.0357 -0.0110
14284W        W29415   6.827   0.560  15.087  0.0187  0.2652 -0.4029
14285W        W29416  13.653   3.863  13.543  0.0705 -0.0588 -0.2321
14286W        W29417  17.745   4.244   3.262  0.0422 -0.2478  0.2649
14287W        W29418   9.280   4.999  10.737  0.1475 -0.1873  0.0925
14288W        W29419   4.843  11.488   1.284 -0.0684 -0.0796  0.2303
14289W        W29420  11.533   3.975  10.692  0.0407  0.0154 -0.1252
14290W        W29421   6.558   2.585  13.442  0.2696  0.2825 -0.1799
14291W        W29422  18.045   6.971  12.682 -0.0068 -0.1749 -0.2858
14292W        W29423   1.345  11.393   3.436 -0.1587 -0.0478 -0.1408
14293W        W29424   2.988   3.509   1.711  0.1418 -0.1850  0.2719
14294W        W29425   3.284  13.168  13.890  0.0079  0.1060  0.1472
14295W        W29426  15.173   6.557   5.212 -0.2993 -0.0817 -0.0086
14296W        W29427  10.901  12.498   3.506  0.1395 -0.0464  0.1923
14297W        W29428   8.221  15.062  12.957  0.1400  0.0252  0.1995
14298W        W29429  14.975   4.058  12.511 -0.0415  0.0902 -0.1573
14299W        W29430   2.557   7.412   2.148 -0.0632 -0.1259  0.1128
14300W        W29431  14.638   3.612  15.101  0.0634 -0.1973  0.2982
14301W        W29432  13.083   2.571   0.058 -0.1399  0.0321 -0.1340
14302W        W29433   2.874   8.914  15.694  0.1503 -0.0821  0.4376
14303W        W29434  15.283  15.797   1.409  0.3526  0.2002  0.0688
14304W        W29435   7.582   2.573   6.409 -0.2155  0.1248 -0.4648
14305W        W29436   9.739   3.229   0.178 -0.2100  0.1660 -0.0364
14306W        W29437   4.782   0.088   2.155  0.0496 -0.1008 -0.1301
14307W        W29438   9.729  11.063   4.249 -0.0657 -0.0917 -0.1685
14308W        W29439  16.735   8.608   2.348  0.3219 -0.0733  0.0565
14309W        W29440  10.120  11.014   4.651 -0.0678 -0.1688 -0.2025
14310W        W29441  14.489   9.728   4.506  0.1230 -0.1349  0.0635
14311W        W29442   3.733   8.205   3.262  0.1218  0.3004  0.1199
14312W        W29443   2.992  13.143  10.903  0.1791  0.0253  0.0773
14313W        W29444  13.524  14.700  11.894 -0.2279  0.2302 -0.1297
14314W        W29445  16.206  16.086   4.854  0.3596 -0.1716  0.1088
14315W        W29446  13.570   7.088  12.434  0.0780 -0.0322  0.1214
14316W        W29447   0.012  10.576  15.776 -0.1456  0.0414  0.1719
14317W        W29448   2.613  11.945   3.936  0.1580 -0.0531 -0.0194
14318W        W29449  10.104  10.105   3.903  0.0660 -0.0378 -0.3484
14319W        W29450   6.962   9.620  13.968 -0.1454  0.1089 -0.0925
14320W        W29451  13.920   0.383   0.179 -0.1834  0.0752  0.0793
14321W        W29452   0.636  16.360  15.496  0.1979 -0.0330  0.1658
14322W        W29453  10.452  11.525  12.154 -0.2736 -0.1597 -0.0687
14323W        W29454  11.014  12.912   1.059 -0.0786 -0.0744 -0.2298
14324W        W29455   6.651   2.421   2.220 -0.0526 -0.1003  0.0269
14325W        W29456   2.111   1.457  15.743 -0.0771 -0.1797  0.1861
14326W        W29457   6.245  14.449   0.094 -0.1530  0.2009 -0.0306
14327W        W29458   1.803  13.031   4.682 -0.0213 -0.2321  0.0559
14328W        W29459  17.624  14.623   3.918  0.1441 -0.2446  0.0132
14329W        W29460   4.859  13.221  11.313 -0.2120  0.1119 -0.1739
14330W        W29461   5.013  16.986  15.349  0.2021  0.0929 -0.0022
14331W        W29462   0.366  12.033   4.706  0.2513 -0.2261  0.0987
14332W        W29463   2.332   3.689  13.944  0.1150 -0.2145 -0.0038
14333W        W29464   3.438  14.371   3.938 -0.2399  0.1584  0.2437
14334W        W29465   4.368  15.023  11.116  0.1468 -0.1020 -0.0405
14335W        W29466   6.849  14.254  15.392  0.1142  0.3482 -0.3337
14336W        W29467  11.716  16.165  10.947  0.1218 -0.1545 -0.2424
14337W        W29468   1.269   1.640  12.195 -0.2573  0.2932 -0.2024
14338W        W29469   0.704   8.084   0.840  0.0834  0.2401 -0.1066
14339W        W29470  13.694   0.185  12.209  0.0583 -0.1100  0.0991
14340W        W29471  17.916   9.264   4.395 -0.3749 -0.1432  0.0041
14341W        W29472  14.956  18.215   2.142 -0.1580  0.0313 -0.0057
14342W        W29473   3.511   5.244   2.711  0.0429  0.0296 -0.0959
14343W        W29474   0.107  13.880   5.322  0.1631 -0.1633  0.0932
14344W        W29475   2.507   2.328   3.793 -0.1529 -0.2892 -0.0782
14345W        W29476  15.443   6.828   2.733  0.0596 -0.0456  0.2657
14346W        W29477  10.644  17.804   3.961  0.0065  0.2244  0.0148
14347W        W29478   9.005  17.986   0.873 -0.1695  0.2016  0.1673
14348W        W29479  13.474  17.518   4.347  0.3073  0.3085  0.0502
14349W        W29480  18.197   5.064  14.668  0.0084 -0.0229  0.0189
14350W        W29481   6.220   1.839  15.082  0.0294  0.1309  0.0825
14351W        W29482   6.083   6.743   3.173  0.0178 -0.1714  0.0395
14352W        W29483   8.271   6.178   3.401  0.0183 -0.0322  0.0194
14353W        W29484  10.948   6.226   2.622 -0.1236  0.2929  0.2487
14354W        W29485  14.809   1.153   4.013 -0.0618 -0.2906 -0.0857
14355W        W29486   4.570   4.298  13.629  0.3248 -0.1849 -0.2110
14356W        W29487   1.421  13.837  11.779  0.4493 -0.1121 -0.2672
14357W        W29488   5.573  17.571   1.853  0.3597 -0.1788 -0.1155
14358W        W29489   3.854   2.444   3.902  0.2005  0.4003 -0.2581
14359W        W29490   3.801   7.085   4.598 -0.0319 -0.0586  0.2331
14360W        W29491  10.505   0.325   2.330 -0.2045 -0.1799  0.1548
14361W        W29492   8.742   9.809   4.005  0.0391 -0.2081  0.0119
14362W        W29493   2.296  14.737   2.237  0.1540  0.1594 -0.1435
14363W        W29494   3.522   4.473   4.358  0.1212  0.2155 -0.0334
14364W        W29495   2.724   2.275   2.880 -0.0355 -0.1524  0.0587
14365W        W29496   5.515   3.616   2.004 -0.1099  0.1564  0.2417
14366W        W29497   5.860  15.346   0.068  0.6760 -0.0800 -0.2062
14367W        W29498   1.350   7.166   5.286 -0.1173  0.2060  0.1499
14368W        W29499  16.056   0.813   3.529 -0.0534 -0.0327  0.2182
14369W        W29500  11.318   2.293  11.039  0.2863  0.3115 -0.1707
14370W        W29501  13.582   7.472   0.666 -0.1267  0.0819 -0.2223
14371W        W29502   2.023   8.837   3.281  0.1768 -0.0226  0.1667
14372W        W29503   1.822  16.150  14.980 -0.0911 -0.0346 -0.0164
14373W        W29504   7.634   4.836  12.362 -0.1698  0.2185 -0.4344
14374W        W29505  13.292   1.693  15.503 -0.0563 -0.1945 -0.1773
14375W        W29506  18.140  12.760   1.188 -0.3715  0.1250  0.4704
14376W        W29507   0.059  17.447  14.179 -0.2346  0.1678 -0.1964
14377W        W29508  10.934  10.296   0.221  0.2040  0.2223  0.2448
14378W        W29509  18.093  10.117   2.485  0.0513  0.0421 -0.2353
14379W        W29510   3.899  17.094   0.433  0.0410  0.2065 -0.1206
14380W        W29511   0.035  14.352  13.530  0.4452 -0.0967 -0.0441
14381W        W29512  16.649   9.543   5.214  0.2630 -0.0047 -0.1123
14382W        W29513   0.792  13.539  12.496 -0.0448  0.2306 -0.1836
14383W        W29514  14.649  10.612   4.047 -0.0002 -0.1329 -0.0765
14384W        W29515   8.660   4.109   3.095 -0.0771 -0.3239  0.0974
14385W        W29516   2.276   0.945  15.115  0.1510 -0.0258  0.2171
14386W        W29517  13.818   8.924   4.116  0.2743 -0.0353 -0.1207
14387W        W29518  17.831   9.847  11.196 -0.1899  0.3287  0.0077
14388W        W29519   7.752   5.163  15.329  0.0113  0.0842  0.1091
14389W        W29520   0.853  11.059  12.635  0.0224 -0.0705 -0.2096
14390W        W29521   5.654  18.134  10.652 -0.1851  0.0183  0.0587
14391W        W29522  13.113  16.223  13.900 -0.1030 -0.0575 -0.3009
14392W        W29523  15.145   9.090  10.207  0.1404 -0.0824 -0.0031
14393W        W29524  17.618   0.168  15.156  0.3761 -0.1058 -0.0528
14394W        W29525   4.592   9.551  12.692  0.0290  0.0824  0.0663
14395W        W29526  16.802  18.166   2.023 -0.0663 -0.2548  0.1768
14396W        W29527  15.623  17.295   0.298 -0.0302  0.0955 -0.1450
14397W        W29528   8.129  14.983   2.321 -0.0125 -0.1119  0.2515
14398W        W29529   5.687  15.045  15.071 -0.1722 -0.1100 -0.2027
14399W        W29530  12.424  11.950  14.554 -0.0708 -0.0672  0.2263
14400W        W29531   8.102  13.532   3.282  0.1587 -0.1765  0.0356
14401W        W29532   7.299  16.984   1.132 -0.1089  0.1478 -0.1707
14402W        W29533  17.449  11.532   5.796  0.4876  0.0849 -0.4423
14403W        W29534  10.107  13.340   4.063  0.1497 -0.0126 -0.0229
14404W        W29535  10.002  12.401   5.019 -0.0257 -0.0622 -0.1710
14405W        W29536   4.815  18.436  10.658 -0.0005  0.0375 -0.1620
14406W        W29537   0.952  15.875   4.271  0.0297  0.2339  0.1739
14407W        W29538  13.662   7.748   2.115 -0.2637 -0.3446  0.1931
14408W        W29539   5.046  14.045   1.359  0.0386  0.3337 -0.1149
14409W        W29540   9.932  14.816   3.297  0.0621  0.0407 -0.2788
14410W        W29541   5.224  11.748   5.128  0.3198 -0.1915 -0.0058
14411W        W29542  12.808   2.771   3.268  0.2308  0.2152  0.0169
14412W        W29543  13.896  16.563  12.069 -0.0817  0.2155  0.0834
14413W        W29544   1.998   9.795   3.626  0.1190 -0.0504 -0.1260
14414W        W29545   4.328  15.962  14.061 -0.2142 -0.1134 -0.0328
14415W        W29546   5.687   0.246   4.062  0.2451  0.2908  0.0924
14416W        W29547   1.426   8.578   5.523  0.0246  0.1106  0.2600
14417W        W29548  12.425  14.426   3.953  0.0339  0.0596 -0.2723
14418W        W29549   7.232   5.907  10.705 -0.1032  0.3053  0.0413
14419W        W29550  15.413   2.052   4.070  0.3756  0.0117 -0.0481
14420W        W29551   4.230   7.711   4.070 -0.4948  0.0060 -0.1538
14421W        W29552   4.546   3.352  12.245  0.1076 -0.0017 -0.0130
14422W        W29553   9.975   5.309   0.301 -0.3631  0.1972 -0.1621
14423W        W29554   7.151  18.473  14.074  0.1519  0.0634  0.1756
14424W        W29555   5.860   6.928   4.080  0.1775  0.1344 -0.2348
14425W        W29556  15.542   7.703  12.857 -0.1487 -0.0705  0.0342
14426W        W29557  10.153  18.084  15.458 -0.1306  0.1483 -0.2253
14427W        W29558  16.197   6.521  15.170 -0.0297  0.1068 -0.2160
14428W        W29559  10.805  17.203   1.740 -0.2405 -0.1445  0.2426
14429W        W29560  16.987  15.035   0.568  0.1033  0.5618 -0.3654
14430W        W29561   5.733  14.847   1.874 -0.1815 -0.3751 -0.0526
14431W        W29562   5.438  11.130   0.487 -0.2191  0.1987  0.2968
14432W        W29563   4.142  13.925   5.264  0.2801 -0.4972  0.0632
14433W        W29564   1.165  15.681   2.716 -0.1502 -0.0414 -0.4039
14434W        W29565   6.469   0.454  13.815 -0.0969 -0.1422  0.2104
14435W        W29566  17.887  18.490   3.842 -0.0919 -0.1145  0.1534
14436W        W29567  18.326  11.920  12.255  0.2794  0.4716 -0.1537
14437W        W29568   6.122  17.367  10.626 -0.0101  0.2086  0.1113
14438W        W29569  16.276  10.630  13.111  0.0657  0.1744 -0.0677
14439W        W29570  15.227  12.344   5.691 -0.1493  0.1827 -0.1836
14440W        W29571   1.512   1.573  15.521 -0.0564  0.0339 -0.2932
14441W        W29572  14.259  17.176   0.326  0.1534  0.0461  0.0609
14442W        W29573   2.641  10.066   3.156 -0.1800  0.1082  0.1046
14443W        W29574   1.887  10.373  14.994 -0.0120 -0.0544  0.0267
14444W        W29575  13.591   4.422  13.205 -0.0815  0.0946 -0.1615
14445W        W29576   0.409  12.390  15.773 -0.0914 -0.0614 -0.1043
14446W        W29577   5.656  15.021  10.066  0.0566  0.2355  0.2633
14447W        W29578   3.475   7.961  12.792  0.2399  0.0619  0.4489
14448W        W29579   3.001   3.864   4.789 -0.0235  0.0459 -0.0026
14449W        W29580  17.138   0.511  10.991  0.2317  0.2045  0.3391
14450W        W29581  13.213  13.069   3.833 -0.2448  0.0475  0.2996
14451W        W29582   4.961   8.847   3.817 -0.2081 -0.0001  0.1471
14452W        W29583  16.754   8.782  15.762  0.1060  0.0011 -0.3342
14453W        W29584  12.160  15.022   4.580 -0.1517  0.2759 -0.1168
14454W        W29585   8.386  17.767  10.293 -0.0623  0.1326  0.0108
14455W        W29586  18.513  17.089  11.156  0.1142 -0.1088  0.1643
14456W        W29587  18.259   1.000   5.560 -0.2524 -0.1844  0.2154
14457W        W29588  15.746  11.312  15.529  0.1047  0.1934  0.4193
14458W        W29589  10.186   9.228   4.008  0.1453 -0.0949  0.0525
14459W        W29590   2.280   0.229  11.815 -0.1431 -0.1174 -0.1147
14460W        W29591  14.744   7.975  13.310  0.1698 -0.3670  0.1044
14461W        W29592   4.042  15.014   1.233 -0.2880 -0.2607 -0.0933
14462W        W29593   7.255   7.116   1.454  0.1722 -0.1418 -0.0120
14463W        W29594   7.729  11.089  14.780  0.3080 -0.3215 -0.1491
14464W        W29595   5.301  10.319  13.117 -0.0089 -0.0008  0.3425
14465W        W29596  11.093  18.183  14.547 -0.2544 -0.0087 -0.1351
14466W        W29597  12.985  10.377   3.091 -0.2682  0.1715  0.3902
14467W        W29598   0.286   6.371  13.781  0.0587 -0.0320 -0.0840
14468W        W29599  15.784   1.819   5.282  0.2084 -0.0522  0.0248
14469W        W29600   8.314  16.084  14.798  0.0534 -0.0750 -0.1360
14470W        W29601  11.893   9.196  11.173  0.0273  0.0697  0.0444
14471W        W29602  10.255   3.349  14.369 -0.1299  0.1225 -0.1231
14472W        W29603  15.504   0.781  11.603 -0.0315  0.4827  0.0579
14473W        W29604  16.813  13.252  10.609  0.2436  0.1108 -0.0801
14474W        W29605  11.479   9.705   3.545  0.2337  0.0531  0.1712
14475W        W29606   4.011   9.784  15.182 -0.2654  0.2801  0.1720
14476W        W29607   5.512  11.361   2.719 -0.2795 -0.1838 -0.0658
14477W        W29608  14.607   4.694  11.216 -0.2480  0.0990 -0.1302
14478W        W29609   0.872  17.745   1.078  0.0240  0.0831  0.1899
14479W        W29610   7.763   8.212   4.182 -0.0523  0.1342 -0.2028
14480W        W29611   9.910   0.439   4.619 -0.0337 -0.1607 -0.1426
14481W        W29612  17.589  15.099  11.977 -0.1078  0.0900 -0.1711
14482W        W29613   6.936   2.704  11.329  0.1261 -0.0511 -0.2801
14483W        W29614  15.648  11.396   1.012 -0.0999  0.3814 -0.2276
14484W        W29615   9.419   2.062  15.192 -0.2317  0.1346  0.0880
14485W        W29616   2.535   8.279   2.532 -0.4380  0.1378 -0.0679
14486W        W29617  18.034   7.325  12.316 -0.0851 -0.1350  0.1396
14487W        W29618   9.119  12.359  13.725 -0.0463 -0.0440  0.1574
14488W        W29619  10.564  11.998  13.815  0.0603  0.0101  0.0644
14489W        W29620   2.426  13.022   3.390  0.0692  0.1919 -0.4249
14490W        W29621   0.276   9.691   5.173 -0.0604 -0.2321  0.1704
14491W        W29622  17.592  17.569   4.196  0.4679  0.0649  0.0201
14492W        W29623   7.569   8.341   1.202  0.1207 -0.0356  0.0228
14493W        W29624   2.163   5.191   0.759  0.0523  0.0114  0.1839
14494W        W29625  16.732  15.862   2.301 -0.0357 -0.0793 -0.0956
14495W        W29626   4.270  12.321  14.769  0.0253  0.3179 -0.2077
14496W        W29627  14.766  12.509  11.028 -0.0620  0.0769  0.1516
14497W        W29628  12.734   7.303   5.238  0.0112 -0.1360  0.0919
14498W        W29629   0.001   5.955  14.865 -0.0082  0.1209 -0.2051
14499W        W29630  12.669  14.826   1.243  0.2774 -0.1905  0.0648
14500W        W29631   3.925   7.964   4.390  0.2064  0.0307 -0.1428
14501W        W29632  10.791   4.168  15.245 -0.0247  0.0352 -0.1846
14502W        W29633   7.018   9.460   3.716 -0.1837 -0.1468 -0.0445
14503W        W29634  18.110  10.297  12.151  0.0279  0.2334 -0.2230
14504W        W29635  15.198   9.187  12.581 -0.1503 -0.0140  0.1174
14505W        W29636   0.864   7.603   0.845 -0.1861  0.3221 -0.0100
14506W        W29637  10.870  12.556   9.927 -0.1731  0.0485  0.0026
14507W        W29638  13.369   4.579  12.072  0.2525  0.1237  0.0499
14508W        W29639  12.050   7.934   5.231  0.5040  0.0592  0.1703
14509W        W29640   6.334   6.788  10.994  0.1790  0.2898  0.1502
14510W        W29641  17.489  14.988   1.339 -0.1804  0.5408  0.1199
14511W        W29642  13.435   3.935   5.069 -0.1527  0.4144 -0.2813
14512W        W29643  10.389   6.922   0.982  0.0958  0.1091  0.2538
14513W        W29644  11.527  17.600  12.768 -0.1092  0.0707  0.4529
14514W        W29645   6.399   1.891   3.045 -0.0680 -0.1198 -0.2510
14515W        W29646   0.594   7.174   2.088 -0.0241 -0.0534 -0.0076
14516W        W29647   3.644  13.501   3.894 -0.0842 -0.3893  0.2068
14517W        W29648  16.165   6.242   5.000 -0.2248  0.0371 -0.2593
14518W        W29649  12.632   8.672   2.314 -0.3675  0.1164  0.2037
14519W        W29650  11.146  15.543   2.367  0.1215  0.0090 -0.2155
14520W        W29651  13.741  12.311  14.090 -0.1423 -0.0637 -0.2669
14521W        W29652  10.068   1.249   3.637  0.0969  0.2329 -0.1088
14522W        W29653   7.936   4.864  14.708 -0.3621 -0.3439 -0.0388
14523W        W29654  16.375  16.070   2.604  0.0883  0.0147 -0.2035
14524W        W29655   2.530   6.185   2.469 -0.0127 -0.0417  0.1258
14525W        W29656  16.380   2.090  12.169 -0.0759  0.1652 -0.0628
14526W        W29657   3.250  17.666   0.444 -0.1720 -0.0232 -0.0625
14527W        W29658   0.582   7.158  12.639  0.1427 -0.4300 -0.2797
14528W        W29659  16.227  14.062   2.904  0.1280  0.2003  0.0917
14529W        W29660  16.923   1.286  12.308  0.0835 -0.3932 -0.0852
14530W        W29661   2.407  14.679  15.777  0.3851 -0.1333 -0.2777
14531W        W29662   2.278   6.778   4.190  0.1524  0.0206 -0.3012
14532W        W29663  15.579   3.956   0.602 -0.2891  0.2862 -0.0425
14533W        W29664   0.814  16.872   4.039 -0.0051  0.1430  0.0561
14534W        W29665  17.540   3.877   0.197  0.1039  0.2050 -0.2898
14535W        W29666  16.857   7.464   5.577 -0.1628  0.3004  0.3288
14536W        W29667   3.096   7.451  14.156 -0.3250 -0.0257 -0.1103
14537W        W29668  16.132   7.814   2.675  0.2293 -0.0644  0.1159
14538W        W29669   6.923   1.115  11.869  0.1256 -0.0478  0.1308
14539W        W29670   4.260   1.337   2.230 -0.1383  0.0495  0.2160
14540W        W29671   0.524   9.311   5.669 -0.0059  0.2214  0.2275
14541W        W29672   2.318  10.016   2.748 -0.0911 -0.0733  0.1622
14542W        W29673  16.643   5.582   0.712 -0.1885  0.1905  0.0949
14543W        W29674   3.840   2.248   3.449  0.0186  0.0437 -0.3492
14544W        W29675  14.492  15.506   5.207  0.0156 -0.1799 -0.0699
14545W        W29676   5.374  17.134   2.077 -0.1289  0.0038 -0.1906
14546W        W29677   1.955   6.123  11.946 -0.0760  0.1387  0.3852
14547W        W29678  12.953   2.816  11.659 -0.1654  0.0053  0.2565
14548W        W29679   9.252   3.809   9.814  0.1621 -0.0695  0.0688
14549W        W29680   5.153  17.220  12.296  0.1757  0.2932 -0.0927
14550W        W29681  15.341  13.421   5.889 -0.3342  0.2438  0.1609
14551W        W29682  11.829   5.519  13.670  0.1620 -0.1074  0.1417
14552W        W29683   7.139  17.377  14.165 -0.1998  0.0585 -0.0226
14553W        W29684   9.872   9.359  13.123 -0.3002  0.2097  0.2742
14554W        W29685   0.005   3.617  15.206 -0.1280  0.0224  0.0950
14555W        W29686  13.541  18.188   2.686  0.1712 -0.1976 -0.1106
14556W        W29687   5.427  13.548   2.122  0.2818 -0.0935 -0.1119
14557W        W29688  16.612   7.734   2.750 -0.0650 -0.2577 -0.2954
14558W        W29689  11.478   0.574   1.292  0.0584 -0.0307  0.3991
14559W        W29690  15.822   2.713   2.979 -0.1074  0.1676  0.0771
14560W        W29691  10.262   2.890  12.715 -0.1261 -0.0308 -0.2388
14561W        W29692   3.149   9.384   5.498 -0.0113  0.3250  0.2231
14562W        W29693   5.323   9.607  11.324  0.0376  0.2579 -0.0092
14563W        W29694   9.501   5.623   1.795  0.2090 -0.2371 -0.1045
14564W        W29695   9.508  14.729   2.951 -0.0261  0.2799 -0.0834
14565W        W29696  10.534   3.776   1.113  0.2247  0.1071  0.2191
14566W        W29697  14.491  14.395   4.008  0.1023  0.4305  0.0818
14567W        W29698   8.966   2.057  15.331  0.2531 -0.0255 -0.0361
14568W        W29699   8.239  11.772  14.614 -0.0773 -0.1362 -0.2830
14569W        W29700  13.585  12.131  11.927  0.0286  0.1354 -0.0616
14570W        W29701  10.319  14.461   1.465  0.0659  0.2338 -0.4228
14571W        W29702   2.619  13.327   5.437  0.0302  0.2273 -0.2049
14572W        W29703  17.282   6.549   0.100 -0.1864 -0.1422  0.0037
14573W        W29704   0.806   1.568  13.104 -0.0385  0.1069 -0.2021
14574W        W29705   7.384   7.484   5.467 -0.0429  0.2799  0.0250
14575W        W29706  14.524  14.979   9.448 -0.1906 -0.1509  0.0593
14576W        W29707  15.473  11.998   4.719 -0.2627  0.0782 -0.2142
14577W        W29708  12.385  17.562   5.037 -0.1231 -0.0602 -0.3002
14578W        W29709   4.111   5.218   4.286  0.1253 -0.0371  0.0803
14579W        W29710   5.275  17.193   3.854  0.0153 -0.0608 -0.2510
14580W        W29711  12.700   9.906   0.374  0.1511 -0.0103 -0.0959
14581W        W29712  11.254   1.599   4.137 -0.1626  0.3779  0.1335
14582W        W29713   0.430   6.062   3.083  0.0542  0.3368  0.0999
14583W        W29714  18.134  17.712   0.299  0.1287  0.0350 -0.2159
14584W        W29715   0.000   1.596   1.177 -0.2990  0.1109 -0.1185
14585W        W29716  12.669  16.234  14.643 -0.3290 -0.0764  0.3336
14586W        W29717   8.125  14.126  11.551 -0.0890 -0.0142  0.0342
14587W        W29718   5.001  12.262   4.045  0.2768  0.3222  0.0907
14588W        W29719  16.830  16.646   4.952  0.0109 -0.0056 -0.2080
14589W        W29720  12.565   2.835   9.981  0.0023 -0.0097  0.2772
14590W        W29721   8.748   5.318  10.911 -0.0170  0.0228 -0.0590
14591W        W29722   2.447  13.217  12.050 -0.0336  0.2325 -0.0795
14592W        W29723   7.292  13.998  14.938 -0.2382  0.0893 -0.0612
14593W        W29724  17.366   8.049   1.206  0.0868 -0.3241 -0.1850
14594W        W29725  14.589   8.533   0.399  0.0998 -0.2555  0.0659
14595W        W29726   1.866  17.615  11.313  0.6030  0.3120 -0.0404
14596W        W29727  12.098  15.539  14.445  0.1739 -0.0031  0.0118
14597W        W29728  16.204  17.782   4.392  0.3862  0.0103 -0.1841
14598W        W29729   9.392  17.808   4.048 -0.0553  0.0254  0.2677
14599W        W29730  11.777  11.700   0.179  0.0156  0.0960  0.0210
14600W        W29731   3.347   3.510   1.342  0.0798 -0.3317 -0.0752
14601W        W29732  14.684   0.001   6.263 -0.1886 -0.0304 -0.2014
14602W        W29733  12.071   5.980   3.935 -0.0527  0.2185  0.1325
14603W        W29734   8.080   5.573  15.648 -0.2015  0.1261 -0.2256
14604W        W29735   3.884   9.817   3.704 -0.0927 -0.0259 -0.1782
14605W        W29736   5.798  11.401   5.061  0.0081 -0.1534  0.0083
14606W        W29737   3.814   7.524  11.775  0.0186 -0.1450 -0.0391
14607W        W29738  17.146   9.771  12.784 -0.1328 -0.0847  0.1099
14608W        W29739   6.565  10.077   2.076  0.2485 -0.0813 -0.2120
14609W        W29740  18.210   0.386   3.751 -0.1691  0.1965 -0.0486
14610W        W29741   9.393   5.886   4.254  0.0260  0.1345 -0.0002
14611W        W29742   3.854   9.993  15.642 -0.0087  0.1528  0.0121
14612W        W29743   9.176  17.890   1.925 -0.2282  0.0215 -0.0741
14613W        W29744  12.608  13.261  15.842 -0.1473 -0.0652  0.0455
14614W        W29745   0.584   6.643   5.646  0.2060  0.2575 -0.2842
14615W        W29746   3.604   9.629  14.554  0.2154 -0.0830 -0.0561
14616W        W29747   7.768  18.138   2.783  0.1523 -0.1683 -0.2851
14617W        W29748  16.730  15.784  13.497 -0.2648 -0.0683 -0.0363
14618W        W29749   9.119   0.238   3.775  0.1813  0.0942  0.0273
14619W        W29750   9.951   2.858   3.303  0.0150 -0.0576  0.3747
14620W        W29751   7.417   6.181  13.080  0.2873 -0.1394  0.0698
14621W        W29752   6.871  14.465  12.698  0.2635 -0.1605  0.2050
14622W        W29753  12.388  10.967  15.312  0.2314 -0.1949  0.0143
14623W        W29754  15.279   7.126   2.338  0.2300  0.0092  0.0789
14624W        W29755  10.970   1.116  15.773  0.0399  0.0295  0.0622
14625W        W29756  11.345  11.066   1.825  0.1622  0.1801  0.1778
14626W        W29757  11.002  11.052   2.836 -0.1761 -0.1031 -0.0565
14627W        W29758  12.130   6.975   0.932 -0.1812  0.3659  0.4254
14628W        W29759   7.066   0.144  10.996  0.1999  0.1662  0.1528
14629W        W29760   3.653   8.543   4.394  0.2087  0.1404 -0.0630
14630W        W29761   9.353   5.472   4.531 -0.0425 -0.0370  0.2678
14631W        W29762   9.299   7.035   1.972  0.1886 -0.1391  0.0345
14632W        W29763  17.053   6.667  15.512 -0.2812 -0.0370  0.1529
14633W        W29764   6.764   9.067   0.496 -0.1013  0.0532  0.0051
14634W        W29765   3.101  14.593   1.215 -0.0851 -0.0391  0.0634
14635W        W29766   0.581   8.117  12.094  0.0002 -0.1867  0.0698
14636W        W29767  16.551   0.340   1.132 -0.0090 -0.0277  0.1309
14637W        W29768   5.134   6.207  11.277  0.3548 -0.1653 -0.0568
14638W        W29769   4.841  16.999  13.535 -0.2373  0.0044 -0.0201
14639W        W29770  15.136   0.103   4.216 -0.0972  0.0577  0.2365
14640W        W29771  11.480  15.624  14.484 -0.0977 -0.2032 -0.0968
14641W        W29772  12.853   0.051  13.470  0.0231 -0.2035  0.0109
14642W        W29773  15.593  18.267   5.153 -0.3742 -0.0929 -0.1573
14643W        W29774   1.698   9.050  15.731  0.0577 -0.2874  0.1396
14644W        W29775   8.549   0.426  10.373  0.0552 -0.2010 -0.1201
14645W        W29776  11.417   5.588   4.068  0.0325 -0.0682  0.0654
14646W        W29777  11.472   1.602  13.308  0.1869  0.0765 -0.0746
14647W        W29778  14.891  12.117   5.359  0.1765  0.0156 -0.3791
14648W        W29779   7.297   1.709   1.611 -0.3462 -0.1345  0.1189
14649W        W29780  13.041   3.657  12.460 -0.0284 -0.4159  0.0299
14650W        W29781   3.929  17.885  12.997 -0.0336  0.0004 -0.4030
14651W        W29782   0.713   4.794  12.480  0.1450  0.2851  0.1547
14652W        W29783   2.299   3.873   3.692 -0.3205 -0.3065  0.1757
14653W        W29784   5.759  10.670   6.024  0.2382  0.1567  0.1359
14654W        W29785  13.292   2.283   6.064  0.2445  0.3499  0.3732
14655W        W29786   9.173  11.356   2.507  0.2085 -0.0189 -0.1259
14656W        W29787  13.851   2.593  12.456  0.1413 -0.1077 -0.2633
14657W        W29788  11.883   5.483  14.718  0.2156  0.2473 -0.0911
14658W        W29789  17.186   5.009  13.519  0.6426  0.2236  0.3499
14659W        W29790  18.053  15.668   0.465 -0.1259 -0.1305 -0.1000
14660W        W29791  17.443  13.137   3.956 -0.0331 -0.0595 -0.2151
14661W        W29792  16.779   9.223  11.942  0.2936  0.1229 -0.1460
14662W        W29793  14.247   8.781  13.609  0.3589  0.0556  0.0318
14663W        W29794  10.001   5.281  13.341  0.1380 -0.1021 -0.2164
14664W        W29795   7.262   0.837   2.808 -0.2277 -0.2751 -0.0742
14665W        W29796   8.357   3.447  11.322  0.1641  0.1978  0.1889
14666W        W29797   4.429  13.793  13.425 -0.2803 -0.1216  0.0442
14667W        W29798  16.041  16.481   3.896  0.2197 -0.4011  0.1762
14668W        W29799  14.171   8.236   4.190 -0.2851 -0.0930 -0.2813
14669W        W29800   4.947  18.120   0.984  0.3124 -0.1851 -0.2053
14670W        W29801  17.032  18.225   1.570 -0.1704 -0.0341 -0.1322
14671W        W29802   8.503  13.144  11.950 -0.0099 -0.1027 -0.0597
14672W        W29803  11.389  16.097  15.575 -0.3366 -0.1300 -0.2237
14673W        W29804   4.907  14.320  14.941  0.0869  0.0344  0.1331
14674W        W29805   1.599   1.829  13.398  0.1213  0.2240 -0.2186
14675W        W29806   0.790  13.210  14.066 -0.2041 -0.2153  0.1602
14676W        W29807   4.771  14.212   1.933  0.3198 -0.1331  0.1143
14677W        W29808   6.878   3.698  14.705 -0.0841  0.0182 -0.1288
14678W        W29809  16.806   5.296  15.071  0.0225  0.1194 -0.2047
14679W        W29810  14.007   7.344   2.832  0.4006  0.2680  0.0719
14680W        W29811  11.050  16.727   0.718 -0.1442  0.3231  0.2437
14681W        W29812   8.995  11.596   5.718  0.1202  0.1719  0.2331
14682W        W29813  13.900   5.276  13.485 -0.1964  0.1242  0.1707
14683W        W29814   0.527  10.945  14.632  0.0640 -0.2961  0.1642
14684W        W29815  16.789  14.489  11.382  0.1058  0.2970 -0.5658
14685W        W29816   9.257   0.174  10.711  0.5079  0.1401  0.0571
14686W        W29817  13.810   2.262   5.066 -0.0198  0.1536 -0.0941
14687W        W29818   1.504   6.458  14.437 -0.0396  0.0961  0.0751
14688W        W29819   1.805   4.181   5.410 -0.3229 -0.1131  0.0624
14689W        W29820   3.440   5.330  12.719 -0.0651 -0.1773 -0.3850
14690W        W29821   7.310   9.135   0.553 -0.2983  0.0056 -0.2847
14691W        W29822  13.198   5.393  13.242 -0.6170  0.1338 -0.0438
14692W        W29823   1.936  16.672  10.807 -0.2182  0.1534  0.1832
14693W        W29824   8.424   0.697   2.814 -0.2069 -0.1024  0.1658
14694W        W29825   5.032   2.866   4.889 -0.2481 -0.2051  0.1957
14695W        W29826   4.405   7.770   3.591 -0.0538  0.1007  0.0162
14696W        W29827   3.113  11.375  11.360  0.3254 -0.2488 -0.2999
14697W        W29828  14.893   1.438   5.849 -0.0479 -0.1695  0.1975
14698W        W29829  18.237   4.930   0.586  0.3072  0.1696  0.0729
14699W        W29830   2.936  16.592  11.181  0.0245  0.0781 -0.0820
14700W        W29831   7.508  12.264  15.678 -0.4378  0.3051  0.3135
14701W        W29832  17.284  10.715   4.001 -0.0432  0.3054 -0.0587
14702W        W29833  16.907  12.875   4.901  0.0367  0.1536  0.3030
14703W        W29834   7.529  12.343   1.323  0.2425  0.2298  0.2943
14704W        W29835  12.864   3.163  15.265  0.0346  0.0650 -0.0691
14705W        W29836  15.768   0.919   0.368 -0.2449 -0.4406 -0.0645
14706W        W29837  14.005  14.786  11.611 -0.1046  0.0624  0.1077
14707W        W29838   5.485  11.335   3.415  0.0254  0.0393 -0.0625
14708W        W29839  17.842  15.391   2.966  0.3623  0.2390 -0.0777
14709W        W29840  17.524   6.791   2.621  0.0507  0.2682 -0.2501
14710W        W29841   3.188   2.255  12.766 -0.3243 -0.1404  0.1420
14711W        W29842   1.150   4.244  10.230  0.2567 -0.0190 -0.1085
14712W        W29843   9.638  15.735   3.226 -0.0801 -0.0587 -0.2691
14713W        W29844   6.585   8.268  13.933 -0.1465 -0.1488  0.1543
14714W        W29845   3.685  18.170   0.930 -0.2981  0.0271  0.2411
14715W        W29846   5.879   6.249  11.735 -0.1914 -0.1638 -0.0686
14716W        W29847   7.441   1.912  14.618  0.0945 -0.1481  0.2796
14717W        W29848  18.374  13.532  14.116 -0.0011 -0.2709  0.1767
14718W        W29849   5.456  15.336   1.923 -0.1709 -0.0769 -0.0939
14719W        W29850  10.410   5.917   6.145 -0.3311  0.0440  0.2184
14720W        W29851  12.823   7.142   0.437  0.2423  0.2384  0.1204
14721W        W29852  16.507   6.843  14.333 -0.1818 -0.2602 -0.0330
14722W        W29853  16.380   6.568   1.895 -0.0972 -0.0675  0.1411
14723W        W29854  13.459  15.798  13.999  0.0605  0.1912 -0.2430
14724W        W29855  13.605  17.086  13.857  0.1418 -0.0487 -0.2275
14725W        W29856   1.664  13.125   1.865 -0.1693 -0.0253 -0.1880
14726W        W29857   3.533  15.704  15.192  0.0408 -0.0110 -0.0387
14727W        W29858   7.837   8.811   4.302  0.2649  0.0705 -0.0199
14728W        W29859   8.436   1.676  11.246  0.0278 -0.0118 -0.1763
14729W        W29860  14.908   8.787  11.769 -0.0265  0.1325 -0.1877
14730W        W29861  11.211   7.917   3.735 -0.3112 -0.0697 -0.0946
14731W        W29862   0.251  12.940   5.364 -0.2234 -0.1952  0.3899
14732W        W29863   2.307   6.583  10.915  0.0426  0.0450 -0.2688
14733W        W29864  12.790   8.115   4.546  0.2214  0.0779  0.0471
14734W        W29865   3.630  16.021  12.412 -0.0285 -0.0819 -0.0209
14735W        W29866  18.363   6.925  10.957  0.2666  0.1173  0.1956
14736W        W29867  12.886   6.556  10.524  0.1953 -0.2779 -0.0704
14737W        W29868  13.806  15.408   1.126  0.1942 -0.2971  0.2095
14738W        W29869  10.939   0.182  11.649  0.0261 -0.0906  0.0669
14739W        W29870   5.859   6.138   2.596  0.0931 -0.1396  0.0662
14740W        W29871  17.028  16.002   6.171 -0.0105 -0.1392  0.0882
14741W        W29872  11.806  14.810  11.367 -0.1949  0.2296 -0.2754
14742W        W29873  10.588   3.340   5.509 -0.1768  0.0114 -0.0157
14743W        W29874  18.357  12.845  15.799 -0.1885  0.0387 -0.0084
14744W        W29875  18.398   8.429   0.839 -0.2260  0.0860  0.0956
14745W        W29876  11.789  13.945  11.643  0.2771 -0.2230 -0.0727
14746W        W29877   6.542   7.702   3.652 -0.3546 -0.1675  0.0466
14747W        W29878   0.479   0.525  13.823 -0.1747  0.0014 -0.0160
14748W        W29879  15.855   3.566   0.606 -0.0377  0.2794  0.3754
14749W        W29880  10.891   7.787   3.281  0.0043 -0.2769 -0.0062
14750W        W29881   5.660  15.831  10.543 -0.1973  0.0236  0.2191
14751W        W29882   0.996  11.821   6.754  0.0471 -0.3037 -0.1269
14752W        W29883   2.685   3.632  12.511  0.3196 -0.3613 -0.0919
14753W        W29884  11.953  16.860  12.420 -0.1731 -0.3619 -0.1437
14754W        W29885  17.608  15.904   1.776 -0.2609  0.0363 -0.1930
14755W        W29886  12.943  15.565  10.015 -0.0406 -0.1864 -0.1871
14756W        W29887   4.892   8.966  15.523 -0.3142 -0.1744 -0.2049
14757W        W29888   8.774  13.177  12.405  0.0389  0.2706 -0.0741
14758W        W29889   0.689  12.776  11.810 -0.2151 -0.1413  0.0383
14759W        W29890  14.933  12.467  13.334 -0.1377 -0.2843  0.2337
14760W        W29891  16.204  14.554   1.269  0.4338  0.1151 -0.1720
14761W        W29892  14.401  14.720  14.146  0.0705 -0.2735  0.7210
14762W        W29893   4.526  13.151   4.337  0.1689 -0.3163  0.3824
14763W        W29894  10.466  12.021   4.952 -0.1222  0.3664 -0.2138
14764W        W29895   8.939   9.628  15.326  0.2616 -0.0887 -0.0389
14765W        W29896  10.693   2.281   0.134 -0.2182 -0.1006 -0.1671
14766W        W29897  11.788  16.079  13.651  0.1979 -0.2801 -0.0546
14767W        W29898   0.170   8.243  15.398  0.0875 -0.1729  0.4498
14768W        W29899   7.642  18.474   0.003  0.1483 -0.1595 -0.0762
14769W        W29900  14.074  16.616   0.607  0.0036 -0.0436 -0.1857
14770W        W29901   6.995   1.774   9.873  0.0965 -0.0921  0.4661
14771W        W29902  13.562  13.062   1.000  0.0045  0.2855  0.1358
14772W        W29903   9.575   4.959  15.700  0.1824 -0.2058  0.0133
14773W        W29904  16.196  17.725   3.359 -0.0097  0.1400 -0.0423
14774W        W29905  10.793   7.631   4.074  0.2460 -0.0839 -0.1759
14775W        W29906   4.325   5.839   3.480 -0.3234  0.0671  0.1530
14776W        W29907   5.083  15.674  13.549 -0.0302 -0.0824 -0.0340
14777W        W29908   7.247  16.480   3.202  0.0288 -0.1580  0.2011
14778W        W29909  18.278   7.462  15.512  0.0943 -0.0107  0.4565
14779W        W29910  13.722   5.360  11.811 -0.0544  0.0313  0.0019
14780W        W29911  18.407   0.613  13.243  0.0275  0.1171 -0.0470
14781W        W29912   0.594  10.064  11.773 -0.2348 -0.2443  0.0480
14782W        W29913   4.017  12.864   1.168  0.1422 -0.2141  0.0970
14783W        W29914   2.206   2.380   2.900 -0.0216 -0.0250 -0.0392
14784W        W29915   3.163  16.108   2.758 -0.0528 -0.1683 -0.2889
14785W        W29916   8.339   9.880   2.085 -0.1669  0.2332 -0.0619
14786W        W29917  15.091   7.388  15.223 -0.0424 -0.0825  0.3826
14787W        W29918  15.320  10.193   0.477  0.0257  0.1879  0.2270
14788W        W29919  12.782   8.149  15.013  0.3934  0.1592 -0.1828
14789W        W29920   8.924  17.580   0.540 -0.3323  0.2094 -0.0119
14790W        W29921   8.691  13.928  15.358  0.2742 -0.0356  0.0818
14791W        W29922  17.629   9.392  11.383  0.3132  0.1021 -0.2505
14792W        W29923   4.968   5.995   1.063 -0.2216  0.2212  0.0973
14793W        W29924  15.456   5.740   0.678 -0.1040 -0.0485  0.0759
14794W        W29925   2.297   8.326   2.990 -0.1083 -0.1783 -0.0151
14795W        W29926   0.733  12.441   0.269  0.1904  0.0439  0.0795
14796W        W29927  12.271   1.764  15.493  0.1315  0.1311 -0.1805
14797W        W29928  17.964  14.224  15.320  0.2675  0.0479 -0.0674
14798W        W29929  17.473   2.046  10.726  0.0300  0.3245 -0.1446
14799W        W29930   3.678   3.124  15.529  0.2001  0.2862  0.3413
14800W        W29931   9.368  18.468  12.445 -0.0634 -0.0918 -0.1276
14801W        W29932   7.245  16.853  10.503 -0.0058 -0.0762 -0.2354
14802W        W29933  12.956  12.903  13.506 -0.1860 -0.0869 -0.1205
14803W        W29934  12.459  17.809  14.134  0.1671  0.1461  0.0822
14804W        W29935  12.295   4.112  14.629 -0.1105  0.0720 -0.1735
14805W        W29936  17.581   6.066  14.155 -0.2769 -0.0989 -0.1145
14806W        W29937   2.044   0.881  14.441  0.0334  0.1509 -0.0660
14807W        W29938   3.470   1.822  12.991  0.0453  0.0398  0.1743
14808W        W29939   4.515   1.984  12.197  0.1169  0.2507  0.1070
14809W        W29940   6.599   1.492   2.710 -0.1982  0.0730  0.5176
14810W        W29941   2.920   2.413  12.401 -0.1254  0.1000 -0.1409
14811W        W29942   3.521   8.439   2.857 -0.0367  0.3046 -0.0582
14812W        W29943  16.076   4.992   2.787 -0.0223  0.2331 -0.3005
14813W        W29944  15.828  13.792  14.595 -0.1652 -0.2775 -0.1268
14814W        W29945   1.324   4.906   2.464  0.0516 -0.0135 -0.1549
14815W        W29946  10.343  16.171  12.638  0.3509 -0.1612 -0.0141
14816W        W29947   9.575   5.212  10.345 -0.1007 -0.1193 -0.1309
14817W        W29948   3.388   4.915   5.758 -0.2234 -0.0729  0.3437
14818W        W29949  12.415   8.873   2.721 -0.1643 -0.0485 -0.0493
14819W        W29950  15.486  13.137   5.342  0.1711  0.0062  0.0178
14820W        W29951  14.530   9.031  14.818 -0.1933  0.0287 -0.0569
14821W        W29952  12.451  13.552   3.500 -0.0442 -0.2831 -0.0424
14822W        W29953  13.963   1.773   4.921 -0.1926 -0.0161 -0.2688
14823W        W29954   3.976   6.686  10.501 -0.1246  0.1794 -0.0989
14824W        W29955   5.115   9.763  11.814  0.4374  0.2332  0.0610
14825W        W29956   1.287  18.086  12.965  0.1896  0.2682  0.0690
14826W        W29957  13.470  11.436   5.320 -0.1976 -0.0631  0.0030
14827W        W29958   2.034  16.811   4.031 -0.0850  0.0548 -0.2001
14828W        W29959  12.424   4.068  15.368 -0.0115 -0.2297 -0.0567
14829W        W29960  10.297  14.725  15.050 -0.0172 -0.1135 -0.1701
14830W        W29961  11.333   4.838   2.649  0.1521  0.0225 -0.0010
14831W        W29962   6.998   6.249   1.530 -0.3840 -0.0603 -0.3459
14832W        W29963   9.996   6.835   1.431  0.0427 -0.0921 -0.0153
14833W        W29964   1.211   7.393  15.779  0.1973  0.0399  0.2504
14834W        W29965   5.272  15.457   4.178 -0.0974  0.0011  0.1454
14835W        W29966  10.940  13.569  14.926 -0.2517 -0.2367  0.0739
14836W        W29967   1.852  11.637   4.779 -0.2751  0.0331  0.1779
14837W        W29968  16.277  10.510   9.965  0.0149 -0.2668  0.0522
14838W        W29969  16.547  17.550  14.429 -0.2623  0.1225 -0.1620
14839W        W29970   8.045  18.378   4.375  0.2218 -0.1255  0.0123
14840W        W29971  10.649   6.516   4.625 -0.1784 -0.1531 -0.0859
14841W        W29972   4.138  17.823  14.350  0.1816 -0.0411  0.0059
14842W        W29973  10.286   8.932   2.704  0.3839 -0.4598  0.0954
14843W        W29974  13.789  11.905  15.503 -0.1265  0.4826 -0.0592
14844W        W29975  13.537   3.931   9.812  0.2567  0.2120 -0.3640
14845W        W29976   3.457   6.337   2.340 -0.1755  0.1791 -0.1953
14846W        W29977   2.281   2.669  14.800  0.1862 -0.1182  0.1497
14847W        W29978   3.573  11.868   5.615  0.0372 -0.0993 -0.2435
14848W        W29979   2.655   0.294   5.517  0.1245 -0.0470  0.1335
14849W        W29980   4.322  15.451  13.447 -0.0802  0.2635  0.2816
14850W        W29981   2.013   8.894  15.074 -0.1102  0.3432  0.0366
14851W        W29982   9.055   0.102  15.049  0.1169 -0.2512  0.0190
14852W        W29983  14.899   6.413  13.959 -0.0783 -0.0344 -0.1869
14853W        W29984   1.343   2.154  12.289  0.0158  0.1867  0.0346
14854W        W29985  10.848  14.521   1.496  0.2232 -0.0741 -0.0316
14855W        W29986  16.124   2.853   1.032 -0.0793 -0.0098 -0.0999
14856W        W29987  15.491  12.634  14.156  0.1281  0.2436 -0.0286
14857W        W29988  17.110  12.380   4.976 -0.3197  0.2383  0.0399
14858W        W29989  11.013   4.388  13.203  0.3894 -0.0743  0.1832
14859W        W29990  11.910  11.113   3.658  0.1694  0.1432  0.0133
14860W        W29991  14.523  17.208  13.993  0.0564  0.0744 -0.0311
14861W        W29992   7.730  18.448  13.263 -0.0421 -0.4893  0.1456
14862W        W29993  12.498   7.253   2.348  0.2693 -0.1140  0.0826
14863W        W29994  16.404  16.594   2.831  0.2129 -0.0121  0.2084
14864W        W29995   2.800   1.445   2.082 -0.0754 -0.2221 -0.2774
14865W        W29996   7.903  17.648   3.046 -0.0207 -0.4388 -0.3944
14866W        W29997   3.293  11.513   2.130 -0.1359 -0.0717  0.0405
14867W        W29998  11.569  15.308   4.274 -0.1088 -0.2377  0.0730
14868W        W29999   2.161   8.045  11.242 -0.1267  0.1080 -0.0169
14869W        W30000  17.152   8.783   5.447 -0.0981  0.0389 -0.2176
14870W        W30001   5.659  12.316  11.082  0.3199  0.0540 -0.0724
14871W        W30002   4.288   2.811  13.213  0.0386 -0.1645  0.0624
14872W        W30003  11.158  11.965   2.669  0.0962  0.2248 -0.4512
14873W        W30004  16.009  14.080   1.588  0.0856  0.0122  0.0986
14874W        W30005  18.458  14.701   4.820  0.0882 -0.2280  0.1014
14875W        W30006  11.130   7.570  13.245  0.0174 -0.2723 -0.2547
14876W        W30007  13.793   5.004   1.133 -0.0095 -0.2256  0.0097
14877W        W30008   1.430  14.418   2.787 -0.2652  0.1482 -0.2551
14878W        W30009   4.622  14.044   0.545  0.1155 -0.0743  0.4916
14879W        W30010   7.368   7.677  14.600 -0.1527 -0.0832 -0.1013
14880W        W30011  13.061   5.921   5.348 -0.1479 -0.0118 -0.0977
14881W        W30012   0.005  13.923  10.859 -0.0834 -0.1449 -0.2597
14882W        W30013  18.173   6.276   4.743  0.0856  0.0655  0.1337
14883W        W30014   4.584   4.870  14.870  0.3072 -0.0997 -0.1658
14884W        W30015   8.547   0.594   1.443 -0.3404 -0.0071 -0.0394
14885W        W30016  11.848   0.811  12.705  0.1970  0.0573 -0.0374
14886W        W30017   4.495  11.894   1.439 -0.0314 -0.1688 -0.1783
14887W        W30018   6.474   3.389  14.645  0.0716  0.2725 -0.2178
14888W        W30019   0.348   3.226  15.092  0.0624  0.3998 -0.0051
14889W        W30020   7.130   6.875  11.763 -0.0607  0.0123  0.0541
14890W        W30021   3.774  17.281   2.493  0.0858  0.4455  0.0387
14891W        W30022  13.023   8.337  11.973  0.2418  0.2171 -0.1692
14892W        W30023   2.107   0.690  12.043  0.1591 -0.1148  0.0893
14893W        W30024  10.019  16.276  11.385  0.0090  0.2076  0.1745
14894W        W30025  11.931   8.282   2.588 -0.1229 -0.0154  0.0386
14895W        W30026  13.443   8.541  14.210  0.2102 -0.1772  0.1523
14896W        W30027   8.121  12.774   1.738  0.1823 -0.2668 -0.0343
14897W        W30028   0.248  14.693   3.492  0.1263  0.1359  0.1881
14898W        W30029   9.043  14.609  12.520 -0.0628  0.0069  0.0867
14899W        W30030   6.996   7.878   4.808  0.4316  0.0834 -0.3213
14900W        W30031  18.015   5.152  15.101 -0.1999 -0.0010 -0.2921
14901W        W30032   5.186   2.021  12.724  0.0002  0.2936 -0.2330
14902W        W30033   5.901  11.050   3.331 -0.0166  0.2540  0.2033
14903W        W30034   9.319   5.998  11.731  0.0021 -0.1182 -0.4396
14904W        W30035   1.461   7.187   2.515 -0.2355  0.0436 -0.2203
14905W        W30036  11.577  13.557   3.311 -0.3402  0.0363 -0.2041
14906W        W30037   4.448  12.835  12.186  0.0409  0.0205 -0.0103
14907W        W30038   3.763  13.588  12.207  0.0824 -0.1470  0.1819
14908W        W30039  17.755   9.010  14.784  0.1502 -0.1988  0.0542
14909W        W30040   4.433  11.024   0.996 -0.1217  0.4175 -0.1356
14910W        W30041   3.679   5.416   4.545 -0.0277 -0.1679  0.1362
14911W        W30042   7.973  10.646   5.274  0.1919 -0.0795  0.2306
14912W        W30043   4.964   1.672  10.510  0.1710  0.2240  0.1190
14913W        W30044   4.769   4.597   1.939  0.0504  0.0621 -0.1088
14914W        W30045  14.530  15.029  11.470  0.2916  0.2903  0.0986
14915W        W30046   1.814  12.100   4.950  0.0303  0.0420 -0.1631
14916W        W30047  17.109  12.725  11.795  0.1533  0.2557  0.1261
14917W        W30048  10.342  18.111   4.942 -0.1544  0.1596  0.0750
14918W        W30049   1.603  13.939   0.978 -0.0126 -0.0136 -0.0417
14919W        W30050  15.923  14.764   3.083  0.0194  0.1642  0.1023
14920W        W30051  16.700   3.498   0.491 -0.1012 -0.1115 -0.4092
14921W        W30052  13.256   4.643   3.213 -0.1908 -0.5248 -0.1405
14922W        W30053  16.411  12.198  14.570 -0.1041 -0.1065 -0.0736
14923W        W30054  15.206  13.012   1.069 -0.0060  0.0041 -0.0490
14924W        W30055   4.012   0.611   2.489  0.0239 -0.0242  0.0939
14925W        W30056  15.868   4.576   2.047  0.0671 -0.1243  0.0426
14926W        W30057   1.507   5.277  12.606 -0.0149  0.1661  0.0436
14927W        W30058  15.181  17.807   1.154 -0.2007 -0.1278 -0.0511
14928W        W30059  10.259   6.809   3.438  0.1198  0.2517  0.1641
14929W        W30060  13.353   6.119  13.879  0.0311 -0.1456  0.1764
14930W        W30061  10.107   1.451  12.723 -0.3585 -0.0484  0.1348
14931W        W30062   3.537  11.158  14.873  0.0621 -0.1538 -0.1166
14932W        W30063  14.669  14.683   3.254  0.0268  0.2120  0.0284
14933W        W30064   1.181   0.296  15.207  0.0315 -0.0888  0.0936
14934W        W30065  11.167  17.408   2.596  0.1995  0.2676  0.0090
14935W        W30066   7.423   9.468   2.167  0.0792  0.2042  0.4177
14936W        W30067  15.165  10.570   1.737 -0.0430  0.2556  0.0787
14937W        W30068  10.199   4.837   4.397  0.1089 -0.0052  0.2700
14938W        W30069  13.950   0.249   0.666  0.0338  0.1684 -0.1920
14939W        W30070  11.450  12.016   4.211 -0.3884 -0.0687  0.1113
14940W        W30071   6.848  14.652   4.083  0.0889  0.0213  0.1496
14941W        W30072   8.699   6.801   4.941  0.1968 -0.0683  0.1275
14942W        W30073  10.665   2.868   3.693  0.0275  0.0430 -0.1245
14943W        W30074  12.712   4.197  14.276 -0.0084  0.0242  0.1301
14944W        W30075   5.134   3.821  14.626 -0.0949  0.0305  0.1929
14945W        W30076   6.377   0.052  12.886  0.0070 -0.2092  0.0625
14946W        W30077  18.088  13.725  11.854  0.1198 -0.1334  0.0292
14947W        W30078   3.030   6.857   4.929 -0.1166  0.1566 -0.0221
14948W        W30079  16.441  16.736  13.670  0.1697 -0.0943 -0.1466
14949W        W30080   4.989  11.235   0.016  0.0366  0.1952  0.1174
14950W        W30081  15.696  12.360  12.873 -0.0521 -0.0911  0.0775
14951W        W30082  13.048  10.784  15.677 -0.3928 -0.1301  0.1677
14952W        W30083  11.928   9.042   2.822  0.0319  0.0018  0.1971
14953W        W30084   5.512   0.517  10.547  0.0484  0.1927  0.1710
14954W        W30085  10.382  12.060  12.400 -0.0083 -0.0167 -0.1030
14955W        W30086  13.829   0.246  14.838  0.1268 -0.2069 -0.2379
14956W        W30087   5.894   9.131   1.418  0.0036 -0.2114  0.1501
14957W        W30088   4.761   9.462  15.475  0.0580  0.0395  0.0021
14958W        W30089  17.465   8.743  13.694 -0.2933 -0.1215  0.0759
14959W        W30090   0.537   8.350  12.522 -0.1219  0.1688  0.1160
14960W        W30091   3.342  17.122  14.901  0.0462 -0.1855 -0.0231
14961W        W30092  14.669  14.806   9.920 -0.0311 -0.0202 -0.1283
14962W        W30093   0.884  12.207  13.886 -0.0549  0.0355 -0.3109
14963W        W30094   9.551   1.616   3.966  0.2001 -0.0526  0.2361
14964W        W30095  13.843  10.240   4.474  0.2987 -0.0255  0.0405
14965W        W30096   0.136  11.739  13.465 -0.1215 -0.0489  0.0260
14966W        W30097  12.889  10.046  15.395  0.1323 -0.0868  0.0428
14967W        W30098   6.586   4.852   0.445  0.1926 -0.0405 -0.2015
14968W        W30099  11.268   3.200   5.046 -0.3171  0.1662 -0.0479
14969W        W30100  12.842   4.873   0.788  0.0128  0.4095  0.0789
14970W        W30101  12.687   4.060   0.536  0.1999  0.0202  0.0186
14971W        W30102  13.325   4.906   1.480 -0.0057 -0.0231  0.1342
14972W        W30103   0.856  12.350  14.809 -0.0876 -0.0356 -0.0991
14973W        W30104   6.747  14.660  15.090 -0.2175  0.1108 -0.2432
14974W        W30105   0.154  10.980   2.337  0.0752 -0.1921  0.1528
14975W        W30106  11.191   1.789  14.748  0.2252 -0.0483  0.0781
14976W        W30107   5.281  10.084  12.686  0.2058  0.1015  0.0624
14977W        W30108  17.669   1.009  15.849 -0.3967 -0.0667  0.0555
14978W        W30109   8.332  13.904   1.227 -0.1059 -0.2137 -0.1274
14979W        W30110   9.384  17.088  12.993  0.1203  0.2905  0.0582
14980W        W30111   1.589   8.108   0.757 -0.1656 -0.1049  0.0954
14981W        W30112   0.419  11.506  10.869 -0.0766  0.1928 -0.3536
14982W        W30113  10.090  14.648  11.338 -0.1461 -0.1914 -0.0284
14983W        W30114  13.179   6.169   0.691 -0.0175 -0.0117 -0.3539
14984W        W30115   8.169   7.424   4.445  0.0481 -0.0692  0.1944
14985W        W30116   9.154  13.252   5.626 -0.0547  0.0409  0.1275
14986W        W30117  13.836   6.236  15.160 -0.0216  0.2737  0.2078
14987W        W30118  12.595  14.426  15.422  0.1118 -0.0558  0.0183
14988W        W30119  16.386   5.221  13.480  0.3114  0.1773  0.1563
14989W        W30120  13.914  10.883  15.416  0.0463  0.3981 -0.2611
14990W        W30121   4.232   8.910  13.932 -0.3677 -0.2892 -0.3132
14991W        W30122  12.214  17.650   1.697 -0.2497  0.0363 -0.2302
14992W        W30123  11.830   3.343   3.651  0.2321 -0.1673 -0.0958
14993W        W30124   7.069  15.497   2.386  0.1175 -0.1594  0.2219
14994W        W30125  11.277   6.336  10.700  0.2720  0.0256 -0.2010
14995W        W30126   6.093   6.036   3.706  0.2105  0.1470  0.0867
14996W        W30127   3.416  11.980   4.360  0.0709 -0.0482  0.1188
14997W        W30128  15.764   7.443  11.017 -0.0846  0.2785 -0.1649
14998W        W30129  16.940   7.406  11.554  0.0123  0.0949 -0.0335
14999W        W30130   7.602   5.650   2.724  0.1041 -0.1527 -0.4640
15000W        W30131  16.905   3.541   1.874  0.3136 -0.2811 -0.2906
15001W        W30132  15.435   2.043  14.492  0.3049  0.1016  0.1482
15002W        W30133   9.790   3.372   0.724 -0.0135 -0.1110 -0.0246
15003W        W30134   6.573  10.625   1.939 -0.2960  0.3980  0.1025
15004W        W30135  17.120   7.013   2.860 -0.1731 -0.2064  0.2063
15005W        W30136   9.734   4.747  13.483 -0.2264  0.1847 -0.0852
15006W        W30137  14.889   8.839   4.107 -0.0388 -0.1700  0.2717
15007W        W30138   9.416   9.867   1.402  0.0171 -0.2070 -0.2166
15008W        W30139   8.428   7.637   3.837 -0.0660 -0.0599 -0.5280
15009W        W30140  17.856  12.519   4.710 -0.0645 -0.1440  0.0855
15010W        W30141   6.663  12.346   4.722  0.3355 -0.0536 -0.2029
15011W        W30142   2.875  14.641  15.644 -0.1643 -0.0868 -0.5495
15012W        W30143  16.540  10.555   1.786  0.0676 -0.0389 -0.1233
15013W        W30144   9.125   3.621  10.933  0.3362 -0.0914  0.0682
15014W        W30145  17.838   6.448  12.988 -0.2173 -0.1737  0.1587
15015W        W30146  17.395  13.812  13.484  0.0921  0.0703  0.1205
15016W        W30147  10.086   1.843   4.869 -0.0640 -0.1914  0.1212
15017W        W30148   5.240   8.258  14.352  0.0923  0.0621  0.0110
15018W        W30149  14.671  16.687  13.196  0.0660  0.2202  0.0020
15019W        W30150   3.197  11.613  12.568  0.0662 -0.0819  0.2000
15020W        W30151   3.970   4.232   2.281  0.0337  0.2400  0.1181
15021W        W30152   5.065   7.899  12.115 -0.1569  0.2780 -0.0333
15022W        W30153  11.435   9.526  10.489 -0.1029 -0.0146  0.0998
15023W        W30154  11.345  13.950   3.894  0.3861  0.0423 -0.0658
15024W        W30155   5.698   6.193   3.490  0.1268 -0.3108 -0.1705
15025W        W30156   3.090  13.126  12.546 -0.1372 -0.3239 -0.3193
15026W        W30157   3.517   0.362   4.395 -0.0444 -0.0198  0.0141
15027W        W30158   0.262  17.394   3.438 -0.1700  0.0201 -0.0418
15028W        W30159  18.175   2.839   5.312 -0.2635  0.0149  0.1190
15029W        W30160   6.479  16.206   4.967 -0.0354 -0.1701 -0.0632
15030W        W30161  13.761   3.224   5.192  0.0029  0.0957  0.3251
15031W        W30162  10.136  12.167  15.800  0.1605 -0.0881 -0.0988
15032W        W30163   6.873  11.740  11.004 -0.2140  0.2488 -0.0697
15033W        W30164   9.896   4.640  13.937 -0.2145 -0.1997 -0.0047
15034W        W30165   8.140  15.185   1.572  0.2848  0.0808  0.2571
15035W        W30166   0.632  11.598  12.690  0.3729 -0.4358 -0.1074
15036W        W30167  16.317   6.997   2.250 -0.0278 -0.1067  0.2338
15037W        W30168   8.252  13.102  14.403  0.1829  0.4647 -0.0544
15038W        W30169  13.974   2.235   4.497 -0.0660  0.1421  0.1033
15039W        W30170   1.302  17.910   0.156  0.2644 -0.1994  0.1796
15040W        W30171   0.654   6.735   0.167 -0.3077 -0.1045  0.0537
15041W        W30172   8.410  12.395   1.484 -0.2502  0.0325 -0.0202
15042W        W30173   4.885  13.025   1.523  0.0251  0.2723  0.1854
15043W        W30174   6.885   1.390   0.953  0.3421 -0.0618  0.1535
15044W        W30175  12.508  10.746  10.566  0.0211  0.1898  0.1085
15045W        W30176  15.758  12.178  15.838 -0.1673 -0.1119  0.1425
15046W        W30177  15.963  15.530  11.052 -0.2624  0.3692  0.1134
15047W        W30178  17.648  13.743  14.918  0.1051  0.0871  0.0076
15048W        W30179   4.573   2.942   4.978 -0.2254 -0.0952 -0.1048
15049W        W30180   3.693   1.545   2.582  0.0455 -0.2552  0.1943
15050W        W30181   2.413  10.875  13.135  0.1632 -0.0762  0.1915
15051W        W30182  15.493   5.376   1.213  0.0920  0.0317  0.1941
15052W        W30183  12.854  10.554   5.828  0.3620  0.1829  0.1546
15053W        W30184   5.684  14.341   2.138  0.3372 -0.0410  0.1682
15054W        W30185   3.444   9.159  14.417 -0.2150 -0.0297 -0.0453
15055W        W30186   5.562  16.886   3.587 -0.1326  0.1897 -0.1221
15056W        W30187   1.093   7.760  11.590  0.1340 -0.0374 -0.3039
15057W        W30188  13.430   5.259   4.818  0.1047  0.2680 -0.1603
15058W        W30189   7.147  15.195   3.937 -0.1776 -0.0178  0.0835
15059W        W30190  14.810   9.943  10.571 -0.1093 -0.1121  0.1245
15060W        W30191  11.174  14.710   2.957  0.2335 -0.1426  0.0933
15061W        W30192   1.947   8.923   1.263 -0.1075  0.2393  0.0255
15062W        W30193   3.001  15.060  13.849 -0.3647 -0.0396  0.0128
15063W        W30194  11.009  18.219  11.207 -0.1393 -0.0021  0.0124
15064W        W30195   4.589   4.023   9.902  0.3216  0.0386  0.0223
15065W        W30196   8.010   3.330  15.466 -0.1655 -0.2176  0.3088
15066W        W30197  13.400  14.889   5.236 -0.0090  0.3123  0.1934
15067W        W30198   6.105  14.203   2.544 -0.3580  0.1332  0.1869
15068W        W30199  14.076   3.443  15.406 -0.0734  0.5217 -0.0296
15069W        W30200  10.933   1.595  15.227 -0.2983  0.1402  0.4519
15070W        W30201   2.190   9.198   0.159 -0.0605 -0.4292  0.0145
15071W        W30202  16.882   7.568  14.238  0.2558 -0.1339  0.0442
15072W        W30203   1.664  12.684  12.113 -0.1531 -0.2368 -0.0828
15073W        W30204  16.142   5.925  15.127  0.0498  0.1848 -0.1168
15074W        W30205  17.030  11.827   5.685 -0.0795 -0.0586 -0.2158
15075W        W30206  16.739   2.480   4.632 -0.0548 -0.2182  0.0227
15076W        W30207   5.281  14.848   1.816  0.2923  0.2423  0.1773
15077W        W30208   0.268  11.761  14.877  0.4240 -0.1437 -0.3053
15078W        W30209  18.418  16.618  10.861 -0.2875  0.0214  0.0256
15079W        W30210   3.569   2.574  14.825 -0.0858 -0.1951  0.1655
15080W        W30211   3.011   7.384   9.715 -0.0370 -0.1407  0.1179
15081W        W30212   7.907  17.352   4.863  0.1619  0.2965  0.1254
15082W        W30213   1.256   8.261  14.547  0.1656  0.3008  0.1273
15083W        W30214   0.960  16.042  15.666  0.0889  0.1159  0.1362
15084W        W30215   0.085   1.476   1.649  0.0294  0.0400 -0.3469
15085W        W30216   7.829   0.146  11.383 -0.3525  0.1283 -0.1999
15086W        W30217   5.853  12.837   1.269  0.4196 -0.0490  0.1958
15087W        W30218   5.232  15.301   2.615  0.1785 -0.2360 -0.4989
15088W        W30219  12.109   1.255  14.746  0.1315 -0.3577 -0.4349
15089W        W30220   0.591  13.240  10.996 -0.0849 -0.1091 -0.3690
15090W        W30221  16.434  12.048   4.645 -0.2748 -0.0779  0.2909
15091W        W30222  14.189   9.395   6.041  0.2764  0.4249  0.1944
15092W        W30223   8.846  16.126   4.376  0.1268  0.0590 -0.2088
15093W        W30224  13.685  16.159   1.672  0.2656  0.1960  0.0096
15094W        W30225   8.030   3.553  11.956 -0.2481 -0.0952  0.1404
15095W        W30226   6.630  16.690   0.152  0.0516 -0.2478  0.0291
15096W        W30227  14.569   1.143  11.605 -0.1814  0.1376  0.1100
15097W        W30228   0.975   4.387  11.235  0.3624  0.0537 -0.1596
15098W        W30229  10.540  12.506  15.666  0.0463  0.1507 -0.1752
15099W        W30230  12.959  14.627  12.294 -0.1737  0.0192 -0.0868
15100W        W30231  13.001   3.012   1.962 -0.0693  0.3230  0.1482
15101W        W30232   7.785   6.695  14.322 -0.1943  0.2374  0.0817
15102W        W30233  14.691   9.126  11.455  0.0768  0.2841  0.0919
15103W        W30234   3.429  11.385   2.636  0.0223  0.0757 -0.2292
15104W        W30235   0.635  14.490   0.273 -0.2889  0.0050 -0.0119
15105W        W30236   6.060   0.541   5.838 -0.0230 -0.3097  0.0245
15106W        W30237   6.288   2.939  14.940 -0.1403  0.0041  0.2051
15107W        W30238   5.687  16.374  13.549 -0.1025  0.3016 -0.2450
15108W        W30239   6.877   7.366  15.102  0.0524 -0.1684  0.2671
15109W        W30240  11.899   3.104  11.425 -0.1404 -0.1615  0.2557
15110W        W30241  15.411  11.928  14.762 -0.2752  0.0478  0.3659
15111W        W30242   7.872  12.380  11.436 -0.0666 -0.1114  0.0705
15112W        W30243   0.094  12.498   1.170  0.0728  0.0142  0.2097
15113W        W30244   4.219   2.217  11.875 -0.0159  0.0926  0.4950
15114W        W30245   3.999   5.200  10.299 -0.1509 -0.0587  0.0488
15115W        W30246   8.069  10.762  14.471 -0.4297  0.3150 -0.1181
15116W        W30247   5.110   2.754   0.490  0.1082 -0.0020  0.2220
15117W        W30248  11.419   8.378   2.605 -0.1209 -0.1458  0.1494
15118W        W30249   9.295  17.343   4.216  0.1731  0.1332 -0.2158
15119W        W30250  10.508  15.240  13.621 -0.0641  0.2322  0.1166
15120W        W30251   9.256  13.139   4.614  0.2950 -0.1111  0.0115
15121W        W30252  11.783   7.596   5.409  0.5206 -0.0084 -0.1230
15122W        W30253  15.831  11.902   2.693 -0.1525 -0.0353 -0.0023
15123W        W30254  16.570   4.441   5.306  0.0492  0.1881 -0.0830
15124W        W30255   5.538   4.085   5.555  0.0492 -0.2938 -0.2390
15125W        W30256   3.629   4.682  12.616  0.2121  0.5141  0.0818
15126W        W30257   6.671  17.541  10.474 -0.0982  0.2852  0.5645
15127W        W30258   3.182  15.984  12.096  0.1420 -0.2877  0.0981
15128W        W30259   8.222  10.452  12.923 -0.0561 -0.3222  0.0665
15129W        W30260  17.343   3.642   1.706  0.1180  0.2261  0.2725
15130W        W30261  14.738   3.169  14.656  0.0981 -0.0988  0.3208
15131W        W30262  15.984  16.784  15.864 -0.0279 -0.1160 -0.0171
15132W        W30263  16.401   1.465  10.841 -0.0811  0.2118  0.3009
15133W        W30264  12.075  13.242  13.051  0.2496  0.0096 -0.0559
15134W        W30265   2.591   5.890  11.346 -0.0673 -0.3098  0.0778
15135W        W30266  14.730   9.259  15.706 -0.1748 -0.1431 -0.0880
15136W        W30267   0.576   5.782   0.048 -0.2707  0.0575  0.0085
15137W        W30268   0.782  11.069   4.307  0.0869  0.3425 -0.1361
15138W        W30269   2.121  11.081   5.409  0.2936 -0.0936  0.1419
15139W        W30270  10.416  16.238   4.095 -0.0970  0.1830 -0.0394
15140W        W30271  17.385   3.585  14.738  0.3389  0.2003 -0.0170
15141W        W30272  17.626  14.974   2.644 -0.1034  0.0209 -0.0523
15142W        W30273   7.967  12.251   4.556  0.2678  0.3231  0.0188
15143W        W30274  12.482  11.426   3.446 -0.1133 -0.2724  0.1868
15144W        W30275   2.905  16.308   1.576 -0.1900  0.1721 -0.1839
15145W        W30276   3.433  12.386  13.207 -0.1418  0.0403  0.3245
15146W        W30277  11.555  12.940   1.662  0.1333  0.0993  0.0389
15147W        W30278  15.237   9.866   3.313 -0.3452  0.1143 -0.3460
15148W        W30279  11.980   7.704  12.015  0.1366  0.0641 -0.0578
15149W        W30280   6.780  14.526  14.589  0.1581 -0.0965 -0.1929
15150W        W30281   7.714  12.875  11.400  0.3345 -0.0965  0.0792
15151W        W30282   7.687   5.303  12.187 -0.0220 -0.1802  0.1359
15152W        W30283   6.028   1.176  11.545 -0.1674 -0.3811 -0.0668
15153W        W30284   2.088   3.882  10.867  0.3492  0.1277 -0.2216
15154W        W30285   7.935  10.144  10.179 -0.0118 -0.0076  0.3144
15155W        W30286   6.672  17.416   4.992 -0.2721 -0.3396 -0.4057
15156W        W30287   3.330  12.132  10.346 -0.0411  0.0929  0.1616
15157W        W30288  10.114   9.806  12.445  0.1462 -0.0978 -0.3041
15158W        W30289  14.966   4.859   0.801 -0.3093 -0.1931 -0.3176
15159W        W30290  16.006  15.935  15.813 -0.1667  0.0680 -0.0579
15160W        W30291  10.890   0.623  15.726 -0.1394 -0.1189 -0.0106
15161W        W30292  13.283  14.467  12.851 -0.2449  0.0491 -0.0008
15162W        W30293  10.926   7.240   5.311  0.2506  0.2505 -0.0131
15163W        W30294  11.898  13.294   0.060 -0.1975  0.0791  0.0778
15164W        W30295   1.741   7.477   5.489 -0.0531  0.3236 -0.1431
15165W        W30296   9.819   2.014   4.457  0.0319 -0.0621 -0.1038
15166W        W30297  12.314  16.194  12.224 -0.1473  0.1305 -0.0387
15167W        W30298  11.480   0.588   1.796 -0.1693 -0.1251 -0.1171
15168W        W30299  18.326  11.465   3.702 -0.3774 -0.0111  0.4405
15169W        W30300   3.561   8.480   1.463  0.0022  0.0992  0.0710
15170W        W30301   0.376   1.784   1.922  0.1110 -0.1261 -0.1120
15171W        W30302   0.712   4.308  11.645 -0.2046 -0.0937  0.2610
15172W        W30303  16.897   5.877   0.339  0.3388  0.1094  0.2252
15173W        W30304   5.294   7.235   5.313  0.2210  0.1118 -0.2044
15174W        W30305   8.320   9.396   4.917  0.1254  0.1682 -0.0171
15175W        W30306  10.465   0.941   2.551 -0.1269 -0.0493 -0.1409
15176W        W30307   4.065   0.699  15.343  0.3360  0.0574 -0.1795
15177W        W30308  17.880  15.912   5.195  0.1624  0.0368  0.0816
15178W        W30309   1.965  17.353   9.879  0.0404  0.0006 -0.2051
15179W        W30310  10.257  11.412  15.270  0.1148  0.0035 -0.1532
15180W        W30311   0.282   9.793   4.312  0.1137  0.3540  0.1115
15181W        W30312  15.676  18.094  14.211 -0.2149  0.0629  0.3021
15182W        W30313   2.799   6.377   4.572 -0.5627  0.2634  0.0738
15183W        W30314   8.440   4.869   2.393  0.0610  0.0139  0.1782
15184W        W30315  15.023   8.305  11.523  0.0897  0.0586 -0.1636
15185W        W30316   8.431   9.175   4.116  0.1834  0.0335  0.2094
15186W        W30317  12.665   8.908   3.662 -0.0171  0.1447 -0.1688
15187W        W30318  17.722  10.468  14.625 -0.3192 -0.2672 -0.0195
15188W        W30319   6.466   8.148   4.532  0.3986  0.1453 -0.2534
15189W        W30320  13.857   7.275   0.257  0.2961  0.1035 -0.0098
15190W        W30321   7.841   6.803   2.797  0.1987  0.1699 -0.0929
15191W        W30322   2.616   7.813   1.401  0.0204  0.3230  0.1135
15192W        W30323  18.045   6.316   3.882 -0.1045  0.1723  0.0225
15193W        W30324   5.801   7.213  11.634  0.1038 -0.0924  0.0273
15194W        W30325   3.871   5.775  12.735  0.3001 -0.0321 -0.0456
15195W        W30326  17.107   3.848   5.009  0.2417 -0.1230  0.2262
15196W        W30327   9.456  17.179  11.761  0.0633 -0.0512  0.0967
15197W        W30328  13.311   0.530   3.346 -0.2272  0.1795  0.2808
15198W        W30329  13.724   1.988   1.272 -0.0712  0.0895  0.2124
15199W        W30330   2.730   4.153  14.509 -0.2330  0.0879  0.0245
15200W        W30331  16.429   3.608   2.741 -0.1033  0.0210 -0.1653
15201W        W30332  10.455   9.028   5.229  0.3386  0.0892  0.2765
15202W        W30333   2.348  16.249  12.314 -0.0944 -0.0429  0.5056
15203W        W30334  17.209   0.201   3.018 -0.1832  0.0289  0.1379
15204W        W30335  13.072  13.483   2.821  0.5211 -0.0175 -0.0616
15205W        W30336  12.639  12.116   3.068 -0.0471 -0.0989  0.0058
15206W        W30337   9.279   0.363  11.593  0.2911  0.0735 -0.1314
15207W        W30338   5.470  12.458   5.726  0.0737 -0.2398  0.3132
15208W        W30339  12.579   3.187   2.015 -0.2517  0.0415  0.2081
15209W        W30340   1.762   0.217  13.412  0.1739  0.1252  0.0143
15210W        W30341  16.226   9.823   2.386  0.3919 -0.1084 -0.0755
15211W        W30342  16.900   2.092   2.315  0.0306 -0.0952  0.1692
15212W        W30343  11.187   6.494   4.481 -0.2659  0.0857 -0.2020
15213W        W30344  11.784  15.844  14.158  0.2246 -0.1709  0.0751
15214W        W30345  17.291   8.565  10.207 -0.1910  0.1014  0.3827
15215W        W30346  13.462   0.653   2.900  0.1876  0.1911  0.0799
15216W        W30347   0.293  16.340   0.824 -0.0597  0.2535 -0.0758
15217W        W30348   4.982  15.896  12.837  0.3549  0.1259  0.3725
15218W        W30349  10.437  10.131  11.803  0.2327 -0.0178 -0.0253
15219W        W30350   8.694   8.715  11.299  0.2235 -0.0110 -0.4379
15220W        W30351   5.922  10.387   1.854  0.0081 -0.0686 -0.0959
15221W        W30352  17.434  10.700   5.394 -0.2694  0.1668 -0.1576
15222W        W30353   2.787   5.319  15.414  0.1751 -0.2826 -0.0464
15223W        W30354   8.719  12.177  13.415  0.0739  0.0542 -0.0923
15224W        W30355  16.223   7.048  15.813 -0.1932 -0.0067 -0.1341
15225W        W30356  15.607  10.016   2.970  0.0322 -0.0390  0.2023
15226W        W30357   5.080  17.864   3.236 -0.0509 -0.0849 -0.3890
15227W        W30358  18.141  17.323   4.957 -0.3223 -0.1711 -0.0974
15228W        W30359   2.854  17.560   0.758  0.0900  0.2130 -0.0091
15229W        W30360   4.715   7.930   2.831  0.1102 -0.0224 -0.1776
15230W        W30361   7.934   5.108   4.373  0.0452  0.0000 -0.1212
15231W        W30362  11.570   8.327  12.712  0.0026 -0.1647  0.3076
15232W        W30363   2.776  13.986   3.763  0.2624  0.0134  0.2106
15233W        W30364  16.576   1.695   3.165  0.1252 -0.2056  0.0932
15234W        W30365  18.133   9.970  14.847 -0.0934 -0.2669 -0.3478
15235W        W30366   9.800  13.936   1.771  0.3441  0.0764  0.0901
15236W        W30367   5.997   6.716   3.656  0.1558 -0.0103  0.0372
15237W        W30368   8.924   2.938  15.444 -0.1898 -0.1085  0.3711
15238W        W30369   3.394  10.546  10.918 -0.0801  0.4211 -0.1258
15239W        W30370   8.082  16.667   1.279  0.2503  0.1957 -0.0972
15240W        W30371  10.763  12.700  10.406 -0.0504 -0.0112  0.1877
15241W        W30372  16.174   2.512  11.532  0.0225  0.1027  0.0600
15242W        W30373  10.678   7.815   0.829 -0.0821 -0.2255 -0.1796
15243W        W30374   3.647   4.075  15.362 -0.2230 -0.0316  0.2622
15244W        W30375  17.106   6.639  14.218  0.1277  0.1501 -0.2996
15245W        W30376   4.542   6.087  13.646 -0.1619 -0.2137  0.2164
15246W        W30377  10.054   8.900   4.845  0.1617  0.2897 -0.1108
15247W        W30378  15.223   5.967   5.170  0.2892  0.1890 -0.0591
15248W        W30379   4.117   5.873  13.398  0.1487 -0.1391  0.4165
15249W        W30380   5.910  11.062   0.765 -0.1063  0.0056 -0.1900
15250W        W30381   0.247   3.448   1.280 -0.0804 -0.0540 -0.3361
15251W        W30382  11.390   9.108  14.234  0.2608  0.2822  0.1937
15252W        W30383   8.092  16.617  14.676 -0.1110 -0.3765  0.3129
15253W        W30384   7.698   8.797  11.250  0.2902  0.0487 -0.0485
15254W        W30385   1.263  11.115   0.712  0.2644 -0.4154  0.2410
15255W        W30386  12.899   1.370  15.474  0.0632 -0.2055  0.1720
15256W        W30387   9.828   2.112  15.812  0.2101 -0.0112  0.1614
15257W        W30388  15.114  10.134   5.962  0.0641  0.1748  0.1981
15258W        W30389   0.706  18.363  10.923  0.0336 -0.1538  0.4809
15259W        W30390   4.721  16.230  12.148  0.0713 -0.2866  0.0322
15260W        W30391  14.660  10.398  10.266  0.1199  0.2125 -0.3833
15261W        W30392  16.862   5.049  10.786  0.0308  0.0247  0.1295
15262W        W30393   4.231   4.299  15.391  0.2204 -0.0747  0.0156
15263W        W30394   9.545  10.277  12.228 -0.1569  0.1856 -0.1461
15264W        W30395  15.705  10.147  14.984  0.0060 -0.1097  0.1043
15265W        W30396  10.222   0.717   2.114 -0.1674  0.0741 -0.1464
15266W        W30397   0.027  10.453   4.729  0.1991 -0.0235 -0.1102
15267W        W30398   7.699  14.051  10.769 -0.1679 -0.3485  0.1919
15268W        W30399  12.511   3.066   3.510  0.1423 -0.0406 -0.2293
15269W        W30400  15.882  10.959   5.534 -0.0507 -0.1053  0.0872
15270W        W30401   8.870   0.580   0.295  0.1898 -0.3260 -0.1325
15271W        W30402  12.556   6.642   2.442 -0.0725 -0.0667  0.1212
15272W        W30403  18.248   9.936  13.380 -0.1121  0.0556  0.3867
15273W        W30404  12.156  15.067   0.404  0.0181 -0.0152  0.0835
15274W        W30405  17.262  16.720   4.034  0.0024  0.0246  0.2221
15275W        W30406  10.595   0.573  14.374 -0.0979 -0.2241  0.0672
15276W        W30407   2.502   3.141   4.233  0.0001  0.0288  0.1630
15277W        W30408  15.111   0.882   0.944 -0.2091  0.1539  0.2121
15278W        W30409  18.509   6.547   4.043  0.2812 -0.2811 -0.2793
15279W        W30410   7.616   5.329  14.097  0.2181  0.0898 -0.2263
15280W        W30411   6.486   0.797  10.228  0.0283 -0.0103  0.0121
15281W        W30412   6.551  13.663  14.079  0.0618  0.0339 -0.4441
15282W        W30413   1.452   2.634  11.712 -0.2000 -0.2317  0.2983
15283W        W30414  13.125   6.496   4.889  0.0907 -0.1018  0.1028
15284W        W30415   1.267  15.524  13.863 -0.1409  0.1086  0.2724
15285W        W30416  13.411  11.736  11.380 -0.4715 -0.0927 -0.0734
15286W        W30417   2.771  16.926   5.879 -0.2287  0.2827 -0.0907
15287W        W30418   3.670   2.479   4.809  0.0964  0.0188  0.4299
15288W        W30419   6.679  12.216  15.762  0.1080 -0.1868  0.0114
15289W        W30420   8.832   6.871  11.531 -0.2816  0.2833  0.0711
15290W        W30421  12.573  10.680   3.334 -0.1708  0.0546  0.0527
15291W        W30422  14.329  12.776   4.032  0.0550 -0.0358 -0.1365
15292W        W30423   8.763   7.764   1.032 -0.1571 -0.1806  0.1241
15293W        W30424   7.290   4.822   1.334  0.0107  0.2811 -0.1161
15294W        W30425  11.484   1.902   1.147  0.0777 -0.1084 -0.1575
15295W        W30426  14.824   2.521  13.546 -0.4276  0.2940  0.1558
15296W        W30427  13.853   2.128  12.307  0.0121 -0.2073  0.0886
15297W        W30428   2.904   3.404   3.499  0.0264 -0.0704  0.4920
15298W        W30429   3.651   0.356  11.108 -0.0151  0.1569 -0.1591
15299W        W30430   3.594   4.969   1.184 -0.3160 -0.0567 -0.3408
15300W        W30431   4.904  16.807   1.642  0.0963 -0.1789 -0.1707
15301W        W30432  12.811  16.121  12.436 -0.0082  0.0931 -0.0170
15302W        W30433  14.899  11.627   3.335  0.0932  0.0207  0.1636
15303W        W30434   9.046  16.376  10.591 -0.1198 -0.1244  0.1461
15304W        W30435   2.913   5.120  11.024  0.1245  0.1141  0.2097
15305W        W30436   8.444  16.351   4.614 -0.0715 -0.1504 -0.1542
15306W        W30437   5.556  13.857  15.264  0.0083 -0.1478 -0.0940
15307W        W30438  12.781  12.305   2.632 -0.0540 -0.2956 -0.1028
15308W        W30439   4.849  17.422  15.114  0.3280 -0.4093  0.2789
15309W        W30440  16.781   4.372   3.338 -0.3412 -0.2126  0.2168
15310W        W30441  13.410  10.504  13.379 -0.1751 -0.0768 -0.2741
15311W        W30442   2.819   5.862  15.425 -0.3041 -0.1459 -0.0361
15312W        W30443  14.715  17.484  14.884 -0.0576  0.1107 -0.4365
15313W        W30444   5.035   4.869  15.485 -0.2071  0.0723  0.0411
15314W        W30445  16.170  15.465  14.983  0.2871 -0.2189 -0.0059
15315W        W30446  12.493   2.794   4.566  0.2595 -0.1428  0.2261
15316W        W30447   8.992  18.211  12.742  0.2356  0.1864 -0.3042
15317W        W30448   2.404   3.639   0.471 -0.3027 -0.0335  0.0760
15318W        W30449  12.348   2.588   5.489 -0.0878 -0.1168 -0.1169
15319W        W30450  12.048  11.408   4.041  0.0663 -0.1879 -0.1361
15320W        W30451   6.644   8.558  11.131 -0.0336 -0.2275  0.1796
15321W        W30452   2.568   4.710  12.883 -0.1513 -0.0019  0.2213
15322W        W30453  13.693   2.610  10.918 -0.0266 -0.1150  0.0841
15323W        W30454   7.061  11.616   2.525 -0.2566  0.2648  0.1503
15324W        W30455  12.483   8.968  11.929 -0.2304 -0.0652  0.0407
15325W        W30456   0.482  13.117  12.302  0.1692 -0.1541 -0.1493
15326W        W30457   7.882   7.914   1.382 -0.1479  0.0049  0.0748
15327W        W30458  15.843  18.370   1.693  0.1626  0.2103 -0.2293
15328W        W30459   3.195   4.675   1.030  0.0128  0.0081 -0.0609
15329W        W30460  12.784  13.586  14.095  0.0396 -0.1861 -0.1187
15330W        W30461  16.809  11.640  11.303  0.0263  0.0034  0.0814
15331W        W30462   0.498  15.330  11.434  0.1345 -0.1987  0.0108
15332W        W30463  11.055  13.135   0.614 -0.3604  0.2597  0.1382
15333W        W30464  16.022  14.406   4.898  0.2433 -0.0195 -0.2584
15334W        W30465   6.458  14.672   3.128 -0.0135  0.0483 -0.1771
15335W        W30466  10.037  17.537  14.156 -0.1681 -0.1177  0.1091
15336W        W30467  11.378  13.429   2.461 -0.0255 -0.1932 -0.1728
15337W        W30468   6.888   1.836   1.984  0.0832  0.1711  0.0282
15338W        W30469  14.165  15.314   2.622  0.1368  0.0570 -0.1060
15339W        W30470   0.045  14.650   5.741  0.1941 -0.2042 -0.0514
15340W        W30471   6.843   8.699  15.010 -0.2055  0.1832  0.0932
15341W        W30472  17.223  11.900   4.776 -0.0483 -0.2040  0.0055
15342W        W30473  13.940   0.126   1.872 -0.1783  0.0023  0.1627
15343W        W30474   0.807   4.891   4.746 -0.2677  0.2059  0.2115
15344W        W30475  13.991  18.260   3.473 -0.0399 -0.3296 -0.2605
15345W        W30476  14.617  18.117   0.949 -0.0000 -0.0438  0.3244
15346W        W30477  16.007   7.971  11.841 -0.0175 -0.0230  0.0573
15347W        W30478   1.771  18.002  12.871 -0.1465 -0.1237  0.3612
15348W        W30479   5.926   3.074  12.779 -0.1681 -0.6096  0.4476
15349W        W30480  16.446  14.050   0.175 -0.2129 -0.2899 -0.2490
15350W        W30481   6.844  14.765  10.265  0.0561 -0.0946  0.0783
15351W        W30482  14.805   1.540   3.049  0.1550 -0.2114  0.3209
15352W        W30483   5.109  11.506   0.480 -0.0701 -0.0513 -0.0503
15353W        W30484  11.767  10.986  15.258  0.0845 -0.0772  0.1004
15354W        W30485   7.146  15.615   3.663  0.1395  0.2311  0.0773
15355W        W30486   8.685  13.331   2.144 -0.0669 -0.1144  0.1975
15356W        W30487   8.033   3.646  15.034 -0.0566 -0.4296  0.1442
15357W        W30488  10.206   7.289  11.949  0.3061 -0.2176 -0.0982
15358W        W30489   0.911   1.893   0.999  0.0357 -0.1461  0.1026
15359W        W30490  13.358   6.410  15.820  0.0037 -0.5489 -0.0511
15360W        W30491  14.333  13.747   0.986  0.2461  0.0385  0.0243
15361W        W30492   6.706   9.065  13.724  0.0571  0.1573  0.0978
15362W        W30493   1.337  16.087  10.526 -0.0060 -0.2795  0.1670
15363W        W30494   6.735  12.279  10.564  0.0617 -0.0536 -0.1642
15364W        W30495   1.148  11.995  14.893 -0.0098 -0.2669 -0.0296
15365W        W30496   1.469  15.975   1.483  0.1548  0.0469 -0.0077
15366W        W30497   6.253   7.900  15.662  0.3099  0.0739  0.0591
15367W        W30498  12.240  10.611  11.350 -0.0060 -0.0869 -0.0265
15368W        W30499  14.561  10.842   9.969 -0.1390  0.1695 -0.0980
15369W        W30500   1.697   3.132   5.087 -0.1857 -0.0662  0.0644
15370W        W30501   8.583   6.849  10.479 -0.0544  0.1045  0.1044
15371W        W30502  18.064  14.352  13.839  0.0234  0.0971  0.0494
15372W        W30503  17.427   5.078  13.911 -0.1630 -0.0486  0.2873
15373W        W30504  10.590   1.747  13.289 -0.1653  0.3383 -0.0706
15374W        W30505  18.086   6.825   4.022  0.0866  0.0726 -0.0535
15375W        W30506  11.260   2.568   4.369 -0.0442 -0.0689  0.0138
15376W        W30507   6.009  17.571  13.733  0.0617  0.1226 -0.2365
15377W        W30508  16.373   7.840  10.760  0.2764  0.0540 -0.2381
15378W        W30509   5.284   6.017   1.867  0.2012 -0.2811 -0.3132
15379W        W30510   7.310   5.124  14.634 -0.0487 -0.1987  0.0393
15380W        W30511   3.211  17.529  15.398 -0.0389  0.0357 -0.0056
15381W        W30512   1.465  10.031   4.834  0.2294  0.0172 -0.0269
15382W        W30513   9.469  14.094  11.308  0.0620  0.0176 -0.0287
15383W        W30514   7.885   9.290  15.186 -0.0688 -0.0980  0.2888
15384W        W30515  18.227   9.144   0.113 -0.2775 -0.1277 -0.0982
15385W        W30516  16.495   3.815  10.304 -0.1165 -0.0210 -0.3472
15386W        W30517  15.878  17.896   0.843 -0.2104  0.0984 -0.0307
15387W        W30518  14.421   1.183  13.013 -0.1029  0.1411 -0.0876
15388W        W30519  12.175   7.953  12.417 -0.3245 -0.0271 -0.1080
15389W        W30520   0.102  17.777   5.651  0.1500 -0.1567  0.5656
15390W        W30521   5.469   9.956  15.800 -0.3546  0.0990  0.1052
15391W        W30522  12.746   9.783   1.766 -0.1325  0.0893 -0.0957
15392W        W30523  15.771   9.751  14.598  0.3230 -0.0797  0.1199
15393W        W30524  17.451  14.514   1.035  0.0377 -0.0882  0.2233
15394W        W30525  17.897   5.470   1.947  0.4311  0.1607  0.3662
15395W        W30526   9.456  12.186   2.266  0.0906  0.5134 -0.2369
15396W        W30527  15.295   4.208  15.189 -0.1947  0.0592 -0.0146
15397W        W30528  11.983   8.052  15.532  0.0501 -0.1824 -0.1221
15398W        W30529  15.504   4.433   2.409  0.2587  0.3741  0.1003
15399W        W30530  15.926   6.653   0.069 -0.1306  0.0623 -0.0351
15400W        W30531   4.993   3.992   1.173 -0.2934  0.2196 -0.1150
15401W        W30532   6.103  14.492   1.730  0.4214  0.0242  0.0876
15402W        W30533   6.090  11.623  14.949 -0.3178  0.2354  0.1302
15403W        W30534   3.882   4.841   5.162 -0.0038  0.1825 -0.0586
15404W        W30535   9.945  15.792  11.492 -0.0164 -0.4426  0.4481
15405W        W30536  15.699  10.009  10.791 -0.4035 -0.2791 -0.1025
15406W        W30537  10.847  17.798  13.976  0.0057  0.0017 -0.1617
15407W        W30538   9.463   8.577  10.922  0.0979 -0.2056 -0.0467
15408W        W30539   1.822   1.421   3.209 -0.1740 -0.0767 -0.1178
15409W        W30540   2.115  12.068   2.197 -0.1123  0.0731 -0.2490
15410W        W30541   3.739  12.569  11.432  0.0913  0.2659 -0.1225
15411W        W30542   5.403   6.536   1.923 -0.0284  0.1949 -0.0622
15412W        W30543   1.916   5.036  11.653 -0.3823  0.0670  0.2081
15413W        W30544  17.638   3.463  11.976  0.1341  0.1908  0.1480
15414W        W30545   0.896  15.539   0.996 -0.1880  0.0718  0.1038
15415W        W30546  10.302   8.746  14.101  0.0760  0.0292 -0.0158
15416W        W30547   9.363   0.309   3.297 -0.3118  0.0334 -0.2250
15417W        W30548   8.209  12.351  10.921  0.0066 -0.0565  0.2717
15418W        W30549   2.260  12.072   0.421 -0.1886  0.2984 -0.3200
15419W        W30550   6.684  12.734   1.861 -0.2855  0.2198  0.3152
15420W        W30551  18.467   8.338   5.023 -0.2272 -0.0956 -0.2217
15421W        W30552   1.201   3.141   0.324 -0.1998  0.3673 -0.1130
15422W        W30553  12.308  17.108  15.073  0.1893 -0.2305  0.1287
15423W        W30554   0.827   6.381  11.272  0.1488 -0.0053  0.0176
15424W        W30555   8.203  11.309  14.906  0.1028  0.0231 -0.1698
15425W        W30556   5.955  14.411  10.869  0.1664  0.0063 -0.3330
15426W        W30557   6.243  15.278   5.794 -0.0186 -0.1134  0.0358
15427W        W30558   6.451   0.185   3.141 -0.3742  0.0759  0.0631
15428W        W30559  13.660   6.316   1.390 -0.0742 -0.2641  0.3819
15429W        W30560   9.334   2.083   3.693 -0.3724  0.0164 -0.1938
15430W        W30561   2.688   0.184   1.349 -0.1191 -0.0587 -0.0398
15431W        W30562  11.946  15.711  10.158 -0.0798 -0.0066  0.1129
15432W        W30563   5.780   9.518  10.511 -0.0942  0.0030  0.0518
15433W        W30564  10.228   4.627  13.570 -0.0186  0.1445  0.2848
15434W        W30565   8.440   2.814   0.255  0.1103  0.0492 -0.1073
15435W        W30566  13.356   3.139  11.756 -0.0127 -0.2559  0.2016
15436W        W30567  15.104  12.728  14.460  0.3164 -0.0071  0.2883
15437W        W30568  14.805   2.117   4.915  0.1153 -0.1024 -0.1455
15438W        W30569  12.106   6.169  12.816 -0.2235  0.1374  0.0589
15439W        W30570   6.735   4.715   2.032 -0.2564  0.0640  0.0398
15440W        W30571  12.599   5.218   5.934 -0.0163  0.0264 -0.1051
15441W        W30572   0.985   5.011   1.254  0.0348 -0.2532 -0.0188
15442W        W30573  17.117  11.195   4.099  0.2157  0.1790  0.1196
15443W        W30574  17.678   7.232  13.525  0.2491  0.2022 -0.2215
15444W        W30575   7.317   8.113   3.972  0.5556  0.0653  0.1504
15445W        W30576  12.346  17.063  10.612 -0.1127  0.2182 -0.0064
15446W        W30577   7.472   9.637   0.533  0.1155  0.0616  0.4703
15447W        W30578   7.157  14.339   0.523 -0.2874  0.1603  0.1473
15448W        W30579   1.837  14.599   2.013 -0.1944 -0.1136  0.0359
15449W        W30580   2.414   8.728  11.906 -0.0950 -0.0942 -0.2626
15450W        W30581   6.075   7.994  12.512  0.1614  0.1204  0.1637
15451W        W30582  13.463   5.859   1.475  0.0343  0.1727  0.0397
15452W        W30583   1.253  16.659   2.798 -0.1573  0.2200 -0.1107
15453W        W30584   8.397   7.045  13.617 -0.2104 -0.0976 -0.1827
15454W        W30585   7.810   9.994   2.754 -0.0079  0.0732  0.4708
15455W        W30586   4.003   0.162  11.611 -0.1334 -0.1106  0.0572
15456W        W30587   3.615   9.689   3.144 -0.1012  0.2449 -0.0268
15457W        W30588  13.054  11.072   1.607 -0.0527  0.1199 -0.0241
15458W        W30589   8.309  11.501  12.357  0.1037  0.4123  0.4616
15459W        W30590  11.109   9.198   1.236 -0.1795  0.0179 -0.1113
15460W        W30591  15.756  10.141   4.729  0.3108  0.0971  0.0119
15461W        W30592   1.020  15.062   4.998 -0.1182 -0.2561 -0.0353
15462W        W30593  14.524  11.430   0.168 -0.2716 -0.1684 -0.0383
15463W        W30594   3.076   0.660   1.901  0.1399 -0.1160  0.0956
15464W        W30595   3.561  11.407   3.498 -0.0009 -0.1997  0.2305
15465W        W30596   6.682   9.262   2.727 -0.1518 -0.2383 -0.0133
15466W        W30597   3.284   6.461  14.744  0.0612  0.1742  0.0292
15467W        W30598  17.156   2.761  14.579  0.2966  0.1902  0.0358
15468W        W30599  13.831   5.736   2.765 -0.1996 -0.0537  0.0181
15469W        W30600  11.035  10.204  11.617 -0.0070  0.0772  0.0444
15470W        W30601  13.940   8.191  15.179  0.0547  0.1731 -0.2365
15471W        W30602  13.842   0.931  15.004 -0.0066  0.1249  0.0186
15472W        W30603   0.450   0.089   2.123 -0.1090  0.1614  0.1654
15473W        W30604   7.243  12.113  14.918 -0.0705  0.0220 -0.2369
15474W        W30605  12.216   0.057   0.735  0.0958 -0.2363  0.0499
15475W        W30606  18.495  16.704  13.602  0.0112  0.0070  0.0522
15476W        W30607  16.030   7.305   5.584 -0.2469  0.0682  0.0961
15477W        W30608  16.192   2.049  11.233  0.2149  0.0501  0.4087
15478W        W30609   9.382   5.882  12.649  0.2935  0.0338  0.1076
15479W        W30610   5.426  14.261  15.000  0.0176  0.1172  0.0976
15480W        W30611  18.340   1.020   3.050  0.0313 -0.1139  0.2057
15481W        W30612   2.283  10.564  15.281 -0.1438  0.0087  0.2475
15482W        W30613  11.112  17.917   3.183  0.0994  0.1288  0.0750
15483W        W30614  16.036   8.364   3.528 -0.1098  0.1625 -0.2255
15484W        W30615  11.794  14.932   0.024 -0.1075  0.1601 -0.1634
15485W        W30616   0.526   4.956   3.436  0.1921  0.3172  0.2191
15486W        W30617  14.195  14.498   3.606  0.0609 -0.1669  0.4697
15487W        W30618   4.614   8.320   9.958 -0.0405 -0.0123 -0.0246
15488W        W30619  17.905  13.264  11.701  0.0820  0.0418 -0.2863
15489W        W30620   9.963  17.376   1.827  0.1060 -0.2418  0.0141
15490W        W30621  18.429   1.796  15.398 -0.0652  0.4200  0.1691
15491W        W30622   0.376   4.146  15.314 -0.1466  0.1597 -0.0738
15492W        W30623  14.628   5.612  14.092  0.0529 -0.1965 -0.0305
15493W        W30624  18.436  15.156   0.850 -0.2785  0.0890  0.0541
15494W        W30625  10.472   4.944  15.171  0.0699 -0.1470 -0.0747
15495W        W30626  15.486  18.208  10.664 -0.1775 -0.1404  0.1181
15496W        W30627   2.739   3.017  15.370  0.0951  0.2695  0.0372
15497W        W30628  11.270   3.495  15.693 -0.1779  0.0468 -0.3679
15498W        W30629   7.831   7.093  14.983 -0.1756 -0.2372  0.0869
15499W        W30630   8.784  17.584   1.945  0.0792 -0.2847 -0.1227
15500W        W30631   8.424  12.570   3.648 -0.0516 -0.0199 -0.0908
15501W        W30632   5.396  11.243  15.515  0.1203  0.1168  0.2216
15502W        W30633   9.914   2.532  14.932  0.1893 -0.1902  0.1080
15503W        W30634  14.772  12.230   0.604 -0.0661 -0.2500 -0.0201
15504W        W30635   5.752  14.541   0.030 -0.4826  0.0624  0.0767
15505W        W30636   2.388  11.583   2.083 -0.5100  0.1340 -0.3258
15506W        W30637  15.386  12.080   5.254  0.2244  0.2283  0.0826
15507W        W30638   5.505  16.135  15.580  0.2104  0.2276  0.1176
15508W        W30639   6.178   0.507   5.265 -0.0231  0.1071 -0.0314
15509W        W30640  12.381   5.580   2.999 -0.1300  0.1821  0.2585
15510W        W30641  17.298  12.620   5.413  0.0196 -0.2505  0.1458
15511W        W30642   4.179   3.692   1.995  0.2447  0.3147  0.0938
15512W        W30643  13.444  14.781   4.141  0.1458  0.1431  0.1715
15513W        W30644  12.732  15.141   4.612 -0.1185  0.3293 -0.0807
15514W        W30645   3.884   1.677   5.319  0.0462 -0.6263 -0.1086
15515W        W30646   7.658   4.092   0.155  0.0209 -0.1979  0.0028
15516W        W30647  15.066   5.517  13.562  0.2533 -0.2874 -0.3355
15517W        W30648   1.493   7.734  11.861  0.4975 -0.0066 -0.2077
15518W        W30649   4.526  13.837  10.557  0.3539 -0.2819 -0.0963
15519W        W30650   0.748   1.319   3.913 -0.1407  0.1705 -0.1597
15520W        W30651   2.611  12.936  13.578 -0.0436  0.2346  0.3291
15521W        W30652   2.032  16.572  10.340  0.0117  0.1861  0.3287
15522W        W30653  16.033   2.844   3.940 -0.2741 -0.1611 -0.1275
15523W        W30654   4.275   2.036   3.277  0.1414 -0.0186 -0.2342
15524W        W30655   4.579  14.192   3.117 -0.0134  0.1622  0.4055
15525W        W30656   6.245  15.980   2.669 -0.0048  0.0060 -0.3879
15526W        W30657   6.661   4.031   0.494  0.3426  0.0222 -0.0717
15527W        W30658   3.852   8.044  10.982  0.0143  0.0268  0.0937
15528W        W30659  16.652   4.009   0.487  0.0378 -0.3299 -0.2611
15529W        W30660  10.267   2.537   3.584 -0.0896  0.1149  0.2527
15530W        W30661   7.727  14.357   4.446  0.4421  0.1068  0.0569
15531W        W30662  12.643   3.472  12.905 -0.0627  0.0149  0.2531
15532W        W30663   7.546  13.267  15.648 -0.0590  0.3147  0.2507
15533W        W30664   0.353  15.452   2.160 -0.2451  0.4508 -0.1955
15534W        W30665  18.211   8.196   6.206 -0.2450  0.0284  0.0131
15535W        W30666   7.927   1.343  13.517 -0.1378  0.1552  0.0826
15536W        W30667   2.562   4.504  14.132 -0.1123 -0.1785  0.0988
15537W        W30668  11.806  12.806   4.089 -0.2769  0.0002 -0.1093
15538W        W30669  11.243  13.352  15.395  0.2046  0.0921  0.0639
15539W        W30670   6.394  12.633  14.978  0.1274  0.1420  0.0699
15540W        W30671   7.882  12.436   3.770 -0.2144  0.1428 -0.1904
15541W        W30672  12.542   9.164  14.130 -0.3713  0.1218  0.1470
15542W        W30673   1.340   7.132   1.574  0.0792 -0.0552 -0.3855
15543W        W30674  15.438   8.347   0.382 -0.1033  0.2804 -0.0417
15544W        W30675   1.930   6.901  15.547 -0.0229 -0.0384 -0.0387
15545W        W30676   0.790   5.234  10.716  0.2252  0.3029  0.0029
15546W        W30677  13.336   3.371  14.244 -0.0553  0.1286 -0.0999
15547W        W30678   4.463   9.523   4.941 -0.1038  0.2813 -0.1471
15548W        W30679  12.763  17.325  10.359 -0.2734 -0.2001 -0.1940
15549W        W30680  16.110  18.007  13.853 -0.1736  0.0536  0.0532
15550W        W30681   2.813  12.088   3.423 -0.3479  0.1034  0.1461
15551W        W30682   0.867   9.384  13.703  0.0880 -0.4393  0.1210
15552W        W30683   1.435   2.127   0.625  0.0970 -0.1598  0.1430
15553W        W30684  16.004  10.832   0.366 -0.1351  0.1796 -0.0108
15554W        W30685   3.661   6.065  13.323 -0.1710 -0.3806 -0.2546
15555W        W30686  15.917   2.451  14.137 -0.1838  0.0290  0.2369
15556W        W30687   1.020   1.573  11.740  0.2461  0.0270  0.1485
15557W        W30688  15.375   8.717  11.933  0.1007 -0.0170 -0.2923
15558W        W30689   1.748   7.326  14.066 -0.2343  0.0125 -0.0029
15559W        W30690  12.660  15.549  11.015  0.0122  0.5278 -0.2840
15560W        W30691  13.848   5.496   3.277  0.2286 -0.0479 -0.0102
15561W        W30692  14.558  10.332  13.852 -0.1389  0.1340 -0.0232
15562W        W30693   0.951  18.185  14.259 -0.1167  0.2772 -0.4997
15563W        W30694  13.587  10.541  13.831 -0.2235 -0.1640  0.3821
15564W        W30695   2.460  14.591   2.695 -0.0315 -0.4646 -0.0704
15565W        W30696  12.495  15.119  10.694  0.1085  0.0930  0.0498
15566W        W30697  12.774   9.074  11.424 -0.1409 -0.4074 -0.2831
15567W        W30698  10.207   7.688  11.018 -0.0391 -0.0789  0.2465
15568W        W30699  13.969  12.573   5.049 -0.0754  0.1907 -0.0863
15569W        W30700   7.139  13.076  14.734  0.2776  0.0756  0.0349
15570W        W30701  17.906   6.467   4.360 -0.0567  0.2109  0.0173
15571W        W30702  15.940   3.302  12.614  0.2277 -0.1444  0.0398
15572W        W30703   6.048   7.727   9.877 -0.0976  0.0477  0.0558
15573W        W30704  10.801  11.052   1.901  0.3961 -0.2139 -0.2199
15574W        W30705  16.284   8.450   2.051 -0.1639 -0.1325  0.3087
15575W        W30706   0.438  16.696  15.791 -0.2010  0.0798 -0.1754
15576W        W30707   2.185  16.147   0.621  0.1238  0.0050  0.0202
15577W        W30708   6.476   6.287   0.011 -0.1752 -0.2572 -0.0092
15578W        W30709   2.661   2.203  12.797  0.1541  0.0221  0.1653
15579W        W30710   1.696   9.642   3.231  0.3929  0.1799  0.3741
15580W        W30711  10.860  14.903  12.299  0.1305 -0.1152 -0.0686
15581W        W30712   2.639   2.504   2.485 -0.0328 -0.1384 -0.1991
15582W        W30713   9.111  14.084  14.569  0.1880 -0.2419  0.1619
15583W        W30714  12.703   6.400  15.179  0.1905  0.3122  0.0006
15584W        W30715  10.688   8.188  10.873 -0.0752  0.1946 -0.0495
15585W        W30716  13.141   1.182   1.064 -0.1060 -0.1197 -0.1368
15586W        W30717   2.106   0.260   2.849 -0.0916 -0.3090 -0.0638
15587W        W30718   5.909  13.549   1.913  0.2630  0.1932 -0.0367
15588W        W30719   1.884  16.346   1.602 -0.1454  0.2642  0.0234
15589W        W30720   1.391   3.299  15.093  0.0455 -0.0974 -0.0227
15590W        W30721   6.550   0.310   4.949 -0.3234  0.0781  0.0933
15591W        W30722  14.719  13.336   5.983  0.1216 -0.0748 -0.1504
15592W        W30723  16.089  14.932   5.288 -0.0547 -0.1935 -0.1896
15593W        W30724  17.672  11.472  11.654 -0.0013 -0.0583  0.1584
15594W        W30725  15.374   0.177   2.214  0.2881  0.0536  0.0531
15595W        W30726   5.650   5.887   5.023  0.1506  0.1115  0.0622
15596W        W30727   7.128   2.314   1.827  0.1558 -0.2095  0.0176
15597W        W30728   9.117  15.627  12.259  0.1912  0.1131  0.1837
15598W        W30729  15.535  15.678  12.456  0.2014 -0.0012  0.0896
15599W        W30730  15.509   4.263  14.675 -0.0110  0.0480 -0.0590
15600W        W30731   9.849  10.955   3.380  0.0697 -0.1667 -0.0746
15601W        W30732  10.232   2.719   4.851  0.2868 -0.0281  0.3475
15602W        W30733   1.770  15.729   4.746 -0.0092 -0.0787 -0.1741
15603W        W30734  11.470  18.071   4.299 -0.0540 -0.2944 -0.0740
15604W        W30735   7.007  16.367  13.732  0.1239  0.3210 -0.1310
15605W        W30736   4.095  10.845   3.946  0.0554 -0.0718  0.1152
15606W        W30737   1.302  14.463  13.958 -0.0465 -0.0702 -0.0383
15607W        W30738  12.341  14.093   1.663  0.0210  0.0321  0.1816
15608W        W30739  15.849   8.539   4.336  0.0765 -0.1796  0.0933
15609W        W30740   1.499   1.434  11.659  0.0440  0.2476 -0.3031
15610W        W30741  15.277   3.996  15.699  0.2315  0.1469  0.0412
15611W        W30742  18.123  16.710  11.277  0.0524  0.2627  0.0884
15612W        W30743  10.064   8.951  14.656  0.0553  0.0264  0.1847
15613W        W30744  10.063   5.216   3.968  0.2760 -0.2164  0.1271
15614W        W30745   0.959   1.045   4.330  0.0967 -0.0237 -0.2237
15615W        W30746   2.949   8.613   1.694 -0.2172 -0.0104  0.4120
15616W        W30747  13.130  10.958  13.727 -0.0610  0.5263 -0.5446
15617W        W30748   9.571   8.971   4.083  0.2305 -0.0042  0.3145
15618W        W30749   2.396   5.621  15.244  0.2705  0.0469 -0.0656
15619W        W30750   9.709   3.582   3.963  0.0953 -0.0590 -0.1197
15620W        W30751   8.798   4.151  11.575 -0.6361 -0.0470  0.2187
15621W        W30752   0.482   0.197   2.883  0.0890 -0.0012  0.2168
15622W        W30753   8.664  14.040   9.741  0.3195  0.0838 -0.1597
15623W        W30754   3.461   5.637  13.133 -0.0077  0.0057  0.0446
15624W        W30755  14.368   7.772   4.314  0.3522 -0.1664  0.3794
15625W        W30756   2.692  12.245  14.044  0.0143 -0.0081 -0.3048
15626W        W30757   1.943  12.221  13.729  0.0350  0.1886  0.2500
15627W        W30758   4.519  10.550   2.442  0.1315 -0.0168 -0.0200
15628W        W30759   5.260  12.432  14.956 -0.1657  0.2583  0.2965
15629W        W30760  10.719   4.861   1.109  0.1926 -0.1368  0.0967
15630W        W30761   6.840   4.051   4.007  0.1631  0.0605 -0.0723
15631W        W30762  15.128   5.757  12.030 -0.2311  0.0464  0.1554
15632W        W30763   5.972  13.070   2.818  0.1022 -0.1079 -0.3223
15633W        W30764   5.857   8.712  15.864  0.4596 -0.1119 -0.3614
15634W        W30765   4.549   9.312   2.999 -0.0872 -0.0677  0.1270
15635W        W30766  10.735   9.352   1.552 -0.2398  0.0798  0.1611
15636W        W30767   3.703  13.871  11.784  0.2655  0.2209 -0.0780
15637W        W30768  12.465  12.253   5.210  0.4706  0.1456 -0.1077
15638W        W30769  14.164   4.618   1.032  0.1184 -0.0100  0.1985
15639W        W30770   1.475  13.198  12.117 -0.2695  0.0962 -0.0140
15640W        W30771   7.223  12.812   2.563 -0.1161 -0.1080  0.2171
15641W        W30772  10.519   0.863  15.401 -0.1658  0.1854  0.0118
15642W        W30773  14.379   6.102   5.269  0.3675 -0.1358 -0.1104
15643W        W30774   4.339   2.879  13.713 -0.0035  0.2074 -0.3033
15644W        W30775  12.552  13.696   2.528 -0.0669  0.0353  0.0406
15645W        W30776   2.361  18.371   1.125 -0.0477 -0.1166  0.0309
15646W        W30777   3.540  10.945  15.770  0.1033  0.0467  0.0356
15647W        W30778  13.303   6.466   4.372 -0.3343 -0.0790  0.0060
15648W        W30779   0.011  17.208  15.070 -0.0379 -0.2063 -0.0347
15649W        W30780  17.266   7.471   0.553 -0.0699 -0.3160 -0.0252
15650W        W30781  11.815   5.687  12.143  0.3391 -0.1688  0.5918
15651W        W30782  14.244  12.023   4.352  0.0126  0.0808  0.0972
15652W        W30783   3.444   1.872  11.058  0.1806 -0.1486 -0.1285
15653W        W30784  15.515   2.179  14.994  0.3029  0.4412 -0.0357
15654W        W30785  13.040   7.181  11.340  0.0525  0.3137  0.0010
15655W        W30786  13.901  10.916  13.310 -0.0818  0.0315  0.1413
15656W        W30787   0.199  12.482   2.947 -0.2247  0.0568  0.5187
15657W        W30788  18.094   0.133   4.647  0.3672  0.5278 -0.1034
15658W        W30789   9.502   5.201   3.120 -0.0300 -0.0965  0.0732
15659W        W30790  12.467   0.839   1.757  0.0986 -0.0897  0.0104
15660W        W30791  15.159  15.576  11.165 -0.2227 -0.1762  0.0274
15661W        W30792  15.761  14.190  11.501 -0.4789  0.1571  0.0576
15662W        W30793  11.543  16.206  14.970 -0.3813 -0.1031 -0.0699
15663W        W30794   4.238  13.178   0.836  0.2608 -0.1977 -0.0217
15664W        W30795  11.215   8.249  10.906 -0.2041  0.1295 -0.1428
15665W        W30796   1.551  17.954  15.567  0.0199  0.4170  0.1050
15666W        W30797  15.493   7.440   5.662  0.0595  0.1036  0.0625
15667W        W30798  10.165  10.421   3.335 -0.0467  0.1742 -0.0838
15668W        W30799   0.167  14.445   1.517 -0.1824  0.0528 -0.2340
15669W        W30800   1.182  16.280   9.943 -0.1190 -0.3815 -0.1727
15670W        W30801  15.641  16.143   1.457 -0.1536  0.0631  0.1086
15671W        W30802  10.834   9.799  11.972 -0.0003 -0.0369 -0.1808
15672W        W30803   5.938  15.861  15.442  0.1280 -0.0254 -0.0212
15673W        W30804  13.812   4.060   3.152 -0.1163 -0.0839 -0.1169
15674W        W30805  16.920  12.734   1.846 -0.2984  0.1480  0.2091
15675W        W30806  10.776  17.925   4.923 -0.2448 -0.0475 -0.2844
15676W        W30807  17.151  13.091   5.295 -0.0339  0.0592  0.0938
15677W        W30808   0.735  16.802   1.590 -0.1364  0.0214  0.1858
15678W        W30809  12.007   9.651  11.050  0.1553 -0.2191 -0.0447
15679W        W30810  12.212   7.215  11.966 -0.0691 -0.1311 -0.0963
15680W        W30811  17.879   5.440  14.419  0.0379 -0.1615 -0.0470
15681W        W30812   8.967   8.337  11.142  0.1685 -0.1882 -0.1100
15682W        W30813  18.521  13.680  12.119  0.0186 -0.0931  0.1005
15683W        W30814  18.207   7.817  12.204  0.0612  0.0240 -0.0657
15684W        W30815  12.332  11.855   4.852  0.0517 -0.4816 -0.1667
15685W        W30816  10.732   7.442   4.825  0.3058  0.4052 -0.3091
15686W        W30817  16.119   2.399   3.642 -0.0559 -0.1051  0.1917
15687W        W30818  16.434   3.966   5.113  0.1319 -0.0947  0.4000
15688W        W30819  16.556   0.173  15.400  0.2420  0.3555  0.1999
15689W        W30820   5.036  11.100  10.637 -0.2350  0.2106  0.1251
15690W        W30821   5.239  13.183   4.148 -0.1858  0.2067  0.4279
15691W        W30822  13.582   4.207   3.621 -0.0424  0.0572 -0.1289
15692W        W30823  16.137   4.048  12.693 -0.3277 -0.0828  0.1439
15693W        W30824   8.158   3.118   9.658  0.0679  0.3609  0.1079
15694W        W30825  16.605  16.157  11.862 -0.2087 -0.1012  0.1216
15695W        W30826  11.054   6.530  14.037  0.0590  0.1185  0.0900
15696W        W30827  18.295  10.685   2.447 -0.0672  0.2345 -0.0967
15697W        W30828   8.842   0.876   2.416 -0.1389 -0.1074 -0.0839
15698W        W30829  17.141   5.335   0.683 -0.0730 -0.1858  0.0143
15699W        W30830   7.962   9.693  10.965  0.0882 -0.0881  0.2601
15700W        W30831  13.923  16.401  12.643  0.0927 -0.1039 -0.2397
15701W        W30832  14.147  17.918   1.071 -0.3267 -0.3813 -0.2247
15702W        W30833  12.738  16.213   1.269 -0.3483  0.0780  0.3416
15703W        W30834   2.366   1.659  11.882  0.0379  0.0994 -0.2104
15704W        W30835   6.352  17.248   0.061  0.0104  0.1608 -0.1885
15705W        W30836  17.220  18.519   3.466  0.1599 -0.1158 -0.1349
15706W        W30837   9.696  11.820   1.389 -0.0842  0.3479 -0.0309
15707W        W30838  11.306   9.700  15.026 -0.0983  0.4049 -0.1071
15708W        W30839   8.127   5.193  12.020  0.0191  0.0326 -0.1015
15709W        W30840  12.509  12.617   4.438  0.0851 -0.2724 -0.0665
15710W        W30841  14.034   2.038   1.727  0.0265 -0.0543  0.2500
15711W        W30842   4.091   6.551   6.061  0.1959  0.1215 -0.2481
15712W        W30843  16.383  14.705   2.798 -0.2800  0.0949 -0.1384
15713W        W30844  12.555  18.335   1.041  0.0424 -0.2547  0.1550
15714W        W30845   3.369  14.375  14.693  0.1982 -0.1182 -0.0864
15715W        W30846  11.193  11.344  13.939  0.2323  0.0886 -0.2574
15716W        W30847  17.035  12.131   3.902  0.1936 -0.1494 -0.1187
15717W        W30848   9.618  14.982   1.673 -0.1469 -0.0361  0.3365
15718W        W30849  13.972   1.330   1.891  0.0984  0.0711 -0.1960
15719W        W30850  17.048  14.736   1.363 -0.0506 -0.2366 -0.0831
15720W        W30851   0.526   7.029  15.216 -0.0296  0.0566  0.0574
15721W        W30852   3.345  14.308   3.000 -0.1369 -0.4510  0.0861
15722W        W30853   8.589  11.298  14.297  0.1522 -0.0799  0.3893
15723W        W30854   2.181   8.981  13.802 -0.1594 -0.6268 -0.0874
15724W        W30855   7.779   0.868  12.019 -0.2747  0.2464 -0.0877
15725W        W30856   2.670  16.269  13.585 -0.4195  0.0085 -0.1334
15726W        W30857   9.708  16.134   0.084  0.1235  0.0966  0.1167
15727W        W30858   9.573   5.918   2.195 -0.1181  0.1046 -0.1960
15728W        W30859   4.891  15.982   4.190  0.3111 -0.2346  0.4805
15729W        W30860  18.376  18.464   3.516  0.3772  0.1219  0.1079
15730W        W30861   8.645  12.736  14.271 -0.0433  0.1256 -0.0207
15731W        W30862   9.682  15.368   1.340 -0.2715  0.1392 -0.1149
15732W        W30863   3.125   3.751   2.105 -0.1063  0.0493  0.2738
15733W        W30864  15.350   6.180   3.320 -0.0395  0.2940 -0.0158
15734W        W30865  13.341   0.901   4.411  0.2298  0.2316  0.2096
15735W        W30866   3.820  16.087  10.620  0.0270  0.1518 -0.2349
15736W        W30867  11.801  13.809   5.040 -0.2614 -0.1696 -0.3796
15737W        W30868  12.432   3.307   1.598 -0.2411  0.0305  0.0156
15738W        W30869  15.449  15.968  12.098  0.1386  0.0367 -0.0580
15739W        W30870   1.524  18.512  10.263 -0.1357 -0.0892  0.0588
15740W        W30871  13.110   0.219   2.357 -0.1131 -0.1333  0.0156
15741W        W30872  10.696   1.145  13.309 -0.2549  0.0271 -0.0882
15742W        W30873   9.934  13.131  11.078  0.3229 -0.0299 -0.1018
15743W        W30874   2.557  10.072  15.487 -0.1409  0.0998  0.0313
15744W        W30875  10.025   2.630   5.880  0.2939 -0.0844  0.0028
15745W        W30876  10.148  14.192  10.726 -0.0777 -0.2364  0.2803
15746W        W30877   5.844   4.029   4.021 -0.2838  0.0990 -0.1736
15747W        W30878  15.829  17.391   2.292 -0.3081  0.0508  0.1840
15748W        W30879   7.771   9.882   5.262  0.3251 -0.1831  0.0899
15749W        W30880   5.628   8.971  14.115  0.0631 -0.0576  0.1428
15750W        W30881  10.757  14.459   9.269  0.0798 -0.2432  0.1130
15751W        W30882  13.461  13.375  12.518 -0.1652 -0.0039 -0.0557
15752W        W30883   0.162   4.244  11.541 -0.1450  0.0609 -0.3012
15753W        W30884  10.052   2.142  15.325  0.0985  0.3240 -0.1472
15754W        W30885  16.348   3.689   3.901 -0.0876  0.1680 -0.3135
15755W        W30886  16.331   5.425   3.507  0.0209  0.4639  0.2934
15756W        W30887   3.410   3.958  11.975 -0.3092 -0.4337 -0.0548
15757W        W30888  11.476  13.538  11.888  0.4846 -0.2422  0.4420
15758W        W30889   0.541  17.045   4.971 -0.2911 -0.1524 -0.1720
15759W        W30890   5.854  17.131   4.515  0.1354  0.0446 -0.2614
15760W        W30891  18.425  12.128   0.468 -0.1380  0.1762 -0.1623
15761W        W30892  10.364  13.103  14.832  0.1183 -0.1178  0.1848
15762W        W30893   9.174  17.184   3.376 -0.1224 -0.1829 -0.0566
15763W        W30894  12.678   1.182   1.358 -0.2297  0.0418 -0.0595
15764W        W30895  12.136   3.004   1.915  0.2010 -0.3309 -0.3737
15765W        W30896  11.331  12.732  15.291 -0.2280 -0.1380 -0.0632
15766W        W30897  15.486   9.009  14.696  0.1807 -0.1897  0.0918
15767W        W30898   8.031  10.967   0.822 -0.0103 -0.1231  0.0107
15768W        W30899   2.710  17.837   4.855 -0.0437 -0.0750 -0.0480
15769W        W30900  15.938  11.705   3.571 -0.0126 -0.0843  0.0936
15770W        W30901  16.803   6.463  13.148 -0.0948  0.0680  0.1297
15771W        W30902   9.712   5.506   2.470  0.0546 -0.2322  0.0123
15772W        W30903  11.702   2.212  12.049  0.0208  0.1003  0.0765
15773W        W30904   0.934   9.707   2.527  0.0407 -0.4103  0.2971
15774W        W30905  16.464   1.250   2.982  0.1910 -0.1244  0.1113
15775W        W30906   2.011   9.451   4.452  0.0465  0.3350  0.1181
15776W        W30907  15.682  17.977  11.047 -0.2251 -0.3335 -0.2477
15777W        W30908   9.403   2.576  15.105  0.0170  0.4744 -0.2638
15778W        W30909  11.768   9.999  11.989 -0.0283 -0.1593 -0.0127
15779W        W30910   4.251  12.317  12.514  0.1120 -0.1966  0.3581
15780W        W30911   3.960  12.916  15.525  0.2516  0.1430 -0.0975
15781W        W30912   5.412   3.270   0.730 -0.2372 -0.1043  0.1869
15782W        W30913   1.468   8.642  14.161 -0.1622 -0.1458  0.2520
15783W        W30914  15.272  16.811   4.763  0.1688  0.0395  0.1695
15784W        W30915  15.552   6.468  11.709  0.3519 -0.2361 -0.0998
15785W        W30916   9.665  13.632   2.143  0.0263  0.0080  0.2317
15786W        W30917   9.475  10.240  15.869 -0.1190  0.1039 -0.2017
15787W        W30918   5.946  14.156   5.213 -0.0189  0.1872  0.0086
15788W        W30919   8.250  12.715  11.807 -0.3667  0.0781 -0.2691
15789W        W30920   4.694  14.651   4.294 -0.3378  0.1666  0.3884
15790W        W30921   9.437   8.324   5.301  0.1610  0.2708 -0.0704
15791W        W30922  13.387  16.887  12.182  0.1009 -0.0178  0.1020
15792W        W30923  12.138   3.574  12.033  0.0131  0.1457  0.1346
15793W        W30924  15.736   9.711   1.152 -0.1870 -0.0606 -0.4247
15794W        W30925   1.744   8.034   1.681  0.0161  0.1256 -0.1006
15795W        W30926   5.361   3.438   3.215 -0.0103  0.0721  0.1760
15796W        W30927   5.197   6.979  12.359  0.0412  0.1543  0.0195
15797W        W30928  13.662   2.303   5.523 -0.1969 -0.2757  0.1745
15798W        W30929   6.490   0.570  12.283 -0.3293  0.2159  0.0663
15799W        W30930  16.547   7.460   2.161 -0.0065  0.1245  0.2020
15800W        W30931   6.758   1.743  15.244  0.1015  0.0850 -0.1576
15801W        W30932   4.469  14.884   0.976 -0.0535  0.0732 -0.3236
15802W        W30933  16.797   6.335   3.106  0.0685 -0.0918 -0.1650
15803W        W30934   2.161  15.581   4.507  0.1136  0.1638 -0.1235
15804W        W30935   4.581   7.064   0.396  0.3615  0.1872 -0.1138
15805W        W30936   9.145   5.682   2.182 -0.0416 -0.1123  0.0892
15806W        W30937   7.088  14.181   5.635 -0.3816 -0.0782  0.1597
15807W        W30938   2.554   7.408   0.181 -0.0599 -0.1232 -0.1639
15808W        W30939   0.034  17.276  11.952 -0.0684 -0.1932  0.0084
15809W        W30940  16.915   0.183   0.791 -0.1996 -0.0664  0.0087
15810W        W30941  11.615   1.668  10.095  0.1618  0.0360 -0.0164
15811W        W30942   6.311  10.120   0.025 -0.0698 -0.0339  0.2383
15812W        W30943  14.434   4.512   3.510 -0.0690  0.1866  0.0104
15813W        W30944  10.196  17.210   4.751  0.0304  0.0476 -0.1967
15814W        W30945   8.338  10.428  10.314 -0.2127  0.0009 -0.0786
15815W        W30946   1.566   9.186  15.271 -0.2149  0.4114 -0.1857
15816W        W30947  14.792   4.157  13.022  0.1093  0.0261 -0.1685
15817W        W30948   5.363   3.397  14.495 -0.0335 -0.0821 -0.2063
15818W        W30949  13.297   2.051  11.726 -0.1005 -0.1438 -0.4145
15819W        W30950   3.249   6.367  14.235  0.2089 -0.1912  0.1853
15820W        W30951   6.628   7.247  14.109 -0.1216  0.1474  0.0416
15821W        W30952   9.767   1.025  10.536  0.0001  0.1794  0.0353
15822W        W30953  11.907   7.214   0.084 -0.0645 -0.2365 -0.0942
15823W        W30954   5.827   2.678  14.923 -0.3910  0.2217 -0.0590
15824W        W30955  10.087  16.176   4.983  0.1236 -0.0197  0.1357
15825W        W30956  16.032   7.682  14.544 -0.0613 -0.0134 -0.2203
15826W        W30957   4.115  17.225  13.619  0.0761 -0.0871  0.2867
15827W        W30958   7.405   5.260   2.442  0.0964 -0.1951  0.2565
15828W        W30959   8.158   7.372  14.556  0.1443  0.0697 -0.1090
15829W        W30960  11.983  12.758   0.738 -0.0627 -0.2803  0.1626
15830W        W30961  11.300  12.343  12.137 -0.2650 -0.2194  0.0048
15831W        W30962  13.350   3.649  14.707  0.0744  0.0294  0.1283
15832W        W30963   6.066   1.856  12.131 -0.1519  0.2955  0.0748
15833W        W30964  14.207   4.470   4.396 -0.1239  0.1146 -0.1984
15834W        W30965   7.007  10.103  14.200  0.1442 -0.2902  0.0857
15835W        W30966  10.809   9.427  14.905 -0.0599  0.1896  0.0884
15836W        W30967   5.070   7.047   3.124  0.2193  0.0583 -0.1152
15837W        W30968   0.656  12.813  15.709 -0.4939  0.0534 -0.1105
15838W        W30969   5.419   2.335   0.415  0.1955  0.2029 -0.1657
15839W        W30970   4.833  16.196  10.686 -0.0845 -0.1359 -0.1720
15840W        W30971   3.306   7.729  14.637 -0.2326  0.4229  0.0127
15841W        W30972  14.146   1.033   0.990  0.1285  0.1388 -0.0618
15842W        W30973  13.845   0.636  14.498 -0.1853  0.1157  0.0137
15843W        W30974  13.921   2.103   9.932 -0.2034 -0.1845 -0.2180
15844W        W30975   5.223  12.345  10.817  0.1821 -0.0284  0.0634
15845W        W30976   8.220  14.330   4.982 -0.2578 -0.2329  0.1507
15846W        W30977   9.949   8.555   1.364  0.2600  0.1772 -0.1173
15847W        W30978  17.469   0.409   0.785  0.0616 -0.0191  0.0557
15848W        W30979  11.295  14.389  15.669  0.1503 -0.3855  0.1423
15849W        W30980   9.543  17.614   0.918  0.3462 -0.2212  0.3978
15850W        W30981   1.762  12.890  11.700 -0.0826  0.1816 -0.0237
15851W        W30982  17.325  10.590   2.306  0.2484  0.1077  0.2302
15852W        W30983   0.285  13.351   3.028 -0.0108 -0.0881  0.1011
15853W        W30984  14.561   5.805  14.551  0.0505 -0.1031  0.0843
15854W        W30985  14.151   6.635   4.399 -0.0781  0.0897 -0.0863
15855W        W30986   2.904  13.629  12.711  0.1363 -0.3236 -0.1603
15856W        W30987   9.235   4.460   2.632 -0.4237 -0.3906 -0.0294
15857W        W30988   4.235   7.939   4.777  0.0064 -0.0655 -0.1205
15858W        W30989   9.895  18.260   2.548 -0.2378  0.0066  0.0583
15859W        W30990  17.297   6.588   3.124 -0.1743  0.0084  0.1753
15860W        W30991   7.321  12.733   1.095  0.0262  0.3154  0.1008
15861W        W30992  16.201  14.846   4.157 -0.0601 -0.2024  0.0550
15862W        W30993   6.611   2.574  14.707 -0.0805  0.2351 -0.3426
15863W        W30994  11.678  12.589  13.771  0.0309 -0.3950  0.0055
15864W        W30995  12.953  11.812  13.685  0.0701  0.0057 -0.1262
15865W        W30996  16.530  10.664   5.208 -0.2900 -0.2147  0.1225
15866W        W30997  10.670  14.986  15.475 -0.0348  0.2210 -0.4566
15867W        W30998   7.959   4.407  15.633  0.3202  0.0981 -0.0295
15868W        W30999   0.404  16.856  11.712 -0.0709 -0.0640  0.0098
15869W        W31000   1.561  13.065  10.779  0.1038  0.0831 -0.3707
15870W        W31001   3.290   6.594  11.450 -0.0206 -0.2143  0.1083
15871W        W31002   6.180  17.753  11.831 -0.0260  0.4336  0.1524
15872W        W31003  13.414   8.632   5.096 -0.2662 -0.1853 -0.3883
15873W        W31004   0.220  13.095  15.388 -0.0063  0.1250  0.1084
15874W        W31005   7.865  14.488  12.465  0.4550  0.0886 -0.3665
15875W        W31006   0.038   4.327   2.743 -0.1126 -0.1974 -0.0988
15876W        W31007   1.257  14.358  11.582  0.1837 -0.2586  0.0027
15877W        W31008   1.580   9.100   0.447  0.0979  0.0105 -0.0808
15878W        W31009  13.975  14.654  12.484  0.4103  0.0003 -0.0631
15879W        W31010   2.796  13.269   0.875 -0.1654  0.0135  0.2565
15880W        W31011  13.680   4.798  15.647 -0.0719  0.3298 -0.1776
15881W        W31012   5.567   0.071  10.988 -0.0007  0.1349  0.1596
15882W        W31013  14.632   0.783   5.782 -0.1362  0.0420  0.0296
15883W        W31014   6.942   2.402   0.707 -0.3436  0.1420 -0.2475
15884W        W31015  11.856   7.158  13.337 -0.1788 -0.0686 -0.1630
15885W        W31016   0.440  11.312  14.931 -0.3043  0.2635  0.0520
15886W        W31017   3.803   1.809  11.425  0.0782 -0.0861 -0.2888
15887W        W31018  13.860   9.324   5.014  0.1867  0.0687 -0.0414
15888W        W31019  17.659  16.965  11.218 -0.0501 -0.2345 -0.1127
15889W        W31020  17.697   6.256  13.543  0.1823 -0.3155 -0.0293
15890W        W31021   6.071   5.930  12.078 -0.0691  0.1194 -0.0192
15891W        W31022  17.338   8.398   2.685  0.1681 -0.2567  0.2684
15892W        W31023  10.420   9.777  14.940  0.2122 -0.0723 -0.1112
15893W        W31024  11.752   5.082   2.003  0.0880 -0.1901 -0.0564
15894W        W31025  12.415   9.895  11.881  0.1944 -0.1387  0.0991
15895W        W31026  17.057  10.376  14.030 -0.1081  0.3194  0.0916
15896W        W31027   4.837  13.233  10.449  0.0775 -0.3848 -0.2823
15897W        W31028   0.848  13.764  15.717 -0.1320 -0.2182  0.0852
15898W        W31029  14.985   5.415  12.327 -0.1692 -0.3642 -0.0952
15899W        W31030   3.360   2.051   3.462 -0.3006 -0.1801  0.1186
15900W        W31031   0.574   3.780   3.363  0.2990 -0.2227  0.1151
15901W        W31032   6.964   6.280   0.090  0.2735 -0.3795  0.1002
15902W        W31033   9.055   5.263  12.124 -0.1369  0.0494  0.0818
15903W        W31034  13.583   5.226  15.266  0.0105 -0.1352  0.0167
15904W        W31035   9.844   5.669   1.124  0.2028 -0.0291  0.0153
15905W        W31036  11.006   2.069   3.995  0.1144  0.1371  0.2343
15906W        W31037  16.934   5.949  11.812  0.0632  0.4168 -0.0894
15907W        W31038  17.449  10.259  11.201 -0.2595 -0.2988  0.1807
15908W        W31039   1.564   1.385  11.147  0.2332 -0.0496  0.0532
15909W        W31040   9.576  15.504   2.768  0.1006  0.4691 -0.0752
15910W        W31041   1.315  10.459   3.696 -0.0174 -0.0015  0.1179
15911W        W31042  13.086  12.394  10.683 -0.0610  0.1538  0.0117
15912W        W31043  18.519  16.879   4.171 -0.0446  0.0996  0.2117
15913W        W31044   4.892  12.568   4.923  0.0793  0.0534 -0.1210
15914W        W31045  13.201  18.326  13.186  0.4007 -0.2819  0.0343
15915W        W31046   5.152   5.478   1.937 -0.1842 -0.1022  0.0631
15916W        W31047  11.776  14.830   2.026 -0.0093 -0.1177  0.0202
15917W        W31048   4.127  17.060  10.048  0.0110  0.1499 -0.3014
15918W        W31049  13.579   0.007  15.473  0.0016  0.1331 -0.0333
15919W        W31050   8.114  14.080  14.236 -0.0534 -0.0019 -0.0615
15920W        W31051  12.617   0.013   0.003 -0.2518  0.2998  0.0839
15921W        W31052  11.334  12.176  13.337 -0.0546 -0.0937 -0.0006
15922W        W31053  16.975   7.107  12.644 -0.3103 -0.4682  0.3484
15923W        W31054   8.343   5.767  12.293  0.0606  0.3801 -0.1488
15924W        W31055   4.659   7.343   4.469  0.0796 -0.0559 -0.0436
15925W        W31056   3.167  12.245   0.146  0.0628 -0.1699 -0.1499
15926W        W31057   6.515   6.327   3.885  0.1767  0.0312 -0.0542
15927W        W31058   2.442   3.880  12.863 -0.1020 -0.0192  0.0977
15928W        W31059   5.353  16.146  11.370 -0.4179  0.0488  0.1629
15929W        W31060  11.348   9.489   0.897  0.1909 -0.3548 -0.0181
15930W        W31061  16.638  14.184  15.478 -0.0612 -0.0426 -0.0120
15931W        W31062  11.685   8.132  14.207 -0.0507  0.0015  0.0829
15932W        W31063   7.741  12.976   2.633 -0.0907  0.2885  0.1847
15933W        W31064   7.697   5.701  15.293  0.0331  0.4133 -0.1643
15934W        W31065  17.138  13.489   5.010 -0.2689 -0.0773  0.0409
15935W        W31066  14.471  16.320  12.635  0.0274 -0.1356 -0.2274
15936W        W31067  12.207  10.146  14.075 -0.0511  0.0102  0.0334
15937W        W31068  14.373  11.146   1.409  0.0584 -0.1207 -0.0030
15938W        W31069   3.140  12.772  12.234  0.0133 -0.0133  0.0339
15939W        W31070   4.236   5.632  11.883 -0.4552 -0.2316 -0.1896
15940W        W31071  14.019  14.463   0.455  0.2271  0.1074  0.0236
15941W        W31072   8.174  12.344   2.025 -0.3520 -0.1824  0.0994
15942W        W31073  18.344   9.983   5.709 -0.1092  0.0809 -0.0310
15943W        W31074   7.073   3.139   2.963 -0.2591 -0.1863 -0.0535
15944W        W31075   5.840  18.471  12.413  0.1487 -0.0177  0.1527
15945W        W31076   5.688  12.101   1.868  0.0738  0.2594  0.2156
15946W        W31077   9.740  15.039  12.476 -0.1049 -0.2189 -0.0847
15947W        W31078  13.721   4.202   0.633  0.3079  0.0273  0.0108
15948W        W31079   6.412  17.641   2.959 -0.0347  0.0622  0.1220
15949W        W31080  16.714  17.532  11.714  0.0476 -0.0205 -0.1320
15950W        W31081   2.412  13.665  12.874 -0.2855  0.0893 -0.0367
15951W        W31082  13.665  10.580  12.913  0.2969  0.0810  0.3662
15952W        W31083  13.260  14.324   3.154  0.1365 -0.3008  0.0370
15953W        W31084   0.357  10.781   5.145  0.1496  0.0647 -0.2731
15954W        W31085  14.819   6.355  11.125 -0.1024  0.1504  0.3332
15955W        W31086   7.543   4.566   2.560  0.2526 -0.0092  0.0664
15956W        W31087   1.136   6.310  14.929  0.1543 -0.2132 -0.0076
15957W        W31088  16.208  18.028  14.949 -0.1618  0.2637 -0.1057
15958W        W31089  12.425   9.329   5.842  0.2457 -0.1871  0.2275
15959W        W31090  10.587  10.610  12.966 -0.3254  0.1445  0.1638
15960W        W31091   0.875   7.496   6.346 -0.2424 -0.0664 -0.1925
15961W        W31092  10.312   7.814  13.790 -0.2586  0.3195  0.4681
15962W        W31093  10.608  15.087  14.874  0.0706 -0.0624 -0.2572
15963W        W31094   5.821  11.710   0.206 -0.1322  0.4606 -0.1482
15964W        W31095  18.114  13.372   3.254  0.2651  0.1073 -0.1898
15965W        W31096  15.047  11.892   9.292 -0.0396 -0.0427 -0.4654
15966W        W31097  12.514   8.681  13.246 -0.0210 -0.0005 -0.1731
15967W        W31098   5.535   5.894  14.270  0.0959 -0.1042  0.2115
15968W        W31099  14.354  12.998  15.417  0.1482 -0.2034 -0.1226
15969W        W31100  10.922   9.764   4.931 -0.0049  0.2123 -0.1373
15970W        W31101  16.630   0.342   0.175 -0.4171  0.1241  0.0091
15971W        W31102  16.231   1.028  11.072  0.0157  0.0422  0.0203
15972W        W31103  17.361  12.598  13.714 -0.1717  0.2375  0.0917
15973W        W31104   9.839   4.239   3.055  0.0730  0.0752 -0.2010
15974W        W31105  18.125  13.945  14.277 -0.1906 -0.0610 -0.1338
15975W        W31106  11.470   7.675   1.706 -0.1276  0.0465  0.0506
15976W        W31107  13.756  17.934   4.818 -0.0403  0.3253  0.0233
15977W        W31108   3.301  12.751  11.109  0.0413 -0.3640 -0.1311
15978W        W31109   8.429  14.985  15.199 -0.1377  0.1844  0.0738
15979W        W31110   7.677  10.790  10.126 -0.2282  0.1253 -0.0381
15980W        W31111  11.553   0.847   5.379 -0.3996 -0.1547 -0.1529
15981W        W31112   4.702   6.123  12.615 -0.4119  0.1862  0.1125
15982W        W31113   4.617   8.666   4.132 -0.1395 -0.3223  0.2805
15983W        W31114  13.142  13.399  10.519 -0.1609  0.3431  0.1516
15984W        W31115  13.593   4.999  14.763  0.1677  0.0185  0.0256
15985W        W31116   8.242   6.899  10.883  0.1373  0.2760  0.4856
15986W        W31117   9.803  17.925   1.687 -0.2773 -0.0830  0.0456
15987W        W31118   5.305  14.075   2.664  0.0607 -0.1949 -0.1765
15988W        W31119  18.066  16.377  14.775  0.0731 -0.1870 -0.2754
15989W        W31120  17.267  16.922   2.840 -0.0879 -0.0779  0.1347
15990W        W31121   4.859   2.433  13.628 -0.3824  0.1761 -0.0268
15991W        W31122  16.249   0.278  12.579 -0.1133 -0.0210 -0.1793
15992W        W31123   9.502  13.412   3.215 -0.1478  0.0886  0.0144
15993W        W31124   2.902  14.957   4.597 -0.0665 -0.0041  0.1722
15994W        W31125   2.523   2.753   5.468 -0.1165 -0.2032 -0.1477
15995W        W31126  18.056  13.686   2.372 -0.3082 -0.2097  0.2362
15996W        W31127   6.254   4.429   3.237 -0.1237 -0.3737 -0.0089
15997W        W31128   9.178   0.412  14.353 -0.1204  0.0291  0.0195
15998W        W31129   3.714   9.142  13.800  0.0107  0.0735 -0.0881
15999W        W31130  15.833  14.304  14.816 -0.0627 -0.1722 -0.2428
16000W        W31131  12.018  10.403   1.377  0.1328 -0.1068  0.0059
16001W        W31132   5.886  11.723   5.551 -0.0327  0.0902 -0.1207
16002W        W31133  18.031  16.416   1.881 -0.0138  0.1458 -0.1760
16003W        W31134   3.385   5.240  15.024 -0.3654 -0.0178 -0.3184
16004W        W31135  10.842  12.265  14.087 -0.0447  0.0375 -0.2032
16005W        W31136   3.897   6.118  11.995  0.2070 -0.1722 -0.1951
16006W        W31137   4.369   0.482  11.338 -0.2145 -0.2969  0.1473
16007W        W31138   8.534  17.767   0.768 -0.0519  0.0895 -0.0601
16008W        W31139   8.901  17.246  15.227 -0.0667  0.0668  0.0583
16009W        W31140  17.755   0.390   3.516 -0.1328 -0.2416 -0.5624
16010W        W31141   0.886   3.515   3.655  0.0660  0.0690  0.2069
16011W        W31142   8.192  17.435   1.078  0.2783 -0.0814  0.0221
16012W        W31143  14.308   6.358  15.500 -0.0096  0.1346  0.0127
16013W        W31144   6.470  10.939   4.307 -0.0414  0.0172 -0.0342
16014W        W31145   4.294   5.781  15.385 -0.1616  0.2554  0.0210
16015W        W31146   5.131   2.308  11.568  0.2409  0.2232  0.4841
16016W        W31147  15.701  12.919  15.184  0.3578 -0.0789  0.0838
16017W        W31148  11.232  16.366  11.777  0.0441 -0.3128  0.4204
16018W        W31149   7.389   0.584   4.931  0.1315  0.0103 -0.2375
16019W        W31150  11.819   4.992   3.913 -0.0792 -0.0886 -0.3703
16020W        W31151  13.776  13.635   5.060 -0.0663  0.1773 -0.2259
16021W        W31152  16.296  15.897  15.251  0.0985 -0.1163 -0.0951
16022W        W31153   1.136  14.847  14.181 -0.2930 -0.1543 -0.1489
16023W        W31154  15.599   7.526  13.329  0.1489  0.0577  0.2503
16024W        W31155   8.003   7.179  13.279 -0.0652  0.1924 -0.1900
16025W        W31156  17.272   6.419  13.824 -0.3698 -0.4296  0.0692
16026W        W31157   7.620   8.191  12.260  0.0286 -0.2030  0.0593
16027W        W31158  11.129  11.105  11.743  0.1339  0.0068 -0.1619
16028W        W31159   5.193   3.502  13.618 -0.0511  0.0659 -0.1018
16029W        W31160   5.875   2.006  10.119 -0.1999  0.1986  0.2517
16030W        W31161  10.365  14.746  11.713  0.1763  0.3544 -0.2394
16031W        W31162   2.663   9.319   3.339  0.1987  0.1405  0.0680
16032W        W31163  13.630  11.544   4.728  0.3292 -0.1380  0.0119
16033W        W31164  12.970   6.601   2.848 -0.0243  0.1825 -0.1004
16034W        W31165  12.965  14.555  15.036  0.1147  0.2231 -0.4369
16035W        W31166   3.770   2.429   2.452 -0.0656 -0.0041 -0.0862
16036W        W31167  11.519   2.065  10.637  0.6255  0.3707 -0.1414
16037W        W31168  16.721  12.934   1.433  0.2058 -0.3410 -0.2278
16038W        W31169  15.514   3.064  14.142  0.1735  0.2734 -0.1306
16039W        W31170   1.355  12.536   5.928 -0.2331  0.3031  0.3093
16040W        W31171  11.225   3.527  13.234  0.0295 -0.1693  0.0101
16041W        W31172  12.791   2.601  14.002 -0.1774  0.1209  0.1018
16042W        W31173  11.412  10.816  10.743  0.0377  0.2351  0.4141
16043W        W31174   7.586   8.839   0.207  0.0345  0.0786  0.1739
16044W        W31175  17.778  10.695   3.965 -0.0040 -0.3197 -0.1410
16045W        W31176  17.890   8.247  13.328 -0.0471 -0.0179 -0.0109
16046W        W31177   5.570   2.762  12.854  0.1664  0.0714  0.2022
16047W        W31178  13.808  18.462  12.645  0.2680 -0.3561  0.2390
16048W        W31179  14.842   0.262  14.002  0.0648  0.0588 -0.0328
16049W        W31180  13.851   0.240   5.268 -0.1714 -0.0962 -0.2381
16050W        W31181   3.162   1.868  14.844  0.0275  0.1556  0.0413
16051W        W31182   4.877  15.226   0.041  0.0059 -0.1610 -0.1577
16052W        W31183  10.480  11.912  14.321  0.3066 -0.1609  0.2267
16053W        W31184  11.496   4.159   2.508  0.0227 -0.1578 -0.1421
16054W        W31185  13.489  14.187   2.615  0.2151 -0.0044 -0.3953
16055W        W31186   4.666   3.417   5.641 -0.3559  0.0120  0.0745
16056W        W31187  16.448  17.634   0.063  0.0075 -0.0341 -0.2068
16057W        W31188   4.463  11.383   1.609 -0.0127 -0.3091 -0.1265
16058W        W31189   6.433  12.907   3.833 -0.1710  0.1259 -0.0004
16059W        W31190  13.839   1.046   3.025 -0.3515  0.0615  0.2304
16060W        W31191  10.344  13.360  12.760 -0.0427 -0.0905 -0.0784
16061W        W31192  10.433  14.129   3.024  0.2444 -0.4750  0.2633
16062W        W31193  14.832   2.303  10.521 -0.1693 -0.1802 -0.0766
16063W        W31194   0.034   9.736  12.959  0.0635 -0.0254 -0.3714
16064W        W31195  13.445   1.224  13.087 -0.3056  0.0302  0.0374
16065W        W31196  11.636   6.128   9.812  0.5872 -0.0190 -0.0225
16066W        W31197   7.955   4.069  11.817 -0.2265  0.0419  0.1542
16067W        W31198   0.817  11.742   4.746  0.3281 -0.1157 -0.1364
16068W        W31199   9.488  16.720   2.772 -0.5193  0.3723 -0.0504
16069W        W31200   7.583   9.460  14.845 -0.2831  0.0058 -0.1964
16070W        W31201  16.395  11.117  11.468 -0.0336 -0.1852  0.0973
16071W        W31202  11.223  18.524  12.536  0.0859  0.4960  0.3870
16072W        W31203  11.135  15.975  14.691 -0.3175 -0.1700 -0.2423
16073W        W31204  14.997   5.812   1.647 -0.2617  0.0494  0.0355
16074W        W31205  12.803   7.384   2.821 -0.0736  0.3711 -0.2258
16075W        W31206  11.067  17.801   4.330 -0.0075 -0.0690  0.1597
16076W        W31207   2.784   4.529   1.734  0.2799 -0.3355 -0.3511
16077W        W31208  14.420   6.993  10.425  0.0557 -0.1762  0.0032
16078W        W31209   5.575  15.810   6.221  0.3999 -0.1152 -0.3284
16079W        W31210   5.851  16.159   5.598  0.0963 -0.0134  0.1150
16080W        W31211  13.006  16.648   4.171  0.0734 -0.1245 -0.1321
16081W        W31212   1.562   9.833   0.469  0.3093  0.3150  0.1701
16082W        W31213   8.744   6.645  15.340  0.2260  0.1314  0.3609
16083W        W31214  11.770  15.374   0.948  0.4190  0.2146  0.1257
16084W        W31215   2.818   3.373   0.279 -0.0686  0.1759  0.0183
16085W        W31216  17.914   1.609   4.721  0.0234 -0.1835 -0.1196
16086W        W31217  11.558  17.358   2.297 -0.2780 -0.0807  0.2060
16087W        W31218   6.797  12.004   0.324 -0.0648 -0.0500  0.1642
16088W        W31219   7.303  13.820  11.598  0.2166 -0.2361 -0.1885
16089W        W31220   3.475   1.257  12.114 -0.1704  0.0784 -0.0901
16090W        W31221  12.146  14.496   2.104  0.3437 -0.2281 -0.1191
16091W        W31222  17.234  10.283  12.758  0.0158 -0.1191 -0.2506
16092W        W31223   8.785   4.841  14.201 -0.1953  0.0992 -0.0857
16093W        W31224  12.537   9.406  13.586  0.2955  0.1355  0.1042
16094W        W31225   2.296  10.130  14.289 -0.2197 -0.1669  0.2969
16095W        W31226  13.012   7.645  11.839  0.1987 -0.0542  0.3751
16096W        W31227   8.411   3.370   5.562  0.0519 -0.0491  0.1649
16097W        W31228  15.171   7.907   1.448  0.1456  0.4008 -0.0298
16098W        W31229   9.559   1.219  14.408 -0.1465 -0.3891 -0.0801
16099W        W31230  13.647  13.220   3.906 -0.3740  0.2541  0.1299
16100W        W31231   5.749   4.843  13.779  0.0749  0.1563 -0.4128
16101W        W31232   5.163   4.649   0.570 -0.0200  0.1418  0.0743
16102W        W31233  15.934  11.980  13.659  0.2135  0.1516 -0.0676
16103W        W31234  16.376   5.705   1.512  0.1650 -0.0026 -0.1909
16104W        W31235   4.336   7.633  12.997  0.2841 -0.3595  0.2265
16105W        W31236  13.806  12.021   4.567  0.1452  0.0929 -0.2653
16106W        W31237   4.759  14.749   3.148  0.0532  0.1780  0.2029
16107W        W31238   2.155   2.928   3.838  0.2313 -0.1105  0.0356
16108W        W31239   8.781   2.055  14.026 -0.0045  0.3790  0.1125
16109W        W31240  17.963   3.098  11.997 -0.0729  0.0231  0.1193
16110W        W31241   3.559  14.338  11.751  0.0018  0.3478 -0.2159
16111W        W31242  16.852   2.091  12.307 -0.0427 -0.3239  0.1491
16112W        W31243  16.284  17.151  15.102 -0.0321 -0.3158 -0.0945
16113W        W31244  11.760   6.157   0.902  0.0131 -0.0599  0.2351
16114W        W31245  12.437   3.224  15.021 -0.3015 -0.1242 -0.0072
16115W        W31246   6.147   3.615   5.087 -0.1098 -0.2348  0.0346
16116W        W31247   6.082  17.760   4.486  0.1730 -0.2807  0.0787
16117W        W31248  13.596  10.843   2.472 -0.2285 -0.1659 -0.0565
16118W        W31249   7.968   2.601   5.116  0.2093 -0.0171  0.0437
16119W        W31250  13.992  18.344   1.457  0.0948  0.0408  0.2383
16120W        W31251   1.378  14.131   3.218 -0.0276  0.0937 -0.1135
16121W        W31252  11.509  16.945  12.168 -0.6540 -0.0423 -0.2963
16122W        W31253   4.332  17.865  15.790 -0.2296 -0.0193 -0.0578
16123W        W31254   4.901   9.640   5.915  0.2262  0.3995 -0.0539
16124W        W31255  11.655  10.913   3.034 -0.2177  0.2053 -0.0719
16125W        W31256  13.421  16.908   4.708  0.0923 -0.1075  0.2094
16126W        W31257   5.482   1.071  11.883 -0.2683 -0.2289  0.1859
16127W        W31258   1.039   8.227  11.838  0.1383 -0.0354  0.2574
16128W        W31259  15.813  10.958   1.265  0.2707 -0.2324 -0.4989
16129W        W31260   2.076   2.926  10.347 -0.3329 -0.2497  0.3994
16130W        W31261  15.522   2.281   5.451  0.1854  0.1778  0.2362
16131W        W31262   4.940   5.420   5.363 -0.1508  0.3423 -0.0358
16132W        W31263   7.839  14.329   3.945 -0.1586  0.0609  0.0577
16133W        W31264   1.692   0.792  13.576 -0.1030 -0.1749  0.1606
16134W        W31265   7.576   6.155   5.602 -0.0953 -0.3823  0.1084
16135W        W31266  17.935  15.550  10.879 -0.3545  0.1324  0.2293
16136W        W31267   1.526  18.398   0.268 -0.1590 -0.1378  0.1898
16137W        W31268  12.783   8.431   3.597 -0.4925 -0.4275 -0.0243
16138W        W31269  17.875   9.544   1.405  0.1900  0.1574 -0.2013
16139W        W31270   9.941  15.549   0.075  0.0921 -0.3720 -0.3586
16140W        W31271   4.263  11.562   3.047 -0.0193 -0.1113 -0.3394
16141W        W31272   3.048   9.421  12.156  0.1515  0.3132 -0.0876
16142W        W31273   7.755  11.641   0.342 -0.1770 -0.0432  0.1494
16143W        W31274   1.795  10.481  14.523 -0.1359  0.2278  0.1865
16144W        W31275   2.093   1.124  13.361  0.1855  0.0516  0.0221
16145W        W31276   1.782   6.292  13.918  0.0343  0.1457 -0.0662
16146W        W31277   1.496  18.486  12.220 -0.0007  0.0461  0.1783
16147W        W31278   8.793   5.534  14.409 -0.0104 -0.1495 -0.2139
16148W        W31279   0.105  10.014  13.948 -0.0583 -0.0902 -0.0136
16149W        W31280  15.013  16.077  14.324 -0.3629  0.0738  0.1055
16150W        W31281  12.917  17.568  11.860 -0.1056 -0.0720  0.4362
16151W        W31282   1.475   2.993  14.727 -0.3718 -0.0152  0.0367
16152W        W31283  15.494   8.182   6.052 -0.1383  0.0952  0.1821
16153W        W31284   0.857   5.492   0.830 -0.0296 -0.1517 -0.2202
16154W        W31285  15.208   1.144  11.933 -0.0884  0.4344  0.0406
16155W        W31286   1.938   1.442  14.271 -0.0336  0.0244  0.0669
16156W        W31287  18.505   4.885   2.663 -0.2688  0.1822  0.1333
16157W        W31288   7.481   6.042  14.385 -0.0489 -0.4046  0.2943
16158W        W31289   4.932   2.268  12.063 -0.1291 -0.0869 -0.3207
16159W        W31290  12.936   2.349  12.031  0.1159  0.1432 -0.0549
16160W        W31291   0.167   4.856   1.086  0.4643 -0.4607 -0.1331
16161W        W31292  11.446  11.282   5.309  0.2904 -0.1466  0.1788
16162W        W31293  13.584   6.983   1.156  0.0326 -0.0527 -0.0617
16163W        W31294   6.905  17.567  12.158  0.0783  0.2076  0.0073
16164W        W31295  15.784   5.970   4.993 -0.1337  0.3705 -0.0716
16165W        W31296  16.411  11.833  12.238 -0.1470  0.0422 -0.1991
16166W        W31297  12.963  14.648   2.785 -0.1292 -0.4094 -0.1541
16167W        W31298   9.034  12.206  14.249 -0.1273 -0.3750  0.1979
16168W        W31299  16.077   1.264   2.674  0.1921  0.3134 -0.0039
16169W        W31300   6.032  14.551  12.343  0.0477 -0.2764 -0.0886
16170W        W31301  17.297   4.063   3.539  0.0341  0.0996  0.1301
16171W        W31302  12.163   4.940   5.806 -0.0623  0.2420 -0.0459
16172W        W31303   2.334   7.321   2.581 -0.2098  0.2241  0.5988
16173W        W31304   7.829  12.558   2.930  0.0078  0.0899  0.0340
16174W        W31305   1.945   8.477   1.533  0.0106  0.2356  0.2854
16175W        W31306   9.423  10.235  13.710  0.2824  0.2707  0.0926
16176W        W31307  11.569   0.907  13.564  0.4529  0.0806  0.1499
16177W        W31308  14.844   5.026   2.198 -0.0614 -0.3074 -0.2753
16178W        W31309  10.382   2.635  10.004  0.0415  0.0747  0.2577
16179W        W31310   7.326   6.868   1.029  0.0856 -0.0574 -0.0669
16180W        W31311  17.543  12.693  14.410 -0.3061  0.2679 -0.2533
16181W        W31312   0.282  16.632   1.973  0.0459 -0.0073  0.1666
16182W        W31313   1.037   6.563  15.680  0.2069 -0.4978 -0.2236
16183W        W31314   4.613   1.410  11.512  0.1879 -0.1403  0.0660
16184W        W31315   8.038   3.906  14.594  0.0776 -0.1453  0.1673
16185W        W31316  15.109   5.939  10.965 -0.2235  0.5488  0.0494
16186W        W31317  14.272   1.873   1.223 -0.0192  0.0478  0.0391
16187W        W31318  12.095  16.323   3.842  0.0676  0.0764  0.0431
16188W        W31319   6.530  14.977  11.524 -0.0281 -0.2322  0.3371
16189W        W31320   3.016   0.197  12.958  0.2495 -0.2256  0.1624
16190W        W31321   9.774   1.176   1.323  0.1626 -0.0549  0.2589
16191W        W31322  16.755  14.375   0.415  0.2640 -0.1779  0.1592
16192W        W31323   3.919  13.705  13.560 -0.3926 -0.3696 -0.3048
16193W        W31324   9.575   7.173  14.281  0.0869 -0.1920  0.2429
16194W        W31325   6.121  16.299   0.317  0.0154 -0.6114  0.0643
16195W        W31326  10.164  17.851   4.526  0.1427  0.0487 -0.1582
16196W        W31327  13.296   6.867  13.383 -0.1311  0.5498 -0.3000
16197W        W31328   9.319  16.827  14.590 -0.0205  0.2996  0.2495
16198W        W31329   9.436   8.049   5.770 -0.0093  0.0085 -0.0004
16199W        W31330  16.024   6.424  12.591  0.1668  0.2168 -0.1682
16200W        W31331  14.871  14.285  11.669 -0.1347 -0.0180  0.2927
16201W        W31332   0.225   3.430  11.601  0.0434  0.1036  0.0639
16202W        W31333  12.628   1.942  14.359  0.0039  0.0726 -0.0420
16203W        W31334   0.934   9.748   1.765 -0.0927  0.2913  0.0396
16204W        W31335   6.571  14.482   4.856 -0.1516  0.3002 -0.0238
16205W        W31336   8.716   4.815   1.908 -0.3389  0.0361 -0.1938
16206W        W31337  11.343   4.898  13.517 -0.2422 -0.1192 -0.1631
16207W        W31338  17.217  15.354  11.105  0.2529 -0.3500 -0.0208
16208W        W31339   3.122   0.095   3.075 -0.0698 -0.0603 -0.1875
16209W        W31340   3.193   8.189  11.503 -0.0708  0.3114 -0.2661
16210W        W31341   2.267   4.759   1.025  0.0241 -0.0756  0.0240
16211W        W31342  11.163   8.367  13.848 -0.1281  0.0297 -0.0732
16212W        W31343   1.048  15.905  15.136 -0.3036  0.2159 -0.0901
16213W        W31344  10.629  11.711   9.907 -0.0730 -0.1770  0.2036
16214W        W31345  15.515   9.607  15.670 -0.1519  0.1082  0.0029
16215W        W31346   1.731   9.219   1.849  0.0419 -0.4571  0.2789
16216W        W31347  10.170  13.032   3.723 -0.1090  0.0476  0.2404
16217W        W31348  13.991   9.542  15.801  0.0037 -0.0119 -0.0203
16218W        W31349   7.504  10.385  11.598  0.2344  0.0910 -0.1143
16219W        W31350   4.261   4.069   5.002 -0.0616  0.2680  0.2185
16220W        W31351  18.156   2.204  15.528 -0.3544  0.2820  0.0053
16221W        W31352   7.916   5.497   4.844  0.0407 -0.1070 -0.2162
16222W        W31353   7.393   2.075   4.526  0.3241 -0.0947 -0.3776
16223W        W31354  10.400   6.756  10.762  0.0804 -0.1494 -0.0367
16224W        W31355   2.669   1.346   4.832 -0.0303  0.0105 -0.0111
16225W        W31356  13.231   2.344  13.769  0.2423 -0.1882  0.0207
16226W        W31357   5.149   3.051   5.801 -0.3532 -0.2844  0.3924
16227W        W31358  14.854   6.057   3.968 -0.0363 -0.2574  0.3074
16228W        W31359   6.911  15.035   3.537  0.0789 -0.1649  0.0216
16229W        W31360   1.645  11.467   2.971  0.0875  0.3958 -0.0684
16230W        W31361   7.758  16.479   4.795  0.0569  0.3136 -0.2617
16231W        W31362  12.441  16.431   0.362 -0.1638  0.1209 -0.0851
16232W        W31363   7.747  13.751   5.037 -0.1081  0.1553 -0.2272
16233W        W31364  16.893   3.498   2.900  0.2225  0.0394  0.0631
16234W        W31365   8.242   9.391   0.790 -0.0154  0.4937  0.0279
16235W        W31366  17.905  12.103   0.587 -0.1983 -0.2313 -0.5346
16236W        W31367   3.593   8.133  14.203 -0.2430 -0.2090 -0.1329
16237W        W31368  17.678  14.907   6.013 -0.2071 -0.1842 -0.0454
16238W        W31369   9.777   4.141  12.789  0.1064 -0.0376  0.2765
16239W        W31370   9.173  13.725  15.271  0.2940  0.2550  0.3209
16240W        W31371  13.988   9.427   2.628  0.3781 -0.3514  0.3961
16241W        W31372  16.192  17.587   1.186 -0.2313 -0.1451  0.1163
16242W        W31373   0.273  13.103  13.848 -0.1245  0.0954  0.2176
16243W        W31374  17.384  13.622   0.587  0.0423 -0.1887 -0.3974
16244W        W31375   4.341   9.619   0.194  0.2664 -0.1267  0.1002
16245W        W31376  15.972   7.077   0.333 -0.0265  0.1149  0.1784
16246W        W31377  16.742   9.389   3.423 -0.2197  0.0304  0.2482
16247W        W31378   9.686   2.971  13.633 -0.1638  0.2873 -0.0226
16248W        W31379  14.020   5.426   4.462  0.3746 -0.1416  0.1007
16249W        W31380  16.241   3.538   5.294 -0.1004  0.0162  0.0243
16250W        W31381   3.311  16.407  12.501 -0.3627  0.2187 -0.0579
16251W        W31382  16.238   1.147   3.911 -0.0302 -0.1444  0.1495
16252W        W31383  12.881   0.728   1.424  0.2837  0.0516 -0.1718
16253W        W31384   8.662   8.704  11.917 -0.0527 -0.2472  0.1267
16254W        W31385  10.652  10.811  11.472  0.0369  0.1548  0.0549
16255W        W31386   5.117  13.331  13.066 -0.1077  0.0489 -0.1866
16256W        W31387  12.350   0.051  13.502 -0.0479 -0.0188 -0.0689
16257W        W31388  14.296   1.708  12.806  0.3140 -0.1063  0.3203
16258W        W31389  18.383  14.576  11.754 -0.0975  0.1904 -0.1315
16259W        W31390   0.587   0.583   4.605  0.0043 -0.0196  0.0792
16260W        W31391  10.111  11.995   4.360  0.1090  0.1331 -0.2358
16261W        W31392   0.844  13.440   0.675 -0.0637 -0.1309  0.2133
16262W        W31393  13.114  12.226   0.726  0.0178 -0.0914 -0.1817
16263W        W31394  12.709   7.556  13.688  0.0383 -0.1074 -0.0931
16264W        W31395  11.148   6.071  11.390 -0.0270  0.1540  0.2064
16265W        W31396  12.236   9.439  10.688 -0.0185 -0.2434  0.2517
16266W        W31397   0.783  10.635   2.985  0.2256 -0.3765  0.0423
16267W        W31398   4.504  15.426   3.812 -0.2508 -0.1911 -0.2712
16268W        W31399  15.231   7.074  12.103  0.0537 -0.2196 -0.1598
16269W        W31400  11.645  11.646  11.732 -0.1386  0.2824 -0.2901
16270W        W31401  13.878   4.217   5.217 -0.0356 -0.1684  0.1038
16271W        W31402   5.501   9.809  12.335 -0.0269  0.2606  0.4161
16272W        W31403   5.645  10.867  11.172  0.0004 -0.0061  0.0005
16273W        W31404   5.909  14.767  14.352 -0.3661  0.2052 -0.0636
16274W        W31405   5.673   5.621   2.149  0.0474  0.0626  0.0373
16275W        W31406   3.880   0.527  12.546  0.2125  0.0995  0.0427
16276W        W31407   3.811  15.595   3.127  0.0519 -0.0278 -0.0724
16277W        W31408  17.137  12.752  12.329 -0.1692  0.1657  0.1884
16278W        W31409   0.336  12.793   0.765 -0.0522 -0.0354 -0.0057
16279W        W31410  10.898  17.160   4.418  0.0447 -0.0162  0.0012
16280W        W31411  11.523   9.593  14.083  0.0292 -0.1017 -0.1708
16281W        W31412   0.357   5.851  13.821  0.0673 -0.0972 -0.3093
16282W        W31413  11.506  11.225  11.003  0.1012 -0.1265 -0.1338
16283W        W31414   4.660   3.305  15.775 -0.1301 -0.0114  0.0139
16284W        W31415   9.607  10.062  11.233 -0.1062  0.0296 -0.0290
16285W        W31416   4.350   8.947   5.277  0.0113  0.0103 -0.0522
16286W        W31417   1.954   8.092  15.682  0.2386  0.0262 -0.0075
16287W        W31418  15.635   0.087   0.238 -0.4091  0.0972  0.1749
16288W        W31419  14.653   7.979  14.719  0.0934 -0.0199 -0.1144
16289W        W31420  14.441  13.276   0.871  0.0283 -0.1341  0.2043
16290W        W31421  15.362   9.143   1.799  0.0317 -0.2197  0.0834
16291W        W31422  12.006   9.910  13.193  0.1886 -0.2581 -0.3999
16292W        W31423   0.998  11.974  13.359  0.0308  0.1999  0.3153
16293W        W31424  18.211  13.706   1.470  0.0314  0.3296 -0.0717
16294W        W31425  15.106   8.364  10.990  0.2171  0.0357 -0.1189
16295W        W31426  12.376   2.134   3.956  0.0547 -0.1290 -0.1729
16296W        W31427   6.240   7.060  13.550 -0.1969 -0.2793  0.1930
16297W        W31428   2.595   2.286   1.134 -0.0971 -0.0782 -0.1780
16298W        W31429  16.705   1.394  11.687  0.0509  0.0754  0.1296
16299W        W31430   1.842   5.682   2.170  0.2240 -0.0841  0.1996
16300W        W31431   4.404  14.441  12.973 -0.2897  0.2727  0.2260
16301W        W31432   0.395  12.312  13.903  0.1285  0.1509  0.0291
16302W        W31433  17.496  12.683   5.860  0.0116 -0.1041  0.0805
16303W        W31434   5.360   1.980  14.395 -0.0496 -0.2089 -0.1276
16304W        W31435  14.392  10.019  15.074  0.0602  0.2093 -0.1661
16305W        W31436  15.655   3.652  11.791 -0.3519  0.1012 -0.0504
16306W        W31437  14.146  14.311   4.345 -0.1684 -0.2300 -0.0663
16307W        W31438   1.513   0.772  14.433 -0.0291 -0.0250  0.1756
16308W        W31439  15.725  14.009   4.584 -0.1668  0.2568 -0.2222
16309W        W31440   5.302   6.999   3.675 -0.0573 -0.0742 -0.0459
16310W        W31441  11.703  14.411   0.118 -0.2625  0.0074  0.1139
16311W        W31442  11.385  11.834   2.233 -0.0461  0.2468 -0.2984
16312W        W31443   7.394   1.680   2.142 -0.1948 -0.0582 -0.0020
16313W        W31444   8.519   4.401   0.924  0.2069  0.5234  0.0530
16314W        W31445   9.168  13.525  14.762 -0.2822  0.1946  0.2015
16315W        W31446  13.847   1.296   4.888 -0.0105 -0.1675 -0.0419
16316W        W31447   6.066  14.660   2.222 -0.2357  0.2277  0.1087
16317W        W31448   6.362   4.428   2.117  0.3550  0.1777 -0.3773
16318W        W31449   7.904  12.011   2.970 -0.3740  0.0580  0.1066
16319W        W31450   2.186   3.941   0.141 -0.1835 -0.0608  0.1662
16320W        W31451   9.983   4.076  13.850  0.4040  0.0769 -0.1776
16321W        W31452   5.745   6.553  14.414  0.3445 -0.1075  0.0601
16322W        W31453   1.484  14.589  12.947 -0.0644 -0.2856 -0.0795
16323W        W31454   4.846  15.155   4.174  0.1296 -0.1695 -0.0869
16324W        W31455  18.127   3.980  14.320 -0.0924  0.1359 -0.1433
16325W        W31456   8.692   3.937  13.337 -0.1838  0.0074 -0.1447
16326W        W31457  15.902  12.490  12.419  0.3004 -0.1045  0.1767
16327W        W31458   7.593   1.994   5.306 -0.1489  0.0866  0.0375
16328W        W31459  15.347   0.306  12.537  0.1691  0.0539 -0.0559
16329W        W31460  14.672  14.362  12.588 -0.1572 -0.0514 -0.3056
16330W        W31461  14.042  12.430   0.932  0.0015  0.0220 -0.1493
16331W        W31462   0.604   8.465  15.542  0.2274  0.1523  0.1609
16332W        W31463   3.395   8.431   5.510  0.1426 -0.0971 -0.1664
16333W        W31464  18.133   7.253  14.586 -0.0482  0.1067  0.2835
16334W        W31465  13.212  13.919  15.232 -0.1076 -0.0147  0.2173
16335W        W31466  14.940   8.430   2.077 -0.0522 -0.0322 -0.2808
16336W        W31467   0.420  17.668   1.377  0.0475 -0.1275 -0.1536
16337W        W31468  11.172   4.601   5.265 -0.0369  0.0293  0.1345
16338W        W31469   4.511   4.372   2.396  0.3050 -0.0494  0.0352
16339W        W31470   4.541  12.767  11.327  0.4537 -0.1389  0.1272
16340W        W31471   5.125   2.853   3.852 -0.0364 -0.1324  0.0693
16341W        W31472  16.563   1.800   3.762 -0.5556  0.0494 -0.0117
16342W        W31473   2.487   4.206  14.967 -0.3054  0.3072 -0.2003
16343W        W31474   2.669  17.329   1.179 -0.0416  0.1883  0.3724
16344W        W31475  13.776   6.100  13.428 -0.1853 -0.0908 -0.5044
16345W        W31476  15.468  15.855   2.635  0.1961 -0.1064 -0.1877
16346W        W31477   7.944   8.533   0.436 -0.2884  0.0628 -0.2178
16347W        W31478   5.184  10.463  13.597  0.1137 -0.0287  0.0638
16348W        W31479  14.788  17.876  11.902 -0.2619 -0.0941  0.1414
16349W        W31480   3.000   5.601   1.810 -0.0683 -0.0215  0.0860
16350W        W31481  16.310  15.745   3.035 -0.1759 -0.0922  0.1258
16351W        W31482  17.635   9.753   0.115  0.2563 -0.1185  0.0296
16352W        W31483   5.959   9.095   0.933  0.2469  0.1511 -0.3216
16353W        W31484   5.704   6.205   4.604 -0.0372  0.0629  0.1749
16354W        W31485  14.666   0.779  14.845 -0.2736  0.1416 -0.2117
16355W        W31486   4.802   1.372   0.876 -0.0973 -0.1969 -0.0862
16356W        W31487  11.448   1.189   4.487  0.1602  0.1349 -0.0003
16357W        W31488   8.457   9.585  12.185  0.1709 -0.3523 -0.3675
16358W        W31489   7.486  12.650  12.765  0.1183 -0.2990  0.3007
16359W        W31490  16.575   4.116  14.861 -0.0805 -0.1732  0.0885
16360W        W31491  18.456  16.177   3.273 -0.1331 -0.1483 -0.1253
16361W        W31492   6.256  10.518   4.503  0.0109 -0.0178  0.3085
16362W        W31493  14.706   6.341  13.462  0.2821 -0.1120  0.0579
16363W        W31494  10.682   3.877  14.028 -0.1729 -0.0029 -0.0876
16364W        W31495   4.473   9.360  10.963  0.0736  0.0243 -0.0526
16365W        W31496   7.812  17.356  11.063 -0.0157  0.0033 -0.0480
16366W        W31497  16.322  15.233  11.122 -0.1970  0.0811 -0.0666
16367W        W31498   5.866  13.055   1.740 -0.1808  0.2680 -0.0920
16368W        W31499  10.751   1.718   1.535 -0.1770 -0.0605 -0.1678
16369W        W31500  12.416  12.679  15.108 -0.0281 -0.0367  0.3248
16370W        W31501   0.806   1.983  11.574 -0.1521 -0.0361 -0.0589
16371W        W31502  11.522   8.703  13.719 -0.0086 -0.0995 -0.0223
16372W        W31503  15.108   9.109  12.129  0.0368  0.0234  0.3031
16373W        W31504   4.280   3.825   3.460  0.0996  0.0051  0.2335
16374W        W31505   0.761   3.497  15.885 -0.2385 -0.2924  0.4747
16375W        W31506  11.765   6.216   3.304 -0.0038 -0.0571 -0.0803
16376W        W31507   6.810  17.175   5.390  0.2445 -0.2185 -0.2072
16377W        W31508  12.242  16.301   1.431  0.1032  0.2054  0.1786
16378W        W31509   1.942  11.079   3.953  0.0202  0.2682 -0.0378
16379W        W31510  12.126  12.777  11.913  0.1482  0.1251 -0.6615
16380W        W31511   3.999   7.748   1.809 -0.2514 -0.1497  0.0330
16381W        W31512   4.296   4.045   0.525 -0.3016  0.0113 -0.1069
16382W        W31513  13.359  13.728   4.061 -0.0255  0.1141  0.0467
16383W        W31514   1.480  13.891   0.010 -0.1592 -0.1467  0.0976
16384W        W31515   7.289   2.339  14.216 -0.0934  0.1260  0.0950
16385W        W31516  11.269   8.001  13.475  0.4358 -0.1917 -0.0722
16386W        W31517  14.087   8.966   5.703  0.1135 -0.0412 -0.2778
16387W        W31518   6.055  16.585  13.278  0.1372  0.2117  0.0482
16388W        W31519  18.339  15.794  14.883  0.3420 -0.3105 -0.0592
16389W        W31520  17.109   1.696   1.908  0.0001  0.0146 -0.2479
16390W        W31521   9.279   0.433  13.325 -0.0303  0.4083  0.1478
16391W        W31522   5.980   6.550   5.040 -0.2191  0.2034 -0.0035
16392W        W31523   2.314   8.572  12.493 -0.4172  0.6638  0.0945
16393W        W31524  13.299   7.213   4.384 -0.1886 -0.0694 -0.3045
16394W        W31525  11.816  16.836  14.013  0.0009  0.0082 -0.3425
16395W        W31526   1.666   2.339   0.149 -0.3055  0.2940  0.2270
16396W        W31527   2.870   6.841   0.939 -0.0798 -0.0680  0.3032
16397W        W31528   1.048   4.691  15.028 -0.2049 -0.1951 -0.1163
16398W        W31529   6.845  12.698   5.054 -0.0104 -0.0219  0.3706
16399W        W31530  16.787   5.065  13.769 -0.0761  0.1295 -0.0668
16400W        W31531   8.246   8.077   2.341  0.1136 -0.1863  0.1616
16401W        W31532  16.376   6.597  15.773  0.2836 -0.1094  0.0431
16402W        W31533  14.978  16.901   3.367  0.2169  0.0108 -0.0043
16403W        W31534   9.446   6.697   3.124 -0.0219 -0.3077 -0.1028
16404W        W31535  13.126   3.693   3.150 -0.0658  0.0404  0.0111
16405W        W31536  14.586  16.563   0.633  0.3885  0.1004  0.0185
16406W        W31537   5.792  13.053   4.018 -0.0478 -0.0583  0.0187
16407W        W31538   9.837  11.725  11.708  0.0088  0.0588  0.3717
16408W        W31539   0.097  14.723   2.003  0.1225  0.4194  0.2879
16409W        W31540  14.964  11.347  12.869  0.1168  0.0437 -0.0786
16410W        W31541   4.236  14.598   3.233  0.1002  0.0109 -0.2370
16411W        W31542   5.881   3.215   0.324 -0.0646 -0.1642 -0.1643
16412W        W31543  14.993  11.114   0.418  0.2150  0.1349 -0.2958
16413W        W31544  11.210  11.753  15.403  0.2174 -0.1668 -0.0942
16414W        W31545   9.279  16.645   3.216 -0.2534  0.1477 -0.0931
16415W        W31546   9.739   2.368   2.353  0.0275  0.2337  0.2523
16416W        W31547   5.999   9.787   0.148 -0.1450  0.2904  0.0619
16417W        W31548  12.203  15.983   0.218  0.0074  0.0445  0.2423
16418W        W31549   9.609   9.813  12.420 -0.0727 -0.1181 -0.1163
16419W        W31550   7.275  14.389  13.855 -0.1257 -0.0525 -0.0162
16420W        W31551   1.176   7.934   3.464 -0.1682 -0.0893  0.0153
16421W        W31552  18.243  12.145   4.663 -0.2055 -0.2710  0.0639
16422W        W31553   8.263  14.199   9.514 -0.2910  0.1036  0.1457
16423W        W31554   5.270   4.967  13.634  0.0443  0.1571 -0.1288
16424W        W31555  17.628   6.668   3.964  0.0367  0.0960 -0.0906
16425W        W31556   0.117   4.797  14.735  0.0976  0.3446 -0.0262
16426W        W31557   7.586  11.442  11.823  0.0996  0.1040  0.1924
16427W        W31558   6.860   5.879   5.186  0.0193  0.1685 -0.0426
16428W        W31559   9.034   7.673   2.299 -0.0797 -0.1513 -0.1498
16429W        W31560   9.141  12.806   5.371  0.0025 -0.0063  0.1399
16430W        W31561   3.991   7.119   3.997  0.3187  0.0214 -0.1187
16431W        W31562  17.602  11.526   4.906  0.0574  0.2205 -0.0196
16432W        W31563   5.275   4.832   5.788 -0.1861 -0.1960  0.0799
16433W        W31564  17.906   7.633  11.755 -0.0456  0.2675 -0.0670
16434W        W31565  17.263   8.071  10.308 -0.4930 -0.0096 -0.2415
16435W        W31566  15.541   8.249   3.932 -0.0245  0.4978  0.1828
16436W        W31567   2.955  15.358   2.837 -0.2563 -0.0776 -0.1796
16437W        W31568   1.406   2.484   4.020  0.2795 -0.0040  0.0858
16438W        W31569  16.915   6.181   1.339  0.0209  0.0043  0.0458
16439W        W31570  10.272   4.915   0.401 -0.1191  0.0499 -0.1098
16440W        W31571  17.309   6.202   2.666  0.1578  0.1868 -0.1399
16441W        W31572   3.810   8.873   2.759 -0.1078  0.1847 -0.6868
16442W        W31573   5.215   0.259  14.230  0.1666 -0.3945 -0.1935
16443W        W31574   6.010  15.561  13.433 -0.1504 -0.1148 -0.0474
16444W        W31575   2.571   8.914   1.947 -0.3399  0.2145 -0.0712
16445W        W31576  11.630  11.189   0.325 -0.0030 -0.0835 -0.1967
16446W        W31577   5.713   0.122   3.603 -0.0478 -0.1607  0.0143
16447W        W31578   9.824   0.934  14.006  0.2882  0.1067  0.0491
16448W        W31579   0.303  15.274  15.325  0.1689  0.1422 -0.0376
16449W        W31580   6.213   1.386  14.438  0.0667  0.0140  0.0119
16450W        W31581  14.362   6.001   2.810 -0.0724 -0.0134  0.1694
16451W        W31582  12.444   3.151  15.482  0.2207 -0.0294  0.1746
16452W        W31583   8.553  16.548  14.940  0.0184  0.1860  0.1015
16453W        W31584   8.072   2.043   4.378 -0.0424 -0.0031  0.1876
16454W        W31585  11.124  13.626  10.515  0.0674 -0.2085  0.0292
16455W        W31586   2.937   1.942  15.480  0.1704  0.0915 -0.0878
16456W        W31587  16.075   7.531  13.492 -0.2257  0.0858 -0.1903
16457W        W31588   1.689   4.422   4.968  0.0160 -0.0359 -0.1500
16458W        W31589   2.311   9.464   4.873 -0.1398  0.0027  0.1049
16459W        W31590   4.598   6.997   5.104 -0.0382 -0.4921 -0.0780
16460W        W31591   5.416   0.564  13.162  0.2148  0.1221 -0.0190
16461W        W31592  17.389   9.348   0.485 -0.2822 -0.0818 -0.3012
16462W        W31593  15.370  17.569  15.847  0.2248 -0.0262 -0.3093
16463W        W31594   9.606  17.616   0.101  0.1983 -0.0790  0.1829
16464W        W31595   3.097  14.530   4.310  0.2639  0.1187  0.0897
16465W        W31596   0.779   5.809   3.313 -0.0173 -0.1787 -0.1660
16466W        W31597   1.810  14.556  13.803 -0.0663  0.1041  0.1910
16467W        W31598   8.235  14.150  13.329 -0.0847  0.1919 -0.2810
16468W        W31599   6.590   1.910  12.752  0.0199  0.4190 -0.0896
16469W        W31600  11.330   9.645   5.211 -0.3357 -0.0726  0.2089
16470W        W31601  17.717  12.002   4.735 -0.1626 -0.0917 -0.2616
16471W        W31602   6.469  10.881   2.714 -0.0191 -0.0255  0.0785
16472W        W31603   2.792   4.395   0.572 -0.1529  0.0294  0.1247
16473W        W31604   6.141  12.923  11.646 -0.1164  0.1743 -0.3856
16474W        W31605  11.534   5.319   0.741 -0.1026 -0.1397  0.3607
16475W        W31606   8.671   7.404  13.207  0.2224  0.0767 -0.1769
16476W        W31607   4.326  15.524   2.978 -0.2338  0.1223  0.3276
16477W        W31608   6.943  17.976  10.405 -0.2783  0.1698 -0.2896
16478W        W31609  13.114  12.918  14.645 -0.0545  0.1835 -0.1933
16479W        W31610  12.440  13.632  15.037  0.0206  0.2407 -0.2456
16480W        W31611  17.475  16.467  15.105 -0.2220 -0.0295  0.2578
16481W        W31612   2.209  11.423  12.470  0.1853 -0.1307 -0.1695
16482W        W31613   1.349  17.176  14.418  0.0584  0.0311 -0.2037
16483W        W31614  17.154  12.707   1.234  0.2188 -0.0645 -0.2182
16484W        W31615  13.561   0.151   2.576  0.3150 -0.1291  0.2209
16485W        W31616   3.509  14.261   2.438 -0.2695  0.0817  0.1049
16486W        W31617   6.562   0.983   1.046 -0.0056  0.1790  0.1736
16487W        W31618  13.454  16.484  15.842 -0.0565 -0.1689  0.0447
16488W        W31619  14.171   3.466   1.285  0.0769  0.2524  0.3239
16489W        W31620   1.499  17.437  12.895 -0.0413 -0.1564  0.0570
16490W        W31621   9.910   9.339   2.532  0.1967 -0.0543  0.0216
16491W        W31622   8.724  12.128   4.442  0.0876  0.2387 -0.0894
16492W        W31623   5.507   5.242   4.413  0.1029  0.0373  0.0679
16493W        W31624  11.266   3.998  13.024 -0.2136  0.3302  0.0429
16494W        W31625   5.766  12.362   1.420 -0.1215 -0.3124  0.0048
16495W        W31626  10.841   0.159  14.519  0.1810 -0.1576  0.0651
16496W        W31627   3.458   5.798  12.089 -0.0022 -0.0077  0.3078
16497W        W31628  16.768   8.440  12.560 -0.1855  0.0117 -0.0177
16498W        W31629   4.975   8.919   0.130 -0.0902 -0.0778 -0.2725
16499W        W31630  11.338  12.977  11.138  0.2029 -0.1287 -0.0981
16500W        W31631   4.077  16.580  15.305 -0.0123  0.0862 -0.1001
16501W        W31632  12.482  15.239   4.188 -0.1551  0.0471  0.0207
16502W        W31633   2.996   3.689  14.424  0.1275  0.3261  0.0803
16503W        W31634   8.237   0.696  14.761  0.2098 -0.2067 -0.0638
16504W        W31635  15.665  16.661  11.617  0.2519 -0.1018 -0.2740
16505W        W31636   2.071  13.361  15.301 -0.2711 -0.1713 -0.1661
16506W        W31637   0.200  13.536  11.189  0.0041 -0.2760  0.0466
16507W        W31638   2.743   4.850   0.751  0.2165 -0.3475 -0.2152
16508W        W31639   2.239   8.500  13.007 -0.3044  0.1703 -0.6774
16509W        W31640  18.445   1.863  11.311  0.3906  0.1055 -0.2162
16510W        W31641  18.381  10.983   5.566 -0.0161  0.0374  0.0432
16511W        W31642   5.269   4.513  11.848  0.3594  0.2598 -0.0247
16512W        W31643   2.898  17.818   1.276 -0.0311 -0.0571  0.2160
16513W        W31644  15.948  11.908  14.724 -0.0151  0.2128 -0.0275
16514W        W31645  17.636   2.938   1.474  0.2067  0.1444 -0.2216
16515W        W31646   8.725   6.546   2.198 -0.0483 -0.0672 -0.2121
16516W        W31647   4.916   1.154  12.376  0.1075  0.3557 -0.3236
16517W        W31648   8.472  10.760   1.017  0.0141  0.0786  0.0829
16518W        W31649  13.741  17.247   0.098  0.0616  0.1599  0.0066
16519W        W31650  17.251   4.521  15.803  0.1934  0.1693  0.1981
16520W        W31651  17.695  16.030  14.312  0.0818 -0.0594 -0.0985
16521W        W31652  15.290  11.995  15.651  0.0711 -0.1729 -0.1315
16522W        W31653  14.437   3.186  12.699  0.1100  0.0595 -0.0090
16523W        W31654   8.940  17.498  11.481 -0.0478  0.3842  0.0647
16524W        W31655  10.702  17.405   5.548  0.0742 -0.2601 -0.0725
16525W        W31656   4.920   1.248   3.504  0.0589 -0.1589  0.0229
16526W        W31657  15.533   3.986  10.962  0.0448  0.2678 -0.4076
16527W        W31658  10.140   4.169  10.162 -0.1662 -0.0056 -0.0194
16528W        W31659  10.400   5.773   4.451  0.0652 -0.0842  0.0604
16529W        W31660   9.275   7.245  15.140  0.1567 -0.0941 -0.1666
16530W        W31661  14.414   1.980  11.258  0.3578 -0.1602  0.0147
16531W        W31662   0.264  13.212  11.839  0.0757 -0.0224  0.0276
16532W        W31663   9.680   3.168   3.079  0.1083  0.0048 -0.2482
16533W        W31664  18.040  16.382   4.436  0.1978  0.1344 -0.1354
16534W        W31665  15.347   0.310   3.212  0.0069  0.0605 -0.0847
16535W        W31666  11.579  11.725  13.976  0.1663 -0.0422 -0.0615
16536W        W31667  15.879   3.425  11.396  0.1005 -0.1280  0.0211
16537W        W31668  11.209   7.349   1.394 -0.0428 -0.1558 -0.2595
16538W        W31669  12.046   8.804   5.241 -0.0871 -0.2207 -0.0166
16539W        W31670  17.739  10.026  15.575 -0.0801 -0.1359  0.3596
16540W        W31671  11.423   0.057  12.981 -0.1801 -0.0804  0.1855
16541W        W31672  18.426   1.925   0.132  0.2164 -0.1930 -0.1553
16542W        W31673   9.871  11.749  14.017 -0.1701  0.1114  0.1322
16543W        W31674  13.974   4.176   2.700 -0.2368  0.0256  0.4046
16544W        W31675  17.856   7.664   4.862 -0.3176 -0.0965  0.3822
16545W        W31676   1.992   1.729   4.123 -0.0657  0.0130 -0.0494
16546W        W31677   3.479  10.690   6.015 -0.2533 -0.0418 -0.0290
16547W        W31678   1.987   2.961  15.725 -0.1931 -0.1066 -0.1259
16548W        W31679   3.625   7.135  12.042  0.1517  0.0182 -0.0141
16549W        W31680  15.578   1.097  10.088 -0.0169 -0.0106 -0.2772
16550W        W31681  17.386  15.930  15.334  0.0224 -0.4053 -0.0473
16551W        W31682  16.540  13.049   4.327 -0.2528  0.1490 -0.4364
16552W        W31683  12.140  11.458   5.193 -0.1011  0.0738  0.0600
16553W        W31684   1.621   8.212   5.197 -0.0800 -0.1204 -0.3122
16554W        W31685   9.381   2.833  15.663  0.0547  0.1132 -0.1547
16555W        W31686  13.058   8.019   1.276  0.1138 -0.1315  0.1518
16556W        W31687  17.902   7.330   3.335  0.0248 -0.2067  0.2762
16557W        W31688  14.789   1.580  14.226 -0.3583  0.0184 -0.1968
16558W        W31689   3.442   2.901   1.761  0.0993  0.3557  0.0674
16559W        W31690   7.913   0.410   5.053 -0.0953 -0.0046 -0.2941
16560W        W31691   6.594   7.238   0.415 -0.1965  0.0485  0.0422
16561W        W31692   6.089   7.901   2.770 -0.4132 -0.1705 -0.1457
16562W        W31693  11.686   3.891   3.805 -0.1015 -0.1249 -0.1284
16563W        W31694   4.431  15.541  11.163 -0.1380 -0.2309 -0.2264
16564W        W31695  10.932   9.482  11.150 -0.0812  0.0579  0.0930
16565W        W31696   1.610   8.909  12.043 -0.1019 -0.0922  0.4163
16566W        W31697   7.250  11.852   2.154  0.0288 -0.0239  0.0603
16567W        W31698  16.669  12.199   0.791  0.0735 -0.1937 -0.0365
16568W        W31699   0.288   5.910   1.835 -0.1972  0.2357 -0.1160
16569W        W31700  18.109   7.327   1.525  0.2074 -0.0122  0.1213
16570W        W31701  17.366   5.156  13.100 -0.1080  0.0845 -0.0041
16571W        W31702  10.417  16.464  15.412 -0.1096 -0.0600  0.0264
16572W        W31703   6.788   1.632   3.234 -0.0113  0.3204 -0.2148
16573W        W31704   3.887   2.733  15.807  0.1093  0.0527 -0.0909
16574W        W31705  15.742   7.332   5.143  0.1119  0.1073 -0.2448
16575W        W31706   7.582  12.481  11.046  0.2904 -0.0908 -0.0465
16576W        W31707   9.735  12.990   0.132  0.1062  0.2439  0.2638
16577W        W31708  18.522   3.644  12.881  0.0139 -0.1651 -0.1826
16578W        W31709   2.005   3.358   3.600  0.0913 -0.0611 -0.0600
16579W        W31710  14.277   2.916  11.373 -0.0865  0.1211 -0.1669
16580W        W31711  16.211  17.140  10.980  0.4654  0.2454 -0.3920
16581W        W31712   9.074   8.108  13.633 -0.1886  0.2557  0.2742
16582W        W31713   2.161   2.587   1.909  0.1866  0.0243  0.1404
16583W        W31714   3.370  14.828  15.752 -0.0818 -0.0130  0.0805
16584W        W31715   6.859  15.970  15.358  0.2032  0.1917 -0.0787
16585W        W31716   0.746   3.906   4.838  0.0159  0.1295  0.0197
16586W        W31717  15.042  14.661  15.109  0.0132 -0.0121 -0.0293
16587W        W31718  14.030  15.739   5.153 -0.0062 -0.1564  0.2678
16588W        W31719  11.570   6.673   3.899  0.2519  0.1158  0.0995
16589W        W31720   2.911  15.712  11.186 -0.0191 -0.0636  0.0582
16590W        W31721   9.310   6.344   4.469  0.0646 -0.1773  0.1531
16591W        W31722   7.489   7.209  12.250 -0.3605 -0.3082 -0.0851
16592W        W31723   3.927   8.182  12.640 -0.0855  0.1818  0.1388
16593W        W31724  12.471   1.069   4.871 -0.0401 -0.0390 -0.2110
16594W        W31725   5.977   9.679  11.193  0.2872  0.0279  0.0413
16595W        W31726  13.283   5.103  11.973 -0.1205 -0.1121 -0.2848
16596W        W31727  16.139   5.983  14.413  0.1987 -0.2413 -0.2158
16597W        W31728  11.344  15.871   1.449 -0.0705  0.1238  0.0128
16598W        W31729   4.238   7.194  12.783  0.1365  0.0902  0.1317
16599W        W31730   9.013   6.014  14.483 -0.2693  0.0871 -0.0001
16600W        W31731  18.497   6.121   1.323  0.2237  0.1598  0.0087
16601W        W31732   0.114  15.933  12.754 -0.1570  0.0334 -0.0091
16602W        W31733   8.913  15.887  13.804  0.3696  0.2596 -0.1226
16603W        W31734  14.519   0.430   2.563 -0.1218  0.0310  0.2015
16604W        W31735   9.453   5.726  15.370  0.0000  0.0689  0.2016
16605W        W31736  12.327   3.519   1.077 -0.1506  0.0203 -0.0167
16606W        W31737   3.391   9.272   0.454 -0.0448  0.2852 -0.0391
16607W        W31738  16.289  15.145   2.107 -0.0202  0.0092 -0.2716
16608W        W31739   3.065   0.372  12.512 -0.0001 -0.0277 -0.0775
16609W        W31740  13.610  14.597  11.387 -0.0565 -0.2017 -0.0298
16610W        W31741   7.858   5.407   0.786 -0.0816 -0.1905  0.0396
16611W        W31742  14.318  14.634  11.065  0.2548 -0.2778 -0.0848
16612W        W31743   1.543  12.057   6.088  0.1740  0.3054  0.1883
16613W        W31744   7.848   9.113   2.445 -0.0980 -0.1764 -0.0413
16614W        W31745   9.603  16.430   1.990  0.1537 -0.0959 -0.2034
16615W        W31746   3.125  13.688  11.348  0.0975 -0.0474  0.2304
16616W        W31747   4.955   5.416   2.743 -0.1476 -0.1886 -0.0963
16617W        W31748   5.749   1.140   2.366  0.0754  0.2336 -0.2076
16618W        W31749   4.656   0.129  13.322 -0.0871  0.1032  0.0981
16619W        W31750  11.397   0.641   3.608 -0.1993  0.1327 -0.0018
16620W        W31751   9.414   4.362  13.079 -0.2029 -0.1669  0.1421
16621W        W31752   3.693   5.314   3.199 -0.3444  0.0243  0.1713
16622W        W31753  14.531   2.539  15.208 -0.3314  0.0535 -0.0748
16623W        W31754   5.663   3.019  13.268  0.2951 -0.1812 -0.1425
16624W        W31755   7.012   7.909  15.343  0.3742 -0.3068 -0.0788
16625W        W31756   7.294   0.682  11.992  0.1727  0.1019  0.2653
16626W        W31757   9.720   6.103   0.875 -0.1839 -0.0584  0.0084
16627W        W31758  16.398   6.018   3.530 -0.1979  0.1237 -0.1428
16628W        W31759   7.823   7.887  13.739 -0.0169 -0.1926  0.0032
16629W        W31760   5.632  12.554  10.507  0.0929 -0.1836 -0.0542
16630W        W31761   8.801   1.089   2.935  0.0644 -0.5066 -0.3739
16631W        W31762   4.687   5.786  11.795  0.0478 -0.0790 -0.0275
16632W        W31763   5.760   0.853   3.969 -0.2129  0.0624 -0.0077
16633W        W31764   9.489   2.634  14.448 -0.1434 -0.1999 -0.1063
16634W        W31765   3.196   3.398   4.775 -0.1913 -0.3430 -0.0595
16635W        W31766  12.356   2.494   3.540  0.2571 -0.0817  0.1342
16636W        W31767  12.439  14.182  14.352  0.0543 -0.0336 -0.1664
16637W        W31768   9.732  11.888   0.829 -0.0665  0.2794  0.1138
16638W        W31769  16.861  11.344   0.084  0.0283 -0.0044 -0.0228
16639W        W31770  10.629  10.179  14.188 -0.1057 -0.0242 -0.2656
16640W        W31771   3.536  15.170   3.411 -0.0923 -0.0778  0.2225
16641W        W31772  12.197   6.430   3.257  0.1516 -0.2472 -0.3612
16642W        W31773  14.033  13.954  11.733 -0.3411  0.0318 -0.1091
16643W        W31774  14.598   9.259   1.185  0.4149 -0.1648 -0.3969
16644W        W31775   0.817  14.240   3.454  0.1046 -0.1622  0.2203
16645W        W31776   2.904   0.111   3.645 -0.3174  0.0563 -0.2136
16646W        W31777  17.921  15.083  14.973 -0.1076  0.0626 -0.0122
16647W        W31778   0.720   0.114  13.443 -0.1861  0.1806 -0.0570
16648W        W31779   9.289  11.124   3.233  0.2153  0.0030 -0.0423
16649W        W31780   0.581  15.010  12.614 -0.2537 -0.2951 -0.1130
16650W        W31781   5.500  14.427  14.005 -0.0526 -0.0914 -0.0047
16651W        W31782  18.017  10.631   6.373  0.2346  0.2177 -0.0051
16652W        W31783  11.584  12.034   2.995  0.1999  0.3463 -0.0909
16653W        W31784  11.579   7.290  12.714 -0.1141  0.1550  0.0973
16654W        W31785  12.453  17.736   2.515 -0.3204 -0.4415 -0.3748
16655W        W31786  13.955   6.166   2.540 -0.2635 -0.2827  0.3669
16656W        W31787   7.644  11.183  15.793 -0.5520 -0.0233  0.0264
16657W        W31788   9.238  12.592   0.925  0.0939  0.1772 -0.0730
16658W        W31789   7.676   0.554  11.663 -0.0428 -0.0803  0.0339
16659W        W31790  16.448   6.871   1.515  0.1913 -0.0905  0.0754
16660W        W31791  10.711  17.433  13.350  0.0192 -0.0742  0.5294
16661W        W31792   3.263   9.744   4.455 -0.1675 -0.0404  0.0892
16662W        W31793   7.027  14.716  12.267  0.1412  0.0638  0.0584
16663W        W31794   1.654   1.517   2.724  0.0461 -0.3260 -0.2171
16664W        W31795   8.410   1.674  15.403  0.4300 -0.0988  0.0893
16665W        W31796   8.462   3.751  15.254 -0.1303  0.1044 -0.0837
16666W        W31797  11.192   5.684   0.802 -0.0689  0.0766  0.1912
16667W        W31798  10.353  16.886   3.955 -0.2794 -0.1953 -0.2323
16668W        W31799  13.668  10.437   2.892 -0.1302 -0.0504 -0.1502
16669W        W31800  12.283   7.482   5.299  0.0175 -0.0848  0.0214
16670W        W31801   9.004  11.433  12.223  0.2425 -0.1447 -0.1036
16671W        W31802   5.857  18.415  15.482  0.3307 -0.1642  0.1559
16672W        W31803   6.499  11.825   4.490  0.1542  0.0987  0.0519
16673W        W31804   1.678  18.500   1.490 -0.0678  0.1362  0.3099
16674W        W31805   5.181  14.565   1.228 -0.1604  0.0265 -0.1182
16675W        W31806  10.612  18.488  11.061 -0.2155 -0.0883 -0.3382
16676W        W31807   8.966   7.201   1.014 -0.1206  0.2372 -0.2275
16677W        W31808  14.204  17.934   4.609 -0.2088 -0.2006 -0.3012
16678W        W31809   2.104  15.229  14.292 -0.1787  0.0145  0.1495
16679W        W31810  10.658   8.548  11.278  0.0844 -0.0544 -0.2134
16680W        W31811   2.215  13.830  15.495 -0.0447 -0.3770 -0.2852
16681W        W31812   1.271  17.367  10.988  0.3972 -0.1694 -0.1651
16682W        W31813   4.356  15.016   5.160  0.1998  0.2118  0.1080
16683W        W31814  17.687   5.601   0.085  0.0661 -0.2555  0.1519
16684W        W31815   5.035   3.598   2.045  0.0702 -0.2658 -0.1695
16685W        W31816  10.764   3.509  14.447 -0.0790 -0.0767  0.1184
16686W        W31817   9.406  15.604  11.588 -0.1380 -0.2921  0.3356
16687W        W31818   0.135   0.511  11.834 -0.1467 -0.1613 -0.1027
16688W        W31819  10.951  15.449  12.107 -0.3144  0.0254  0.3122
16689W        W31820   2.544  14.047   0.899  0.4709  0.3757  0.0514
16690W        W31821   1.015  17.946  11.680  0.0745  0.1135 -0.1410
16691W        W31822   9.796   6.434  10.645  0.2054 -0.3616 -0.0527
16692W        W31823  12.215   0.542   5.110  0.0266 -0.2468 -0.2524
16693W        W31824  18.310  14.541   2.775  0.1448  0.1827 -0.0520
16694W        W31825   4.404   0.598  10.461 -0.0944 -0.1029  0.1097
16695W        W31826  14.658  17.028   2.092 -0.2428 -0.2079  0.3111
16696W        W31827   3.677   6.794   0.720  0.1533 -0.1340  0.3440
16697W        W31828  14.358   7.778  12.519  0.2051 -0.1415  0.1844
16698W        W31829   7.802  11.980   4.148 -0.0744  0.1433  0.0548
16699W        W31830   2.542  15.143   5.031 -0.2690  0.2895  0.6076
16700W        W31831  11.665  11.528  15.235  0.1707  0.1240  0.0434
16701W        W31832  14.005  10.154  11.204 -0.0963 -0.2436  0.0685
16702W        W31833   4.155   9.888   1.836 -0.0201 -0.0743  0.1316
16703W        W31834  15.278   4.565   1.777 -0.0313 -0.1441  0.0958
16704W        W31835  10.749  15.448   2.650 -0.0002 -0.3411 -0.4203
16705W        W31836   3.448   7.917  10.599 -0.2448 -0.1784  0.1236
16706W        W31837   5.913   4.742   2.089  0.2527  0.3314  0.0296
16707W        W31838   0.740  13.979   2.257 -0.0268  0.3318 -0.0660
16708W        W31839  11.695   6.629   9.879 -0.1473 -0.1860  0.1227
16709W        W31840  13.912  12.619   3.370 -0.2714  0.0635  0.0876
16710W        W31841  13.845   4.813  12.304 -0.0216 -0.1531 -0.0064
16711W        W31842  16.801  16.893  13.316  0.2970 -0.0858 -0.0921
16712W        W31843   0.517   4.434   4.921 -0.1081  0.4112 -0.0853
16713W        W31844  14.917   8.941   5.893  0.3093 -0.3885 -0.1919
16714W        W31845  10.425  17.599  13.838  0.1866 -0.0056 -0.0962
16715W        W31846   3.479  11.407   5.508  0.2046  0.0330  0.0484
16716W        W31847  16.130   1.416   5.065 -0.4528 -0.0104 -0.3595
16717W        W31848   8.019   6.270   5.280 -0.1156  0.3398 -0.1616
16718W        W31849   3.218   4.180   9.739 -0.0171  0.1606  0.1471
16719W        W31850  16.493   9.876  12.063  0.0945  0.4174  0.0906
16720W        W31851   2.773   3.967  13.834  0.0281  0.0874 -0.1371
16721W        W31852   1.503   2.488  15.573  0.1339  0.2547  0.5422
16722W        W31853   8.065   7.823  13.308 -0.1796  0.0268  0.0629
16723W        W31854   5.075   3.800   2.987  0.1428 -0.2677  0.0619
16724W        W31855  13.098   1.049   2.250  0.2689  0.1112  0.2786
16725W        W31856   4.883   0.674  15.183  0.0282 -0.1249 -0.3587
16726W        W31857  15.492  17.422  14.063 -0.0486  0.2805 -0.0101
16727W        W31858   6.353  13.256   5.303  0.0178  0.2923 -0.0157
16728W        W31859  14.736   7.697   1.580 -0.2635  0.2026  0.2716
16729W        W31860   5.683   3.538  13.105  0.0021 -0.0745 -0.2161
16730W        W31861   0.090  16.047   3.831 -0.0128  0.0107 -0.4459
16731W        W31862   1.430  10.579   0.086 -0.0536 -0.0108 -0.0603
16732W        W31863   8.972   3.073  12.527  0.1944  0.1242 -0.2001
16733W        W31864  12.091   1.736   9.888 -0.0290 -0.1211 -0.2196
16734W        W31865  12.636   6.774  13.314  0.2879  0.0247  0.0500
16735W        W31866  14.585  17.860  10.101  0.0750  0.1184 -0.1038
16736W        W31867  10.519  16.093   3.261  0.2567  0.1438  0.1719
16737W        W31868  16.798   1.889  11.806  0.0165  0.2847  0.1344
16738W        W31869   9.180  16.904  10.691  0.1352 -0.1226 -0.1555
16739W        W31870   1.197   3.264  13.431 -0.0990 -0.0932 -0.1913
16740W        W31871  17.874  11.632   1.616  0.0449 -0.1984 -0.0097
16741W        W31872   4.892   5.748   1.501  0.2596  0.1169  0.0049
16742W        W31873   5.022   3.654  11.394  0.0810  0.2472  0.3057
16743W        W31874  16.010   4.614   1.297 -0.1460  0.1673 -0.1249
16744W        W31875   4.423  10.805  15.476  0.1610 -0.2862  0.0914
16745W        W31876   7.184   1.893  13.446  0.0095 -0.1046 -0.1215
16746W        W31877  18.173  12.340   2.082 -0.3105 -0.0672  0.1048
16747W        W31878   7.736   5.336   6.226 -0.0277 -0.1206  0.0525
16748W        W31879   6.509   2.583  11.071 -0.1933 -0.0984 -0.0234
16749W        W31880  16.073   7.735   5.297  0.1774  0.1314  0.1774
16750W        W31881  17.958   3.430   4.588 -0.1696 -0.2408  0.2226
16751W        W31882   5.374   9.691  13.853  0.1250  0.2041  0.3204
16752W        W31883   6.866   6.946   5.369 -0.4480  0.0847  0.1828
16753W        W31884  10.065  10.899  14.586 -0.1988  0.1551  0.1050
16754W        W31885   8.631   3.179  14.483 -0.0541 -0.2039  0.0628
16755W        W31886  13.519   6.786   2.577  0.3362  0.3759  0.0293
16756W        W31887  10.585  13.632   1.268  0.0862  0.1340 -0.1724
16757W        W31888  14.207   1.717  10.865 -0.1270  0.0711  0.1662
16758W        W31889  16.578   6.813   2.836 -0.0924 -0.0428 -0.1581
16759W        W31890  12.793   4.271   1.607  0.1794  0.0060 -0.0994
16760W        W31891  17.614  15.930  10.867 -0.0677 -0.0018  0.0591
16761W        W31892  17.132  14.148   0.609  0.0432 -0.1676 -0.1614
16762W        W31893  10.692  16.933   1.312 -0.2019  0.0439  0.1718
16763W        W31894  11.651   1.421   0.913 -0.1210  0.0271  0.1274
16764W        W31895   9.642   0.207  13.609 -0.0442 -0.0852  0.0370
16765W        W31896   8.695   3.915   5.276 -0.2401 -0.0629  0.0438
16766W        W31897   2.943   8.609  11.657 -0.0688 -0.1548  0.1699
16767W        W31898  11.241   3.009   2.789  0.0672 -0.0246 -0.1373
16768W        W31899   7.125  12.605   1.595 -0.0792  0.4182  0.0020
16769W        W31900  14.415   0.147   0.305 -0.0906 -0.0285 -0.1234
16770W        W31901  17.420   9.919  13.681 -0.0189  0.1184 -0.1123
16771W        W31902   8.263   7.275  12.807 -0.1260 -0.1570 -0.2095
16772W        W31903   3.693   6.959   1.804 -0.0062  0.3445 -0.0080
16773W        W31904   7.699  15.818   2.245  0.0354 -0.0650  0.1107
16774W        W31905   6.700  13.121  11.073  0.1773 -0.1344 -0.1312
16775W        W31906   8.332  18.000  14.315 -0.1129 -0.3283 -0.0883
16776W        W31907  14.622   2.847   1.785 -0.3850 -0.0457 -0.4031
16777W        W31908   8.064  12.300   5.550 -0.3059  0.0574  0.0394
16778W        W31909  17.458  11.489   1.840  0.0469 -0.2365 -0.0705
16779W        W31910  13.433   6.950  11.148  0.2651 -0.1246 -0.0752
16780W        W31911   7.430   9.755  13.755 -0.1415 -0.2033  0.2725
16781W        W31912   2.629   6.949   3.794 -0.1571  0.1187 -0.2287
16782W        W31913   6.391   3.140   0.433 -0.0658 -0.0419  0.0325
16783W        W31914  10.123  11.520   2.519  0.1383 -0.1141  0.0874
16784W        W31915   2.764  10.872  14.514  0.4627 -0.0062 -0.0788
16785W        W31916   4.033  16.820   5.108  0.2529 -0.2547  0.0263
16786W        W31917   0.796  18.380   3.054  0.0769 -0.0462 -0.0358
16787W        W31918  13.418  11.603  14.685 -0.0011  0.1062 -0.1920
16788W        W31919   9.453   4.426   1.026  0.2271  0.2841  0.0283
16789W        W31920   3.015   2.516  11.005  0.0677 -0.0486 -0.1851
16790W        W31921  13.807  10.926  14.913 -0.0785 -0.0705 -0.1667
16791W        W31922  15.755  10.570   2.318 -0.1100 -0.2391  0.1878
16792W        W31923  11.798   2.996  14.528  0.1501 -0.0213  0.3612
16793W        W31924   6.817  16.038  13.304  0.3360 -0.0454 -0.1324
16794W        W31925   1.770   2.292   2.083 -0.0290 -0.0972  0.1092
16795W        W31926  12.089   5.649   3.424  0.1597 -0.1855  0.3419
16796W        W31927   7.076  15.141   2.917 -0.1641  0.0463 -0.3155
16797W        W31928   7.870  16.905   4.447 -0.0811 -0.1031 -0.0694
16798W        W31929  14.600  15.560   2.175  0.2041  0.0222 -0.1812
16799W        W31930   3.843  18.331  15.524 -0.0227  0.2254 -0.1415
16800W        W31931   2.303  14.473  13.647 -0.1710 -0.0850 -0.2554
16801W        W31932   1.226   4.954  15.817 -0.4249 -0.2383 -0.0016
16802W        W31933   7.526   7.567   1.497  0.2549  0.1365 -0.0823
16803W        W31934  14.858  14.259   3.421 -0.0097  0.2957 -0.1984
16804W        W31935  15.439  17.135   4.145  0.3363 -0.2384 -0.1444
16805W        W31936  16.060   6.262  15.580 -0.1390  0.1569  0.1304
16806W        W31937   7.967   4.949   3.767  0.1812 -0.0867  0.0676
16807W        W31938   6.067  11.202   9.894 -0.3595 -0.0804  0.4489
16808W        W31939  12.184   9.157   2.159 -0.0806 -0.0349  0.1160
16809W        W31940   4.884  14.564   1.606  0.3726  0.1927  0.5597
16810W        W31941   6.925  11.557   4.316  0.0329  0.2728 -0.2007
16811W        W31942   3.286  14.098   5.913  0.2102  0.3725  0.0110
16812W        W31943  10.209  15.723  13.611  0.4944 -0.3298 -0.2975
16813W        W31944   6.742   8.648   1.801  0.1949 -0.2788 -0.3037
16814W        W31945   7.784   3.733   4.063  0.0155  0.1700 -0.3754
16815W        W31946  16.907  16.025   0.763  0.2803 -0.1055 -0.0216
16816W        W31947  10.598  14.007  14.116 -0.1673 -0.0540  0.0182
16817W        W31948  14.519   4.127  13.841  0.1013  0.2923  0.2108
16818W        W31949  13.481   3.397  15.748  0.2243 -0.2764 -0.1354
16819W        W31950   3.810  10.163  13.722 -0.1147 -0.0221  0.2773
16820W        W31951   4.423  17.991   4.593  0.1317 -0.0973  0.1891
16821W        W31952   3.918  15.754  11.022 -0.3543  0.2145  0.1682
16822W        W31953   2.314   5.328  11.368 -0.1493 -0.0159  0.0360
16823W        W31954   2.724  11.493  12.455  0.1559 -0.1614 -0.0055
16824W        W31955  18.111   8.766  15.693  0.0250 -0.1000 -0.2498
16825W        W31956   9.090   1.065   3.453 -0.1299  0.2052  0.1922
16826W        W31957   3.298  18.421   2.647  0.1055 -0.0730 -0.0008
16827W        W31958   0.830   9.236   2.188 -0.1580  0.1581 -0.5763
16828W        W31959   0.115   5.149  11.362 -0.2301  0.1846 -0.3276
16829W        W31960  10.910   9.401  11.673  0.0488 -0.1437 -0.1530
16830W        W31961   4.577  10.904  10.829  0.1461 -0.2883 -0.1507
16831W        W31962   0.824  17.778   0.165  0.0870 -0.2135 -0.0173
16832W        W31963  14.621   2.022   4.447  0.1041  0.1866  0.1553
16833W        W31964   0.898  17.263  14.065 -0.0150  0.1655 -0.1484
16834W        W31965   3.453  15.791   0.934  0.1107  0.3643  0.1495
16835W        W31966  17.242   5.265   1.449  0.0140  0.0687 -0.2235
16836W        W31967  10.060   1.524   2.697 -0.1298  0.0554 -0.1046
16837W        W31968   5.251  12.850   5.966 -0.0232  0.1331 -0.3111
16838W        W31969   4.917  16.132   5.090  0.0623  0.0411 -0.3990
16839W        W31970   0.484  14.274  14.405  0.2065  0.2014  0.1709
16840W        W31971   9.573   1.681   1.479  0.2299  0.1604  0.1804
16841W        W31972  16.524   1.359   1.244 -0.1464 -0.0993  0.1181
16842W        W31973   5.008   2.285   4.432 -0.1427 -0.1860  0.2723
16843W        W31974   7.785   5.250   2.128 -0.2067 -0.0137  0.2571
16844W        W31975   5.755   2.745   5.456 -0.3784 -0.2368 -0.2133
16845W        W31976   6.337  16.850  10.749  0.1316 -0.0628  0.1675
16846W        W31977   2.864  15.002   0.130 -0.1226 -0.2795 -0.2889
16847W        W31978  15.597  18.351  12.461  0.1080 -0.1426  0.1974
16848W        W31979  13.421  12.148  12.558  0.0206 -0.0121  0.1575
16849W        W31980   8.481  14.556   0.796 -0.1395 -0.1732  0.3958
16850W        W31981   4.957   4.057  15.045 -0.1534 -0.1083  0.3478
16851W        W31982   7.097   9.934   3.498 -0.2960  0.0648 -0.0768
16852W        W31983  10.440  16.847   1.707  0.0191  0.0919 -0.0744
16853W        W31984   4.018  16.439   4.652 -0.1251 -0.2419  0.0700
16854W        W31985  13.133  11.494   4.684  0.0416 -0.1496  0.1230
16855W        W31986  12.498  10.290   2.980  0.0786 -0.0277  0.0327
16856W        W31987   1.373   9.004   5.142  0.1332 -0.3364 -0.0436
16857W        W31988   5.291   1.454   0.856 -0.1173 -0.1626  0.1527
16858W        W31989   4.936  15.636   3.826  0.0931 -0.1439  0.1406
16859W        W31990  12.230   0.230  14.017 -0.2220  0.0803  0.0507
16860W        W31991  10.610   6.441   3.422 -0.4182 -0.0087  0.0348
16861W        W31992  15.697  13.389  11.326 -0.0513 -0.3394  0.0371
16862W        W31993   7.979   7.888  14.564  0.0082  0.0033 -0.1335
16863W        W31994   2.295   8.457  10.652  0.3361  0.0856 -0.0128
16864W        W31995  12.937   2.306   0.866 -0.2055  0.0577 -0.0069
16865W        W31996   2.253   7.805   2.265  0.2978  0.0235  0.0950
16866W        W31997   4.631   6.240  11.079  0.0625  0.0378 -0.2059
16867W        W31998   2.461   1.864   4.753  0.2214  0.0612 -0.1209
16868W        W31999  14.224  13.474  11.766  0.2678  0.2541 -0.1601
16869W        W32000   8.746   6.372  10.342 -0.0741 -0.1836  0.0064
16870W        W32001  12.711  14.486  12.721 -0.2528 -0.4496 -0.0798
16871W        W32002  13.446   1.983   0.000  0.0919 -0.0219 -0.2936
16872W        W32003   6.591   2.529   1.238  0.1628  0.3132 -0.1908
16873W        W32004   8.475  11.935   3.019  0.1249  0.1540 -0.2261
16874W        W32005  17.182   1.894   1.468  0.0755  0.0889  0.2184
16875W        W32006  10.268   7.222  10.807 -0.2610  0.1860 -0.3871
16876W        W32007   9.517   1.360  13.736  0.0711 -0.0662 -0.1305
16877W        W32008  13.816  14.420   3.949  0.1002  0.0404 -0.3800
16878W        W32009  11.563  15.102  12.624 -0.2419 -0.0583 -0.3795
16879W        W32010  10.343  11.005   1.544  0.2011  0.0573  0.0063
16880W        W32011   5.717   5.466  11.176 -0.3359  0.1194  0.0923
16881W        W32012  15.752  17.724  10.608 -0.2013  0.1937 -0.2433
16882W        W32013  17.981  11.805   2.501  0.3320 -0.0702  0.0139
16883W        W32014   4.821   8.005  15.278 -0.1293  0.0087 -0.2650
16884W        W32015  14.668  16.898  15.867 -0.2650 -0.1290  0.3873
16885W        W32016  15.158  18.384  13.790 -0.1265  0.1761 -0.1553
16886W        W32017  11.391  16.787  13.569 -0.3534  0.1880  0.0495
16887W        W32018  13.921   9.364   3.164  0.2417  0.0008 -0.1933
16888W        W32019   0.168   7.932   5.070 -0.2622  0.3985  0.1793
16889W        W32020  13.945   7.601  14.979 -0.0888  0.2155  0.2572
16890W        W32021   6.022  12.939   0.785 -0.1594 -0.1640 -0.0049
16891W        W32022   6.510   2.758   0.838 -0.2111 -0.1152 -0.0974
16892W        W32023   2.723  16.158   9.878 -0.2976  0.0897  0.2467
16893W        W32024   2.808   8.242   3.431 -0.2045 -0.0194  0.0519
16894W        W32025   7.305   3.670  12.457 -0.1715  0.0384 -0.1539
16895W        W32026   9.062   1.452  14.656 -0.3423  0.3121 -0.3383
16896W        W32027   9.448  14.629   4.589 -0.2101 -0.2135  0.0879
16897W        W32028   0.725  14.330   0.738 -0.2032  0.1803  0.0161
16898W        W32029   7.466   3.244   2.669 -0.3346 -0.1663  0.1790
16899W        W32030   2.222  12.765  11.876 -0.2724  0.0025 -0.1000
16900W        W32031   1.344  17.113   2.824 -0.0507 -0.1419  0.0381
16901W        W32032  16.791   1.612  14.121  0.0716  0.4298  0.0546
16902W        W32033   4.174   4.077  11.862  0.3299  0.2889 -0.0929
16903W        W32034   7.814  16.105   5.207 -0.1613 -0.1424  0.1060
16904W        W32035  13.413  12.094  14.486  0.2390  0.0221  0.0045
16905W        W32036  16.859   5.480   1.726 -0.2246  0.0973  0.1650
16906W        W32037  18.291   3.644   1.250  0.1413 -0.0365 -0.0484
16907W        W32038   2.119  14.537   4.468 -0.1497  0.0477 -0.0344
16908W        W32039  13.981  18.373   0.362 -0.1015  0.2672 -0.2366
16909W        W32040  11.400  14.850   4.108  0.0079  0.0650  0.0115
16910W        W32041   5.192   5.829  11.620 -0.3390  0.0949 -0.3366
16911W        W32042   2.741  18.299  10.580 -0.1276 -0.2410  0.1194
16912W        W32043  15.445   3.713   3.225 -0.1771 -0.1311  0.0745
16913W        W32044   9.704   4.062   4.068  0.1353 -0.2392 -0.2433
16914W        W32045   8.050   2.040   2.799  0.0827  0.0604 -0.4165
16915W        W32046   5.666  12.095   5.026  0.1918 -0.0983  0.1653
16916W        W32047   1.956   6.924   2.473 -0.4079 -0.2275  0.1133
16917W        W32048   5.536   0.938   0.179  0.0827  0.0539 -0.1499
16918W        W32049  14.616  15.761  14.421 -0.0360  0.1644  0.2488
16919W        W32050  10.915   7.835  14.808  0.2075 -0.0327 -0.0488
16920W        W32051  12.847   5.948   2.147 -0.0874 -0.1384  0.0697
16921W        W32052   4.569   3.457  11.205  0.1229 -0.1921  0.1279
16922W        W32053   8.841   0.991  14.876 -0.0888  0.0915 -0.0048
16923W        W32054   1.510  10.446  12.909  0.3611  0.1482 -0.2150
16924W        W32055  12.284   3.731   5.744 -0.0707  0.1181 -0.3593
16925W        W32056  16.318   4.545  15.145 -0.1147  0.2078  0.0840
16926W        W32057   2.416  15.374   2.853  0.0827  0.1309 -0.0326
16927W        W32058   9.040   3.588  13.631  0.0733  0.1575 -0.2396
16928W        W32059  10.312   1.342   2.296  0.1678  0.2561  0.1468
16929W        W32060  16.438   5.681  14.786  0.0167  0.2610 -0.3362
16930W        W32061  18.336   5.163   4.652 -0.0191 -0.1094 -0.0790
16931W        W32062  12.938   3.466   2.234 -0.0473  0.2199 -0.1886
16932W        W32063  11.504   0.836  10.556 -0.1191 -0.2196 -0.0330
16933W        W32064  12.236   4.609   0.069 -0.3567 -0.0852 -0.1769
16934W        W32065   3.158  18.066   5.029 -0.1997 -0.5720 -0.1058
16935W        W32066   0.413   1.510  14.776 -0.0861  0.0556 -0.1300
16936W        W32067  16.617   6.185   4.508 -0.0935  0.0583 -0.1232
16937W        W32068   8.123  14.500  12.920  0.0053  0.2461 -0.3930
16938W        W32069   2.846   6.624  14.281 -0.3599 -0.1530 -0.1251
16939W        W32070  14.738   3.958   3.085 -0.0910 -0.3662  0.0105
16940W        W32071  18.268   4.034  11.730  0.0091  0.1990 -0.3382
16941W        W32072  15.646   9.715  11.901  0.3333 -0.1433  0.2775
16942W        W32073   3.734  11.667  12.457 -0.1155  0.1848 -0.0560
16943W        W32074  17.898  15.082   5.589  0.1374 -0.1057 -0.0697
16944W        W32075   2.927   9.840  10.828  0.0013  0.2072  0.0671
16945W        W32076   9.352  18.352   2.148  0.0231  0.1476  0.1771
16946W        W32077  12.336  14.028  13.457  0.1028 -0.0059  0.2078
16947W        W32078  12.691   1.875   3.160 -0.0614 -0.2201  0.1653
16948W        W32079  13.025  11.461   1.954  0.1496  0.2417 -0.0242
16949W        W32080   9.750   7.564   0.220 -0.1522  0.0697  0.1390
16950W        W32081   1.748   3.944  15.298  0.1841  0.0004  0.0674
16951W        W32082   4.414   0.443   3.252 -0.0909 -0.1551 -0.0234
16952W        W32083   8.488   0.828  12.322  0.2540 -0.2364  0.3038
16953W        W32084  10.577   1.204  10.065  0.0962 -0.0847 -0.1620
16954W        W32085  17.301  16.220  12.699  0.2389 -0.1011  0.0501
16955W        W32086  17.695   4.662   2.844 -0.1838  0.4251 -0.0508
16956W        W32087  11.738  16.007  12.737 -0.2931 -0.2635 -0.3224
16957W        W32088  17.207  14.844  13.987 -0.1702  0.1434  0.0287
16958W        W32089  15.094   1.406   0.934  0.0157 -0.1471  0.0242
16959W        W32090  11.662  17.835  12.295  0.2590 -0.0271 -0.1810
16960W        W32091   0.186  11.288   5.363 -0.2419 -0.2349  0.0080
16961W        W32092   6.967   4.577   1.066 -0.2050 -0.1156 -0.4271
16962W        W32093   1.558   4.760  11.875 -0.0897 -0.0569 -0.2265
16963W        W32094   4.710   0.701  14.683 -0.1165  0.2126  0.0865
16964W        W32095  15.498   3.717   0.164 -0.0803  0.0355 -0.1804
16965W        W32096   2.675  12.329   0.157  0.0932  0.1859  0.1160
16966W        W32097   4.157  12.799  13.780  0.2775 -0.0996  0.3735
16967W        W32098   9.813  12.474   0.580 -0.1207 -0.0085  0.0459
16968W        W32099  17.712   3.221  13.694 -0.3648 -0.3059  0.0381
16969W        W32100  10.519   8.083   4.877  0.1096 -0.1127  0.1522
16970W        W32101  13.365   8.229  12.564 -0.1305  0.1220  0.0920
16971W        W32102  11.981   9.921   2.048  0.2087  0.0856 -0.1045
16972W        W32103   0.989  15.302  14.150 -0.1823  0.0121  0.0966
16973W        W32104  13.029   6.233   0.243  0.0589  0.1953 -0.1326
16974W        W32105  18.148  10.041  13.892  0.0968 -0.0776  0.1390
16975W        W32106  17.130   8.273   5.316 -0.4015 -0.0933 -0.1842
16976W        W32107   8.371  11.492  11.235  0.2399 -0.0303  0.2502
16977W        W32108  10.243   8.601   5.462 -0.2623  0.1685  0.0934
16978W        W32109   6.594   1.433  13.386  0.3891 -0.0929 -0.3484
16979W        W32110   2.461   7.339   4.906  0.2224 -0.3301 -0.1981
16980W        W32111   7.735  11.999  12.379 -0.0944 -0.1928  0.2018
16981W        W32112   7.242   4.839   3.378  0.0643 -0.0827  0.0039
16982W        W32113   5.110   8.594  10.864  0.1279  0.0815 -0.0366
16983W        W32114   5.844   6.375  12.234 -0.0634  0.2066  0.3970
16984W        W32115   0.770   6.911  11.259  0.0751  0.0689 -0.3147
16985W        W32116   7.262   1.996   4.007 -0.0655  0.3218 -0.1326
16986W        W32117   2.436  10.514  12.813  0.2061  0.0965 -0.0389
16987W        W32118  11.817  12.009   0.650 -0.1133  0.2393  0.2638
16988W        W32119  18.342   3.332   0.325  0.1554 -0.2781 -0.2246
16989W        W32120  17.515  15.141  13.141  0.3276  0.0110  0.4371
16990W        W32121   5.392  12.628   3.405 -0.4637 -0.2263 -0.0263
16991W        W32122   1.303   4.586  13.664  0.3959  0.1343 -0.1152
16992W        W32123   4.778   4.868   1.416 -0.2908 -0.0934 -0.1292
16993W        W32124  14.039   4.799   5.402 -0.0742  0.0502 -0.0961
16994W        W32125  16.385  12.794   4.960  0.2219  0.2027 -0.3165
16995W        W32126  16.780   0.824  15.875 -0.2030 -0.1337 -0.1498
16996W        W32127   3.167  13.414  15.234  0.2213 -0.1817  0.3392
16997W        W32128  12.494   9.031  10.924  0.0822  0.1022  0.1015
16998W        W32129   9.090  16.428  14.898 -0.2147 -0.0670 -0.2850
16999W        W32130  14.362   2.474   4.318 -0.1274  0.0319  0.0064
17000W        W32131  11.392  10.615  11.218  0.2002 -0.0473 -0.1528
17001W        W32132  14.730   9.310   4.273  0.0102 -0.3915 -0.1455
17002W        W32133   0.310   2.965  13.329 -0.0163  0.1065  0.0491
17003W        W32134  10.279  17.730  13.012 -0.0898 -0.0635  0.2170
17004W        W32135   6.225  16.371   0.867 -0.1603  0.1971 -0.1583
17005W        W32136  14.407  17.437   1.844  0.1442  0.0866 -0.0319
17006W        W32137  11.152   3.566   1.892  0.0498 -0.0123 -0.1312
17007W        W32138  13.566   7.427  15.750  0.0820  0.2280  0.0313
17008W        W32139   8.398  12.012  12.137  0.0735  0.1063 -0.0655
17009W        W32140  11.872   4.840   2.824  0.1397  0.0762 -0.0018
17010W        W32141   3.170   9.882   1.411  0.0341  0.0078 -0.1366
17011W        W32142   2.854   5.708   1.292  0.0198  0.0588  0.1772
17012W        W32143   8.230  11.785   5.377 -0.0376 -0.1483  0.1780
17013W        W32144  13.312  16.605  13.600  0.0867 -0.1699  0.0903
17014W        W32145   9.957  14.848  13.762  0.2592 -0.0404 -0.1363
17015W        W32146   1.974  12.103  12.833  0.3260 -0.2657 -0.2301
17016W        W32147  12.639  11.412   4.475 -0.0325 -0.1261  0.1507
17017W        W32148   0.878   0.732  13.983  0.0856  0.0427  0.2212
17018W        W32149   6.982  18.142   4.329 -0.1354  0.1363  0.3398
17019W        W32150   4.087   0.656   3.778  0.1548  0.2165 -0.1361
17020W        W32151   8.648   4.529  12.738 -0.3437 -0.0827  0.0812
17021W        W32152   3.971   4.700   3.972  0.2323  0.0160 -0.2343
17022W        W32153   8.580   3.329  12.765 -0.0382  0.2375 -0.1153
17023W        W32154   1.297  15.880   3.155  0.0217 -0.3327  0.0191
17024W        W32155   8.173  11.956  11.528  0.2350  0.0369 -0.4003
17025W        W32156   1.989  12.453   0.123 -0.2766  0.1384 -0.0112
17026W        W32157  12.963   4.356  11.316 -0.1580 -0.2325 -0.0518
17027W        W32158   3.350  12.502  14.258  0.0507 -0.0926  0.1955
17028W        W32159   9.130   6.298   1.393  0.2473 -0.1057  0.2155
17029W        W32160   7.264   4.809   2.853  0.0148  0.2160 -0.2084
17030W        W32161  13.809   4.405   2.273  0.0926  0.2123 -0.1405
17031W        W32162  13.432   7.934  12.083 -0.1249  0.1691 -0.2509
17032W        W32163  10.820  17.736  10.390  0.1851 -0.1504 -0.0629
17033W        W32164   4.054  16.836   1.503 -0.0399  0.1134  0.0861
17034W        W32165   7.926  18.468  11.820 -0.1854  0.0772 -0.2645
17035W        W32166  14.818   0.950   0.271 -0.0214  0.2291 -0.2502
17036W        W32167  15.987  12.489  14.892 -0.2433 -0.1898  0.0690
17037W        W32168   6.884  10.639   4.263 -0.0290  0.2853  0.2544
17038W        W32169   6.026   4.055   3.536 -0.3276  0.1239  0.1229
17039W        W32170   1.056   4.407  12.622  0.0944 -0.0821  0.1273
17040W        W32171  16.921  12.299   9.986  0.2470 -0.0774  0.1457
17041W        W32172  11.481   4.155   3.382  0.0311 -0.3217 -0.1078
17042W        W32173   0.829   9.288   2.797  0.0079 -0.1224 -0.2888
17043W        W32174  16.011  11.605  15.142 -0.1083 -0.1454  0.1698
17044W        W32175   8.641   2.166   1.110  0.0154 -0.2820 -0.2884
17045W        W32176  12.487  14.783   0.710  0.1244  0.2795  0.0727
17046W        W32177   1.601   6.791   3.469 -0.0810  0.0216 -0.2938
17047W        W32178  12.499   5.975  15.130 -0.2185  0.0858  0.0955
17048W        W32179   1.170   8.642  11.229 -0.0894  0.0871  0.0413
17049W        W32180   0.603  11.367   3.976 -0.1031  0.1105  0.3403
17050W        W32181  15.735  12.850   0.980 -0.0502  0.1180  0.1633
17051W        W32182   6.606   6.837  12.650  0.1779 -0.1602 -0.2121
17052W        W32183   7.470  11.618   3.322 -0.2516 -0.1077 -0.1945
17053W        W32184  11.796   5.676   1.044  0.1561  0.2222 -0.0618
17054W        W32185   3.744   0.312   1.512  0.2283  0.0373 -0.0106
17055W        W32186  10.219  14.962  13.276  0.0635 -0.0843 -0.0681
17056W        W32187   4.775  11.017  14.159 -0.0055  0.1325  0.1348
17057W        W32188   5.030  10.275   1.226 -0.1388  0.0438  0.2409
17058W        W32189   6.053   1.362   1.600  0.1468 -0.0054 -0.2720
17059W        W32190   3.606  16.294   3.760 -0.0650  0.0563 -0.0537
17060W        W32191   2.577  15.797   4.777 -0.0729  0.2420 -0.1297
17061W        W32192  15.582   0.316  13.902 -0.0899  0.1968 -0.4737
17062W        W32193   2.970   3.047  13.754 -0.2557 -0.2450 -0.2003
17063W        W32194  15.887   1.461  10.433  0.0163 -0.3243 -0.2161
17064W        W32195   5.288  17.766   4.816 -0.0073  0.1332 -0.0577
17065W        W32196   2.264   7.929   0.306  0.2315  0.0606  0.1172
17066W        W32197   1.518  18.140   9.801  0.0697  0.0576  0.0379
17067W        W32198  13.184  10.808  12.343  0.2482 -0.0497 -0.1303
17068W        W32199   4.868   6.462   2.551 -0.2152 -0.1792 -0.1221
17069W        W32200   7.542  17.711  12.718 -0.1234 -0.3490  0.1237
17070W        W32201  10.549   3.190   0.277  0.0554 -0.2390  0.1177
17071W        W32202   0.562  16.670  13.467  0.2718 -0.1282  0.0320
17072W        W32203   2.092   6.577   2.181 -0.1557 -0.1367 -0.1510
17073W        W32204  16.873   3.588   2.375  0.1921  0.0529 -0.0202
17074W        W32205   0.886  17.513   3.203 -0.1764  0.1601  0.2414
17075W        W32206   7.891   8.225   1.998  0.2390 -0.0398  0.0220
17076W        W32207   6.443  10.682  12.184 -0.0980  0.0385  0.2438
17077W        W32208   7.973   7.723   1.827  0.0004  0.2822 -0.3707
17078W        W32209   3.820   0.249   3.930  0.4703  0.2869  0.2051
17079W        W32210   8.963   8.727  13.820 -0.1842 -0.2107 -0.0492
17080W        W32211  10.158  14.875  15.480  0.1578 -0.2536 -0.1158
17081W        W32212  16.416  10.891   5.610  0.2604  0.0740  0.1260
17082W        W32213   8.628  18.376  11.137  0.2814  0.0322  0.1508
17083W        W32214   7.711   0.196   4.064  0.0723  0.5110 -0.4410
17084W        W32215   7.675  13.013   3.093  0.2568  0.0640  0.0845
17085W        W32216   0.867  15.806  14.199 -0.5193  0.2510 -0.0251
17086W        W32217   9.324  12.207   0.617  0.0424  0.0743 -0.0749
17087W        W32218  10.641  15.726  14.816 -0.1115  0.0868 -0.0928
17088W        W32219  16.556   7.460   4.524 -0.0234 -0.1696  0.3729
17089W        W32220  12.818   3.561   3.609  0.2018 -0.1088 -0.2714
17090W        W32221   6.599   2.489   0.082 -0.2579 -0.1448  0.0499
17091W        W32222   8.261   9.148  13.591 -0.0269 -0.1466  0.4104
17092W        W32223  10.529   2.847   2.236  0.2698 -0.1178  0.1853
17093W        W32224   2.758  11.954  14.575 -0.3895  0.0543  0.1170
17094W        W32225   5.934   8.639  11.102  0.0393  0.0525 -0.1907
17095W        W32226   9.405   0.550   0.270  0.2626 -0.0255  0.2878
17096W        W32227   7.503   8.539  13.450  0.0258  0.0221  0.1276
17097W        W32228   6.505   1.365  12.751 -0.1863 -0.1312  0.1003
17098W        W32229  15.049  10.558   0.191  0.0241  0.0515  0.3035
17099W        W32230   0.420   2.644   2.024 -0.2931 -0.0513  0.0946
17100W        W32231  10.088  18.452  13.887  0.1795  0.1842 -0.2681
17101W        W32232   8.261   5.397  14.569  0.1097 -0.0067 -0.0202
17102W        W32233  15.228   6.338  13.563  0.1634 -0.2727  0.0234
17103W        W32234   2.851  17.663   2.871 -0.1740 -0.2085  0.0999
17104W        W32235  13.373   8.370  13.689  0.2093  0.1717 -0.3765
17105W        W32236  16.406   8.747   4.369 -0.2342  0.0099  0.1100
17106W        W32237   1.768  11.856   3.422  0.0180  0.0478 -0.2244
17107W        W32238  16.021   6.344  11.317 -0.0475  0.0330  0.0310
17108W        W32239  17.004  16.530   0.310 -0.0203 -0.2564  0.1097
17109W        W32240   0.014   9.228   5.405 -0.3051 -0.0079 -0.1484
17110W        W32241   8.891   9.798  10.259 -0.0528  0.1713  0.1259
17111W        W32242   6.586   2.223  13.769  0.1607  0.1516  0.1439
17112W        W32243  18.256  16.484   4.940  0.0380 -0.2738  0.0745
17113W        W32244  15.843   7.213  13.801 -0.0563  0.0344  0.1501
17114W        W32245  15.203   0.466  11.184  0.1430 -0.0681 -0.0892
17115W        W32246   7.553  12.119   0.319 -0.1830  0.0772  0.4174
17116W        W32247   3.231  13.903  15.130 -0.0345 -0.1942 -0.2082
17117W        W32248   0.079   7.319   2.900 -0.1972 -0.2025 -0.1781
17118W        W32249   9.229  14.185  12.440  0.2173 -0.0106 -0.4062
17119W        W32250   3.951  12.657  12.360 -0.3506 -0.2203  0.1221
17120W        W32251   6.168   2.225  13.445 -0.2378  0.1727  0.2240
17121W        W32252   4.498   5.473   1.607  0.2078 -0.0807  0.1119
17122W        W32253   3.564   5.070  14.572  0.4285 -0.0854  0.1033
17123W        W32254  17.229   8.492   3.179  0.0594 -0.2391 -0.0018
17124W        W32255   0.170   9.939  14.938 -0.0615  0.0494  0.0450
17125W        W32256   5.557   7.940  12.304 -0.0127  0.0489 -0.0761
17126W        W32257  13.138  14.279   4.568 -0.1240  0.2867  0.0406
17127W        W32258   2.554  17.846   2.545 -0.2240 -0.0912 -0.3435
17128W        W32259   5.519  14.174   1.104 -0.0087 -0.0981  0.2732
17129W        W32260   2.044   6.004  11.412  0.3391  0.0817  0.2856
17130W        W32261  12.541   9.453   0.352  0.1558  0.1171 -0.0728
17131W        W32262   1.790  14.320   3.435  0.1691 -0.2522  0.1682
17132W        W32263   6.971  15.611   1.062  0.0200  0.0223  0.0118
17133W        W32264  11.831  17.018  15.192 -0.0287  0.0898  0.0078
17134W        W32265   2.001   8.682  15.603 -0.1980  0.1201 -0.1396
17135W        W32266   0.233   0.261  13.480 -0.0455 -0.1979  0.0159
17136W        W32267   4.729  10.748   2.891  0.0642 -0.1486 -0.1595
17137W        W32268  10.861  17.098   2.850  0.1540 -0.1212  0.1498
17138W        W32269   5.386   9.286  12.873  0.1954  0.4221 -0.0896
17139W        W32270   3.896   8.719   2.138 -0.0150  0.3496  0.2161
17140W        W32271   9.881  12.976   1.467  0.3988 -0.0143  0.1758
17141W        W32272  11.001  10.845   4.851  0.2727 -0.0226 -0.0177
17142W        W32273   8.484  13.861  12.793  0.0021 -0.0639  0.0912
17143W        W32274  17.199  16.737  11.941 -0.2367 -0.1809 -0.1594
17144W        W32275   6.949  12.897  14.277  0.0449  0.0257 -0.1552
17145W        W32276   3.126  18.013  13.791  0.0612  0.3263  0.0538
17146W        W32277   7.161   7.693  12.464  0.0533 -0.2733 -0.1403
17147W        W32278   1.668  16.040  11.920  0.0756  0.0900  0.2091
17148W        W32279  14.135   8.646  15.347 -0.1617  0.1708 -0.0740
17149W        W32280  10.820  10.129  10.456 -0.0668 -0.2376 -0.0058
17150W        W32281  10.127   2.793  13.243  0.1961  0.0108 -0.1572
17151W        W32282  15.972   5.675   4.255  0.0573 -0.0424 -0.0897
17152W        W32283  12.584  15.632   4.567 -0.4733  0.0869  0.4552
17153W        W32284   5.717   5.710   3.657 -0.0780 -0.0352 -0.2703
17154W        W32285  10.907   9.397   5.298  0.1272 -0.2335 -0.0313
17155W        W32286  10.696   5.357   4.702  0.0060  0.1932  0.0713
17156W        W32287  12.960  13.660   3.774 -0.1358  0.0610 -0.0133
17157W        W32288   6.567  12.625  10.910  0.3535  0.2570  0.0827
17158W        W32289   3.384   9.057   2.187  0.0324  0.1153 -0.1909
17159W        W32290   0.420  12.172  15.090  0.2667 -0.2419  0.2922
17160W        W32291  11.468   3.373   2.451  0.2074 -0.1300  0.0288
17161W        W32292  14.499  12.012   2.842 -0.1770 -0.5365 -0.0980
17162W        W32293   8.603  15.335   1.456  0.0931  0.1547 -0.0440
17163W        W32294  14.754  13.927   1.138 -0.2013 -0.2568 -0.0804
17164W        W32295   0.451   9.179  10.546 -0.1351 -0.0567 -0.0095
17165W        W32296   8.094  17.345   0.522 -0.0739  0.1806  0.0105
17166W        W32297  10.953   9.960   5.428 -0.0633  0.0520  0.2750
17167W        W32298   4.677  13.528  15.380 -0.0429  0.3986 -0.2887
17168W        W32299  17.381  18.240  13.446 -0.1426 -0.0805 -0.0631
17169W        W32300   4.927  16.412   0.733 -0.2655 -0.3861  0.0868
17170W        W32301  14.253  16.588   2.705  0.1432  0.2236  0.0259
17171W        W32302   4.538  17.701   5.305 -0.0028 -0.5060 -0.0736
17172W        W32303   7.267  13.767  14.460 -0.3615  0.0947 -0.0857
17173W        W32304   2.392   9.581   1.497  0.4886 -0.0487  0.0868
17174W        W32305  17.230  10.484   2.805 -0.4170  0.0929  0.1451
17175W        W32306   5.711   3.739  10.801  0.3423 -0.3284 -0.1368
17176W        W32307   8.321   2.504   4.474  0.1501 -0.2112  0.4475
17177W        W32308   7.139   2.482   5.414  0.1314  0.2803 -0.0575
17178W        W32309  17.023   9.752   3.895  0.1677  0.0642  0.0697
17179W        W32310   7.612   1.756   3.646  0.0822 -0.0076 -0.0282
17180W        W32311   4.273  17.221  10.847  0.2675 -0.4492 -0.4831
17181W        W32312   3.889   1.230  12.528 -0.3090  0.0834  0.5224
17182W        W32313  14.640  10.863   0.078 -0.1630  0.2443 -0.0129
17183W        W32314  16.521  15.086  13.151  0.0885  0.3206 -0.0320
17184W        W32315  10.445   2.131   3.234  0.1947  0.0103 -0.2119
17185W        W32316  15.238   6.229   2.835 -0.3929 -0.2289  0.0409
17186W        W32317  15.341  13.213  10.561 -0.0950 -0.4048  0.1032
17187W        W32318  14.166  13.106   5.131  0.0708  0.1326  0.1081
17188W        W32319   2.795  11.692   1.228 -0.2395  0.0458 -0.1771
17189W        W32320  13.683   9.486   1.799 -0.2413 -0.2321 -0.1652
17190W        W32321   2.057   5.981  15.153 -0.1712  0.3646 -0.0686
17191W        W32322   1.466   9.564   5.047  0.2850 -0.0595  0.0035
17192W        W32323  16.352  10.385   1.340 -0.1164  0.2276  0.0099
17193W        W32324   8.924  15.136   4.222  0.1645 -0.0640  0.1366
17194W        W32325   1.480  12.867   3.534 -0.1772  0.0481 -0.0189
17195W        W32326  15.629  15.729   5.086 -0.1095  0.0023 -0.0799
17196W        W32327  13.183   1.583   0.071 -0.1213 -0.0487 -0.0025
17197W        W32328   8.235  14.659  10.861 -0.2237 -0.0969  0.0846
17198W        W32329   8.741   4.948   0.934 -0.0626  0.2617 -0.0455
17199W        W32330   8.676  11.049   0.616 -0.0135  0.0777 -0.2239
17200W        W32331   7.933   4.415  14.095 -0.0173 -0.2124  0.2796
17201W        W32332  17.182  13.358  12.370 -0.1530  0.0696  0.0894
17202W        W32333  18.309  15.769   3.003 -0.1767  0.3561  0.1356
17203W        W32334   5.194   5.573  11.086 -0.3187  0.3267 -0.3575
17204W        W32335   5.792  10.584  15.114 -0.1856  0.0773  0.0156
17205W        W32336  17.986   8.456   1.189  0.2732 -0.1886  0.1061
17206W        W32337  17.186  10.124   0.380  0.0193  0.0984  0.0484
17207W        W32338   8.380  18.501  10.055  0.2127 -0.0911 -0.0847
17208W        W32339   4.166   9.426  13.406 -0.0020 -0.0059  0.0327
17209W        W32340   1.299  17.025  10.638  0.3199 -0.3067 -0.0345
17210W        W32341   1.198   6.957   0.241 -0.2861 -0.0069  0.0908
17211W        W32342  12.476  12.706   1.656  0.1017  0.1488 -0.1356
17212W        W32343  16.178  13.525  15.877 -0.1324  0.3625  0.1517
17213W        W32344   1.743   0.246   0.550  0.0963  0.2055  0.0339
17214W        W32345  16.035   1.118   1.593  0.0718  0.5637  0.1327
17215W        W32346  12.612   9.283   5.111  0.2543  0.1414 -0.4164
17216W        W32347   9.859  17.682   3.869 -0.4581  0.0788 -0.0759
17217W        W32348  18.116   5.840  14.229 -0.0946 -0.3229 -0.1553
17218W        W32349   8.760  17.237   4.540  0.0019 -0.2290 -0.1190
17219W        W32350   9.490  12.852   1.769  0.1334  0.2129 -0.1891
17220W        W32351   3.724  17.159   1.362 -0.3356 -0.0671 -0.2997
17221W        W32352  15.345  16.167   1.843  0.2378  0.1491  0.1055
17222W        W32353  12.276   0.774  15.466  0.0985 -0.1853 -0.0425
17223W        W32354   9.587   2.987   0.942  0.0351  0.0176  0.1248
17224W        W32355  12.767  14.855  13.203 -0.1859 -0.2189  0.1468
17225W        W32356   1.728   3.898  11.406 -0.0070  0.0127 -0.1858
17226W        W32357   9.613  12.906   5.693 -0.1056  0.0051  0.0898
17227W        W32358   3.554   5.795   5.389  0.1300 -0.1519  0.0065
17228W        W32359  12.397   9.332  12.552  0.1680 -0.1370  0.0514
17229W        W32360   3.951   2.862  14.111 -0.0052 -0.2177 -0.2677
17230W        W32361  12.732   4.890   3.897  0.0226  0.1929 -0.1157
17231W        W32362   5.593  16.749  13.228 -0.1393  0.0916  0.2986
17232W        W32363   3.898  17.385   1.847  0.0137  0.3259  0.0907
17233W        W32364   7.914   1.248  14.988 -0.2099  0.4813 -0.1827
17234W        W32365   1.857   7.436   4.225  0.0005  0.0235 -0.0513
17235W        W32366  10.619  13.574   2.622  0.2364  0.3401 -0.1006
17236W        W32367   7.104  11.485   4.990 -0.0237 -0.0929  0.0535
17237W        W32368  18.179  15.816  14.404  0.0524 -0.0091 -0.0456
17238W        W32369   0.573   8.824  12.933 -0.1809 -0.1751  0.0755
17239W        W32370  10.292  18.116  12.162  0.1640 -0.0042  0.1501
17240W        W32371   8.035   4.655   2.118 -0.0303  0.2292  0.0996
17241W        W32372  10.622  16.099   2.269 -0.1952  0.1165  0.1257
17242W        W32373  10.415   4.770   3.916  0.0235  0.1269  0.1664
17243W        W32374  17.578  10.018  14.788 -0.0490 -0.1792  0.1581
17244W        W32375   1.327   7.609  14.377  0.1080 -0.0474 -0.1417
17245W        W32376   1.186  12.341   6.377 -0.1996 -0.0227 -0.4171
17246W        W32377  15.299  17.449  14.909 -0.1215 -0.1395  0.0121
17247W        W32378   0.471  11.300  13.387 -0.0324 -0.1700 -0.1018
17248W        W32379   8.086   5.220  14.114  0.3574  0.5147  0.1150
17249W        W32380   2.961   2.129  10.053  0.1336  0.3942  0.0875
17250W        W32381   4.766   0.852   4.278  0.1952  0.0217 -0.3263
17251W        W32382  13.473  13.162  14.403 -0.0660  0.0620 -0.1011
17252W        W32383   8.073   1.520   4.455 -0.5015  0.2726  0.1108
17253W        W32384   5.809   9.356  12.532  0.0845 -0.0054  0.2271
17254W        W32385  17.896  13.443   4.526 -0.1684  0.0924 -0.2528
17255W        W32386  17.832   9.689   2.467  0.3418  0.2759  0.0374
17256W        W32387  11.240  10.639   0.155 -0.1085 -0.2384  0.1685
17257W        W32388   3.910   1.334   4.488  0.1547  0.1071  0.0295
17258W        W32389  14.124  10.252   3.026 -0.1146 -0.1756 -0.0501
17259W        W32390   2.439  16.644   0.677 -0.0758  0.3317  0.1847
17260W        W32391  16.336   0.360   5.291  0.0502  0.3439  0.0645
17261W        W32392   7.343  14.179  11.275  0.0117  0.1268 -0.0533
17262W        W32393   2.256   1.892   5.827 -0.1965 -0.1815  0.0836
17263W        W32394  14.493  13.710   2.140  0.1350  0.1133  0.2211
17264W        W32395  16.908   7.813  10.771  0.3081  0.1851  0.2081
17265W        W32396   4.663  17.613  10.108 -0.0356 -0.0817  0.0532
17266W        W32397  14.205   9.986  12.592 -0.3275  0.0256 -0.0414
17267W        W32398  11.722   2.723   4.210  0.2483 -0.0114 -0.1494
17268W        W32399  18.209   3.254  13.832  0.0256  0.1863 -0.1108
17269W        W32400  15.872  16.846  15.376  0.2308 -0.1897  0.0321
17270W        W32401  18.498  12.197  11.778  0.0326  0.0195 -0.1306
17271W        W32402   2.824  18.372  14.493  0.2300  0.1853 -0.4066
17272W        W32403   7.931  18.426  14.315 -0.4281  0.0439  0.3042
17273W        W32404  13.930  14.414  11.905  0.1054 -0.0111  0.2173
17274W        W32405   0.175   9.355   4.095  0.2855  0.0417  0.2934
17275W        W32406   3.867  12.854  14.747 -0.0155 -0.3782 -0.0756
17276W        W32407   4.991  11.234   0.854  0.1752 -0.1947 -0.0807
17277W        W32408  15.453   6.252   2.295  0.0367 -0.0653  0.2328
17278W        W32409  12.548  12.510  12.034 -0.0377 -0.2296 -0.0030
17279W        W32410  18.256   8.850  12.593 -0.0635 -0.2366 -0.0520
17280W        W32411   8.774   7.526  14.533  0.2179 -0.1290 -0.0969
17281W        W32412   4.949  12.422   0.756  0.1298  0.0104  0.2414
17282W        W32413   7.596  17.640   1.951 -0.1256 -0.3082  0.0542
17283W        W32414   6.247  10.826  15.733  0.0107  0.3260  0.1951
17284W        W32415  14.499  15.759   0.495 -0.1756  0.0126  0.1600
17285W        W32416   6.527   9.098  15.237 -0.1121 -0.1567  0.1862
17286W        W32417   5.239   3.751  14.107 -0.1815  0.1549 -0.0958
17287W        W32418  10.869  13.988  15.184  0.1122  0.1982  0.0956
17288W        W32419  13.504   2.007  14.096  0.0223  0.0970  0.0519
17289W        W32420  16.127  14.459  12.112 -0.1481 -0.3076  0.1194
17290W        W32421   2.453   4.998   1.723 -0.0990  0.2292 -0.0178
17291W        W32422   1.251  16.620   1.868 -0.1256  0.4860 -0.0356
17292W        W32423   5.617  13.654  12.637  0.1026  0.1079 -0.0178
17293W        W32424   2.616  14.181   4.280  0.0924  0.0064 -0.1101
17294W        W32425  15.100  10.074  15.828 -0.3241 -0.0290 -0.1553
17295W        W32426   7.854   6.372   1.183 -0.2100  0.2415  0.1005
17296W        W32427  10.095  16.453  13.094  0.0282 -0.0710  0.1513
17297W        W32428  12.302  16.092   3.018 -0.2396  0.0127  0.4068
17298W        W32429  17.306  13.262   2.785 -0.4237 -0.1089 -0.1765
17299W        W32430  16.638   3.910  12.945  0.2711  0.2221  0.4988
17300W        W32431  13.072  14.298  13.259 -0.1492 -0.0714  0.2898
17301W        W32432  11.421   1.865  13.770 -0.0529  0.1133  0.0746
17302W        W32433  10.310   2.390  12.483 -0.0360  0.2445  0.1498
17303W        W32434  15.490  13.006  11.028  0.0354  0.3021  0.0769
17304W        W32435  15.320   5.431  11.096  0.0182 -0.3355 -0.1748
17305W        W32436  12.629   1.015   2.488  0.2442  0.1053  0.1696
17306W        W32437   9.312  11.402   4.468  0.0274 -0.0325 -0.1514
17307W        W32438   3.696   1.228  13.872  0.0859 -0.3542  0.1306
17308W        W32439   7.333   9.781  14.285 -0.3627  0.1713  0.1209
17309W        W32440  11.122  11.792  13.598  0.1837  0.3627 -0.0730
17310W        W32441  12.933   7.229  15.851  0.3273 -0.0186 -0.1218
17311W        W32442   5.725  10.200  14.658  0.1551 -0.0913 -0.0913
17312W        W32443   9.940  15.750  14.232  0.3922 -0.1085 -0.1498
17313W        W32444   0.987   7.420  14.088 -0.0314  0.0888  0.1613
17314W        W32445   3.183  16.929  15.808  0.0611  0.3302  0.2288
17315W        W32446   0.341  11.491   3.509 -0.0870  0.2186  0.0470
17316W        W32447   5.131   8.182   2.856  0.2523  0.4962  0.0996
17317W        W32448   5.857   0.780  13.332 -0.0879  0.3868 -0.0611
17318W        W32449  15.122  16.494  13.729  0.1041  0.4464  0.2694
17319W        W32450  18.123   2.402   1.762  0.2442  0.1133 -0.2483
17320W        W32451   9.247  10.496   3.849 -0.1315 -0.1095  0.1148
17321W        W32452   4.200   0.926   6.087  0.1601 -0.2529 -0.0494
17322W        W32453   6.116   8.123   1.509 -0.1809  0.0717 -0.1323
17323W        W32454  17.344  16.324  11.075 -0.2848 -0.2058 -0.1215
17324W        W32455  13.719   1.719   4.432  0.1216 -0.0416 -0.1063
17325W        W32456   9.193  16.564   1.695 -0.0774 -0.3006  0.0436
17326W        W32457  18.113  12.626   0.277  0.0912  0.2417  0.3520
17327W        W32458  11.804  17.371  12.445  0.0878  0.0419  0.1466
17328W        W32459   9.844  10.218  10.630  0.0624  0.0027  0.2001
17329W        W32460   4.271   8.877  15.895 -0.1492  0.1985 -0.1509
17330W        W32461   1.153  13.889   2.036  0.1807 -0.2043  0.4041
17331W        W32462  15.737   1.804  13.320 -0.0329 -0.4369  0.0659
17332W        W32463  11.481  16.050   9.392 -0.0663  0.0242  0.0224
17333W        W32464   1.391  18.526   0.951 -0.0917 -0.0966  0.7666
17334W        W32465  17.235   7.015   4.756 -0.1278 -0.0634 -0.2392
17335W        W32466   5.880  15.324   0.964  0.1318 -0.0228  0.2967
17336W        W32467   4.571   1.755   2.330  0.0373 -0.2939  0.1408
17337W        W32468  15.008   1.658   4.666  0.1176 -0.4091 -0.0135
17338W        W32469   5.749   2.118  13.191  0.2707  0.1861 -0.0102
17339W        W32470   3.753   4.916   1.672 -0.1434  0.1416 -0.2512
17340W        W32471   8.390  13.544   4.553 -0.1730  0.1262 -0.0973
17341W        W32472   6.114   6.877  10.058 -0.1199  0.1575  0.0097
17342W        W32473   0.102   9.834   6.689 -0.1580  0.0579 -0.4314
17343W        W32474   4.821  13.169   5.714  0.2089  0.1004  0.0051
17344W        W32475   9.395   5.595   3.434 -0.2786 -0.3190  0.3079
17345W        W32476   0.101  11.658   0.548 -0.1439  0.0024  0.1419
17346W        W32477   8.466   1.506   5.645 -0.0986  0.1183  0.1320
17347W        W32478  17.371   7.982  12.877 -0.2917 -0.4005 -0.0784
17348W        W32479   2.192  11.430  13.332  0.0795 -0.0204  0.0306
17349W        W32480  15.118   5.114   1.246  0.1667  0.0917  0.1203
17350W        W32481   3.629   4.423   1.469  0.1041 -0.3622 -0.3202
17351W        W32482  16.388   6.149   0.093 -0.2716 -0.1622  0.1130
17352W        W32483   3.324  15.682   5.188  0.0909 -0.0992  0.5841
17353W        W32484   0.108   8.316   3.042  0.1219 -0.1632 -0.2908
17354W        W32485   7.387   4.486   0.344 -0.1091  0.3764  0.2178
17355W        W32486   5.045   4.856  14.409  0.0685  0.1055 -0.0332
17356W        W32487   3.048   3.535  13.979 -0.2697  0.0128  0.1923
17357W        W32488   3.356   9.273  13.531  0.2728 -0.1806  0.2279
17358W        W32489   4.280  13.513   2.275 -0.1292 -0.3699  0.0783
17359W        W32490  14.870   7.701  10.028 -0.1612  0.1147 -0.1751
17360W        W32491   1.098  10.840   4.612 -0.2947  0.1693 -0.0795
17361W        W32492   0.189  12.540   0.294 -0.5332 -0.1731  0.1135
17362W        W32493   7.947   8.791  13.307 -0.1746  0.1455  0.1028
17363W        W32494  15.586  12.635  10.690  0.3197 -0.1543  0.1691
17364W        W32495  11.815  10.489  12.648 -0.0673 -0.0422  0.1319
17365W        W32496   1.733   0.465   0.066 -0.0917  0.4196 -0.5028
17366W        W32497   7.801  11.504   5.129  0.2476  0.3194 -0.2273
17367W        W32498  18.036  11.473  13.214  0.2105 -0.0612  0.0509
17368W        W32499  16.758  13.567  14.575 -0.1563  0.1638 -0.1862
17369W        W32500   8.559  10.497  13.769  0.0656 -0.0147  0.1346
17370W        W32501  10.129   6.248   3.834 -0.0913 -0.0635 -0.0082
17371W        W32502   8.013  14.421   0.193 -0.1822  0.2524 -0.1172
17372W        W32503  13.455  15.543  10.840  0.4230  0.0374 -0.1561
17373W        W32504  13.390  17.887   0.841 -0.0781  0.1829 -0.1091
17374W        W32505   4.881   0.320   3.508 -0.1200  0.0092 -0.1253
17375W        W32506   3.585   2.529  14.327 -0.0789  0.1995 -0.0433
17376W        W32507   2.642  10.819  13.707 -0.1823 -0.1038  0.4926
17377W        W32508   5.888   5.146   3.073 -0.0045 -0.1595  0.1342
17378W        W32509   7.580  10.324   2.187  0.0161 -0.1460  0.0794
17379W        W32510  16.221   3.374  12.027 -0.0485 -0.0234  0.0242
17380W        W32511  12.612   1.702  11.023 -0.1366 -0.0298  0.1484
17381W        W32512   9.043   6.917  12.121  0.3607 -0.3990 -0.2218
17382W        W32513   6.207   7.296   4.814 -0.0907  0.0939 -0.1892
17383W        W32514   3.277   0.497   5.037 -0.4122  0.2417 -0.6009
17384W        W32515   8.794  11.518   2.205 -0.0314 -0.0123  0.0701
17385W        W32516  17.291   0.938  11.319 -0.2788  0.1894 -0.0133
17386W        W32517  14.434   7.746   6.283  0.4290  0.1291 -0.1501
17387W        W32518  13.034   2.378  11.438  0.0256  0.2454 -0.0378
17388W        W32519   1.587  14.204  15.491 -0.1283  0.0325  0.2674
17389W        W32520  12.710  13.348   0.441 -0.2626  0.2367  0.0837
17390W        W32521  12.878  11.850   1.737 -0.4512 -0.1113 -0.0966
17391W        W32522   1.810   7.895  15.140 -0.0973 -0.0351 -0.0107
17392W        W32523  16.266   4.681   0.826 -0.3811 -0.0574  0.1966
17393W        W32524   4.023  11.329   0.778  0.1238  0.1771  0.1100
17394W        W32525  11.096   1.468   0.755  0.0067  0.1012 -0.0469
17395W        W32526  13.642  14.001  15.631 -0.0074  0.2379 -0.1627
17396W        W32527   8.829   8.290   3.233  0.1543 -0.2752 -0.0042
17397W        W32528  13.530   7.829  14.737 -0.0759  0.0004  0.0436
17398W        W32529   9.171   7.745  11.270 -0.1747 -0.0693  0.1726
17399W        W32530   1.185   0.287   0.137  0.0247 -0.2168 -0.0275
17400W        W32531   6.965   2.333  13.355 -0.1561 -0.0719  0.3064
17401W        W32532   7.886   5.208  10.673 -0.0196  0.0723  0.0706
17402W        W32533   6.749   5.182   5.951 -0.3177  0.1173  0.1162
17403W        W32534   7.046  12.384   2.075  0.0478 -0.0267  0.3526
17404W        W32535  16.850  17.099  14.519 -0.1801 -0.1149  0.0658
17405W        W32536   7.411  11.446  12.315 -0.2887 -0.0180  0.0642
17406W        W32537   2.938   1.300  15.720  0.2833 -0.4159 -0.0103
17407W        W32538   5.593  13.963  14.051 -0.0787 -0.0834  0.0864
17408W        W32539  11.861   1.662  10.561  0.2357  0.1477 -0.1026
17409W        W32540   8.324   3.722   2.075 -0.1401 -0.1034 -0.1416
17410W        W32541   7.721  15.935   0.757 -0.0021 -0.1550  0.0077
17411W        W32542  14.481  10.245   4.912  0.0447 -0.0027 -0.1541
17412W        W32543   2.970  10.062   4.928  0.1148 -0.2645  0.3489
17413W        W32544  16.923   4.273   3.847  0.1179  0.2209  0.1111
17414W        W32545   5.468  11.900   1.478 -0.5199 -0.1118  0.1420
17415W        W32546  14.127   6.063   0.938 -0.2538 -0.2734  0.0375
17416W        W32547  11.982   6.500   2.740  0.1406  0.1144  0.0240
17417W        W32548  16.315   0.397  14.003  0.1188 -0.2346  0.0188
17418W        W32549  17.990  14.837   0.822 -0.1097 -0.1593  0.0706
17419W        W32550  17.960   5.723   4.240 -0.2452 -0.4496 -0.1075
17420W        W32551  13.289   7.337   2.067  0.0512  0.0743  0.2064
17421W        W32552   3.400   6.574   2.822  0.2422  0.0240  0.2273
17422W        W32553   2.900  18.315   1.100 -0.2764  0.1178 -0.1920
17423W        W32554   6.500   9.682   2.911 -0.3664 -0.1393  0.0957
17424W        W32555  14.394  14.017   0.310 -0.2435 -0.0843 -0.2593
17425W        W32556   8.688  11.888  11.493  0.1399 -0.3198  0.1705
17426W        W32557   9.119   3.147   2.278  0.0966  0.2577  0.1804
17427W        W32558   1.248   8.026   1.081  0.0480  0.0461  0.1008
17428W        W32559   1.317   6.320   4.881 -0.0141  0.3741  0.3013
17429W        W32560   4.274  13.956   3.545  0.0199 -0.0849 -0.1401
17430W        W32561  14.506  13.885  10.867  0.1329  0.2128  0.1413
17431W        W32562   9.261  17.895  11.743  0.0021  0.3220  0.1256
17432W        W32563   2.037   5.562  15.637 -0.2990 -0.0925  0.2496
17433W        W32564   2.339  15.662  14.755 -0.2468 -0.1158  0.0494
17434W        W32565   7.805  13.891  11.268 -0.0978 -0.1015  0.1810
17435W        W32566  16.110   0.097   0.126  0.1476 -0.2915  0.2305
17436W        W32567   1.178   6.115  10.947 -0.3784  0.0279  0.0497
17437W        W32568  17.825  16.028   2.276  0.2000 -0.2763 -0.1031
17438W        W32569   0.584  15.125   4.566 -0.1319 -0.0290  0.0331
17439W        W32570   2.627   7.081   6.273 -0.0219 -0.1120 -0.1416
17440W        W32571   4.411   6.632  11.447  0.1091 -0.1452 -0.2466
17441W        W32572   8.023   1.488  12.581  0.0452  0.2502  0.0620
17442W        W32573  12.179  16.191  12.705 -0.1797  0.0536  0.1713
17443W        W32574   7.024   6.552  12.757 -0.1756  0.0379  0.0592
17444W        W32575   9.807   4.355   5.024 -0.1046  0.0859  0.1977
17445W        W32576  18.277  16.394   3.871  0.0693  0.2972  0.2168
17446W        W32577   5.916   1.065   3.118 -0.2719 -0.1789  0.3071
17447W        W32578   4.185  11.665   4.273 -0.0728  0.1071  0.2220
17448W        W32579  15.924   5.194   1.870  0.1347  0.0082  0.0395
17449W        W32580   6.428  10.378   5.511 -0.1812  0.1751  0.4328
17450W        W32581  17.786  10.359  12.899 -0.4258  0.0827 -0.1528
17451W        W32582   5.558  11.920  13.257 -0.0853  0.0418  0.0833
17452W        W32583   4.812   4.713  11.926 -0.2250 -0.0113  0.2046
17453W        W32584  17.389   3.892  15.191  0.0102 -0.0328 -0.0723
17454W        W32585   5.694  16.758   2.344  0.1287 -0.0797 -0.2259
17455W        W32586   6.518  15.199   3.121  0.0674 -0.4057 -0.0481
17456W        W32587  12.282   4.690   3.821 -0.1718 -0.1811  0.0675
17457W        W32588  15.769   7.693  11.481 -0.0603 -0.0166 -0.1249
17458W        W32589   2.247  12.810   5.851  0.1325  0.0775 -0.0849
17459W        W32590  13.287  12.162  13.876 -0.1852 -0.0233  0.1825
17460W        W32591   0.138   7.409  13.470 -0.1856  0.1820  0.3200
17461W        W32592   5.542  15.772   2.719  0.0067 -0.0828  0.0470
17462W        W32593   6.306  14.726  11.903  0.1095 -0.1679  0.4270
17463W        W32594  12.514   2.774  15.130  0.4209 -0.0831  0.3549
17464W        W32595   2.109   4.859   4.792 -0.3462 -0.0642  0.1795
17465W        W32596   7.994   9.679  13.650  0.2610  0.0984 -0.0681
17466W        W32597  17.262  17.473   1.072 -0.0584  0.0213  0.2108
17467W        W32598   6.501   0.857  11.467 -0.1017  0.0058  0.2804
17468W        W32599  13.681  10.970   9.854 -0.1478  0.3652  0.1992
17469W        W32600  16.758  13.970   2.973  0.3390  0.1984 -0.1189
17470W        W32601   9.801  17.897   0.492 -0.1877 -0.0258  0.0930
17471W        W32602  15.727  14.044   3.043  0.0546 -0.0192  0.1356
17472W        W32603  12.863   9.333  15.778 -0.0570 -0.2648 -0.0942
17473W        W32604  17.271   8.513  14.544  0.1479 -0.1195 -0.3905
17474W        W32605  14.244  14.436  12.977 -0.0042 -0.4876  0.3083
17475W        W32606   2.212  16.611   2.182 -0.1625  0.1860 -0.3173
17476W        W32607   6.613   2.126  14.957 -0.1131  0.1704 -0.3930
17477W        W32608   3.308  10.338  14.815 -0.0005  0.6172 -0.1195
17478W        W32609   2.465  18.007  13.303  0.2496  0.1665 -0.1785
17479W        W32610   9.297   0.669  10.739  0.0033  0.2350 -0.0060
17480W        W32611   4.712   8.383   2.177  0.0042  0.0324 -0.1898
17481W        W32612  17.971  14.084  14.771 -0.2163 -0.0556  0.1493
17482W        W32613  17.658  11.064  13.704  0.0742  0.2454  0.1564
17483W        W32614  17.230  13.749  14.580  0.2022 -0.2188 -0.2947
17484W        W32615  18.021   0.751   2.020 -0.2809  0.0912 -0.0734
17485W        W32616   9.406   9.462  11.967  0.1794 -0.1196 -0.0509
17486W        W32617   8.739  10.092  15.283  0.3743  0.3841 -0.3883
17487W        W32618   2.233   4.522  13.315 -0.0423 -0.0288 -0.0150
17488W        W32619  14.256   3.862  14.918  0.1205  0.1385 -0.0509
17489W        W32620  14.723  14.628  13.164 -0.2523 -0.1850  0.2181
17490W        W32621  15.449  16.713  11.179  0.0218 -0.3719  0.0713
17491W        W32622  13.728  15.835  13.505  0.2212 -0.4742  0.1784
17492W        W32623  11.404   7.870  15.012  0.2795 -0.0498 -0.0204
17493W        W32624  12.160   1.648   3.006 -0.0674  0.2296 -0.4658
17494W        W32625  16.209  10.507   3.486 -0.0119  0.3013  0.2059
17495W        W32626   9.761  13.609  13.424 -0.0010  0.0262  0.0601
17496W        W32627  17.161  18.434  12.679  0.0661  0.0530 -0.0513
17497W        W32628  15.505   4.134   3.619 -0.0360  0.1032  0.0781
17498W        W32629  12.094  17.084   3.567 -0.0948 -0.1777 -0.2643
17499W        W32630  11.684   8.297   3.061  0.0730 -0.1581  0.1749
17500W        W32631  13.359  15.723  14.658  0.2890  0.1795  0.1122
17501W        W32632   0.758   9.651   5.362 -0.0381 -0.2034  0.4111
17502W        W32633  10.623   7.215   9.899 -0.0624  0.0790  0.1790
17503W        W32634  13.306   8.188  15.073  0.1005 -0.0600  0.1606
17504W        W32635  16.700   0.819  11.123  0.3831  0.3463  0.5079
17505W        W32636   4.359  12.399  13.464  0.5631 -0.0213  0.0843
17506W        W32637   1.622  17.802   3.586 -0.0614  0.2279  0.1642
17507W        W32638   5.869   0.627   2.211  0.0956  0.2039 -0.0453
17508W        W32639  10.752  11.014  14.534  0.0687  0.0822  0.0168
17509W        W32640   4.159  14.559  12.418 -0.0332 -0.2070  0.0435
17510W        W32641   3.649   8.140  14.721 -0.1165 -0.0219 -0.1958
17511W        W32642   7.390   4.762   4.287  0.0501 -0.0153 -0.1438
17512W        W32643   7.154  12.512   5.618 -0.0310 -0.0680 -0.1343
17513W        W32644  11.726   8.005   0.355  0.1026 -0.5785  0.0216
17514W        W32645  18.075   8.882   5.134 -0.0206 -0.0340 -0.2673
17515W        W32646  15.157  17.684   2.884 -0.2936  0.1299 -0.0052
17516W        W32647  11.405   7.084   3.741 -0.0881  0.0794  0.0917
17517W        W32648   7.776  10.285  14.346  0.3491  0.0304 -0.6283
17518W        W32649   0.406   4.307  13.355  0.1074 -0.1960 -0.0790
17519W        W32650  12.170   5.194  13.956  0.4103  0.4660 -0.0988
17520W        W32651   9.411   3.319   1.732 -0.0824  0.1954 -0.1261
17521W        W32652   5.088  18.199   4.657  0.0493  0.0530 -0.0923
17522W        W32653   5.873   0.278   0.819 -0.0689  0.1015 -0.2883
17523W        W32654  11.334  13.722  12.906 -0.0024 -0.0708  0.1615
17524W        W32655  10.043   0.410   1.358 -0.0703 -0.0868 -0.0171
17525W        W32656   4.141   0.994   0.467  0.1626 -0.1219 -0.1907
17526W        W32657   5.268   5.298   0.649  0.3277 -0.1453  0.0520
17527W        W32658   5.995   3.439  11.067 -0.0699  0.0742 -0.0496
17528W        W32659  18.330  14.190   1.302  0.0684  0.0914 -0.0912
17529W        W32660   3.998   7.945  12.166 -0.0656 -0.0623  0.3507
17530W        W32661   4.488   6.348   2.836 -0.2364 -0.1093  0.0811
17531W        W32662   6.873   7.080   1.056 -0.2128  0.1679  0.2564
17532W        W32663  12.996  15.905  14.376 -0.0151 -0.0991  0.1775
17533W        W32664   5.588  11.229  10.866 -0.0367  0.1515 -0.1023
17534W        W32665  15.172   8.120   3.433  0.0732 -0.5672  0.0392
17535W        W32666  12.350  12.164  15.003 -0.2075  0.0818  0.0597
17536W        W32667   0.038   5.391   2.680  0.2275  0.0836  0.0492
17537W        W32668   0.810   9.075  12.614  0.1084 -0.0606  0.3148
17538W        W32669   5.243   2.663  11.915  0.0268  0.4137  0.1934
17539W        W32670   2.687   2.301   4.591 -0.2176 -0.2958 -0.0275
17540W        W32671  11.312  14.002  11.941 -0.1535  0.2283  0.1710
17541W        W32672   3.977   0.099  10.624 -0.2815 -0.2046  0.2423
17542W        W32673  15.841   6.183  14.088 -0.2310  0.0085  0.1311
17543W        W32674   2.920  12.369  13.018 -0.0252 -0.0350  0.1250
17544W        W32675  12.614  12.436   3.693 -0.0824  0.1085 -0.3116
17545W        W32676   9.351  10.579  11.180  0.5482  0.0267 -0.1448
17546W        W32677   3.871   6.970  13.083  0.0480  0.1380 -0.1975
17547W        W32678   7.683  10.672   4.857 -0.2063 -0.4040  0.0272
17548W        W32679   4.285   6.678   1.555  0.0664 -0.0747  0.1542
17549W        W32680   8.341  15.753   1.511  0.0776  0.1999 -0.3298
17550W        W32681   9.233  11.226  15.223 -0.0569 -0.2449 -0.1944
17551W        W32682   8.474   3.559  10.765  0.0178 -0.2142  0.0105
17552W        W32683   2.412   7.856   3.481  0.1879 -0.0043  0.0530
17553W        W32684   4.766   8.900   3.286 -0.1133  0.3356 -0.0702
17554W        W32685  14.175   6.885  11.477  0.0495 -0.0102  0.3813
17555W        W32686  11.646   5.259   3.444  0.0122  0.0509 -0.0232
17556W        W32687   2.538  13.634   0.594 -0.0520 -0.1772  0.2039
17557W        W32688  17.793  12.852   5.360  0.0582 -0.3809  0.0628
17558W        W32689  11.158   2.059  13.252 -0.3202  0.2754 -0.0529
17559W        W32690   3.522  16.409   4.754 -0.1513 -0.1162  0.0660
17560W        W32691   9.362  18.430  11.175 -0.6793 -0.0687  0.4554
17561W        W32692   5.171   7.890  12.616 -0.0110 -0.1154  0.1612
17562W        W32693  13.512  17.562  15.562 -0.1453 -0.0218  0.2371
17563W        W32694   9.162   2.425   3.303  0.2331  0.2394 -0.3377
17564W        W32695   6.300   2.761   1.875 -0.0680 -0.1540  0.0801
17565W        W32696  12.616   6.548   1.147 -0.0481  0.0680 -0.0005
17566W        W32697  16.952   0.507  12.064  0.2247  0.0971 -0.0473
17567W        W32698   7.351   7.967   0.652 -0.1091 -0.3890  0.2265
17568W        W32699   5.548   6.256  13.158 -0.1163 -0.1219  0.0038
17569W        W32700  14.251  17.376   1.187 -0.1141 -0.3654  0.2306
17570W        W32701  13.472  14.050   4.942  0.0919  0.2098  0.0789
17571W        W32702   5.788  11.164   2.328 -0.1432 -0.3115 -0.1350
17572W        W32703   3.693   9.425   4.172 -0.1571 -0.1967 -0.1432
17573W        W32704   6.494  12.287  11.417  0.1060 -0.2542  0.2486
17574W        W32705   3.372  17.971  11.173  0.1337 -0.2615  0.0281
17575W        W32706   1.604   5.469   0.658 -0.0920  0.1373  0.1652
17576W        W32707  12.379   6.065   2.486 -0.3217 -0.3270 -0.0675
17577W        W32708  10.357   9.628  11.134  0.3557 -0.0197 -0.2546
17578W        W32709  15.242   8.863   2.348  0.2184  0.1731  0.0784
17579W        W32710   6.513   7.862   1.146  0.0460  0.1611  0.0720
17580W        W32711  16.410  11.394  12.014  0.0133  0.3286  0.0277
17581W        W32712  11.220   4.529  13.812  0.1189  0.0884 -0.1786
17582W        W32713   2.944  10.329   3.524 -0.0320  0.1983 -0.0967
17583W        W32714  12.191   4.051   0.951 -0.1823 -0.1619 -0.2169
17584W        W32715  12.144  16.506   4.486  0.2289 -0.1317 -0.0759
17585W        W32716   9.138   5.892   3.808 -0.0970 -0.0686 -0.3207
17586W        W32717  13.386   9.511  11.988 -0.0561  0.3354  0.4334
17587W        W32718  12.150   4.065   3.930 -0.2486  0.1136  0.0012
17588W        W32719   5.864   7.163  15.065 -0.0246 -0.3239  0.2781
17589W        W32720  10.410  11.549   4.709  0.1694 -0.2879 -0.3978
17590W        W32721  10.819  11.784   3.377 -0.1769 -0.1563 -0.2947
17591W        W32722  17.109   5.768  14.307  0.1646  0.2691  0.3123
17592W        W32723   5.450  13.821  14.771  0.0345 -0.0748  0.1204
17593W        W32724  17.048  16.185  10.073  0.0940 -0.0782  0.0841
17594W        W32725   2.361  14.952  11.792 -0.0280  0.1755  0.1061
17595W        W32726   5.512   9.025  11.650  0.1089  0.1031 -0.2214
17596W        W32727   9.084   6.621   1.891 -0.0045  0.2653  0.1989
17597W        W32728  11.031  11.431   1.513 -0.2534 -0.0694  0.1941
17598W        W32729   8.270  18.512  15.484  0.1579  0.0818 -0.1304
17599W        W32730  12.495   3.236  13.761  0.2066 -0.0823 -0.1377
17600W        W32731  12.781  17.204  10.828 -0.0523  0.1081 -0.1242
17601W        W32732   4.259  18.299   3.680 -0.0998 -0.4439  0.1588
17602W        W32733  12.136  10.236   3.436 -0.1550 -0.0919  0.1294
17603W        W32734  12.465  16.698   1.449 -0.2947 -0.2416 -0.0550
17604W        W32735   7.379  14.442  10.865  0.1683  0.2960 -0.0177
17605W        W32736   1.480   6.861  12.868 -0.2274 -0.1195  0.1201
17606W        W32737  16.142  15.335   0.494  0.1226  0.0993  0.0295
17607W        W32738  15.754   0.829  13.486 -0.0208 -0.1845 -0.1703
17608W        W32739   7.242  17.996  11.289 -0.1178  0.0032 -0.3137
17609W        W32740   2.709  11.797   0.176 -0.0006  0.1433 -0.2883
17610W        W32741  12.526  17.633   0.330 -0.0084 -0.1096 -0.4851
17611W        W32742  13.872   7.190   2.078  0.3994 -0.0047 -0.2790
17612W        W32743   9.697  18.105  10.959 -0.1059 -0.1914 -0.2640
17613W        W32744  14.202  14.461  15.898  0.3562 -0.2356  0.4992
17614W        W32745   4.993   1.309   5.771  0.2374  0.0099  0.3564
17615W        W32746  10.654   8.907   4.084 -0.1124 -0.2068  0.1386
17616W        W32747  16.656  11.607  10.446  0.0041  0.0868  0.1711
17617W        W32748   6.082   8.786  12.318 -0.2976  0.0564 -0.5419
17618W        W32749  13.361   9.833   4.632  0.0578 -0.3644 -0.5510
17619W        W32750  10.186   2.986   3.710 -0.0225  0.1296 -0.1190
17620W        W32751  15.650   8.797  14.128  0.0073 -0.2674 -0.1025
17621W        W32752   0.725   1.751   3.657  0.1174  0.2303 -0.0156
17622W        W32753   4.652   8.010  15.806  0.4426 -0.0405  0.0812
17623W        W32754  11.822  15.320   4.779 -0.0550 -0.1298 -0.0214
17624W        W32755  10.949   5.009   4.982  0.3043 -0.1502 -0.3146
17625W        W32756   4.562   8.555   5.015  0.2914 -0.1689  0.3357
17626W        W32757  16.529   4.789   0.339 -0.1404 -0.1962  0.0351
17627W        W32758   5.969  14.623   4.956 -0.2213  0.0075 -0.1496
17628W        W32759   9.358   3.404  12.693 -0.3507  0.2393 -0.0213
17629W        W32760  13.171  17.836   5.953 -0.0404 -0.3048  0.0965
17630W        W32761   3.222  17.738  11.828  0.1618  0.0210 -0.0422
17631W        W32762  13.360  11.390   3.272  0.0719 -0.4151 -0.1582
17632W        W32763   3.560   2.610  12.995 -0.1467  0.2906  0.2270
17633W        W32764  14.536   2.234   1.587  0.1735  0.2995 -0.1085
17634W        W32765  10.761   7.154   2.161  0.0455 -0.1300  0.1573
17635W        W32766   8.767  12.837  13.755 -0.2744  0.1012 -0.3251
17636W        W32767   8.267   0.042   3.459 -0.1977  0.3175 -0.1708
17637W        W32768  11.831   4.743  13.448 -0.0847 -0.1462  0.2175
17638W        W32769   0.293  13.954   1.408  0.1421  0.0326  0.1678
17639W        W32770  13.945   9.069   1.789 -0.2186  0.3288  0.1370
17640W        W32771  11.978   3.964   3.384 -0.1041 -0.1697  0.0734
17641W        W32772   3.683   4.808  11.281 -0.0528  0.1546  0.1215
17642W        W32773  16.504  10.320  11.752  0.0739  0.3535 -0.1918
17643W        W32774   0.381  17.586   0.119 -0.0696  0.2001 -0.1591
17644W        W32775  10.323  14.873  14.138  0.0300 -0.1995  0.0785
17645W        W32776  18.037  17.757  15.679 -0.0148  0.1324 -0.3159
17646W        W32777   1.454  12.067  13.666  0.1011 -0.1798 -0.0150
17647W        W32778   7.467   1.131   6.006 -0.0515 -0.4872 -0.2191
17648W        W32779  12.768  18.238  15.559  0.2059  0.3311  0.0311
17649W        W32780  13.339   4.551  10.723  0.0325  0.1068  0.4206
17650W        W32781  11.463  15.965   0.192 -0.2208  0.1268  0.2095
17651W        W32782   3.486  14.662   1.579  0.1352  0.2497  0.2861
17652W        W32783   5.476   6.022   0.291 -0.0033  0.5721 -0.1375
17653W        W32784   9.841   6.522  12.898 -0.2455 -0.1410 -0.2050
17654W        W32785  11.420   1.645  14.285  0.2067 -0.0099  0.1711
17655W        W32786  17.724  13.486   1.545  0.0530  0.1010 -0.3195
17656W        W32787   6.917   4.964   1.614  0.2676  0.1944  0.0076
17657W        W32788   3.534   4.753   2.900  0.1461  0.2810  0.0705
17658W        W32789  10.546   6.942  13.693  0.1781 -0.0356 -0.0386
17659W        W32790  16.232  12.596   0.897 -0.0712 -0.3251 -0.0481
17660W        W32791   4.934   8.558  14.692  0.0264 -0.0888  0.0347
17661W        W32792   6.917  15.547   3.234 -0.0681  0.0256  0.2158
17662W        W32793  14.814  14.675  14.510  0.2572  0.1582  0.1391
17663W        W32794   9.983   2.092   5.390  0.1344 -0.0031 -0.0637
17664W        W32795   2.909  17.811  11.337 -0.2160 -0.1998 -0.0533
17665W        W32796   5.807   0.074  10.556  0.2618  0.0377 -0.5365
17666W        W32797  16.346  12.929  11.762  0.1640  0.6229 -0.0831
17667W        W32798  10.149   7.428  14.482  0.1997  0.1799 -0.2789
17668W        W32799   6.586  16.895   4.966  0.1624  0.3576 -0.1543
17669W        W32800  12.942   0.252   0.909  0.0333  0.2442 -0.0870
17670W        W32801   7.507  16.037   3.194  0.2212  0.0558 -0.0752
17671W        W32802  17.539  18.372  11.645  0.2403  0.0417  0.3311
17672W        W32803   6.363   6.275  10.834 -0.0090  0.0200 -0.4137
17673W        W32804   7.070  11.191  12.687 -0.0938 -0.0096  0.0358
17674W        W32805  16.094   9.564   6.387  0.0075  0.2724  0.1218
17675W        W32806   3.226  15.858  12.724  0.1296  0.0440 -0.4253
17676W        W32807   1.965  16.794   9.909  0.3294  0.1602  0.2540
17677W        W32808   0.280  17.669   3.849  0.1778  0.1886  0.4200
17678W        W32809   6.742   1.732   4.862  0.0702  0.1991  0.2756
17679W        W32810   5.324  16.829  14.413 -0.0407  0.3024 -0.0415
17680W        W32811   4.830  15.666   2.572 -0.3964  0.0413  0.2128
17681W        W32812   0.898  10.492  15.882  0.1668 -0.1588  0.0830
17682W        W32813   5.175   0.462  14.778  0.0344 -0.2757  0.1369
17683W        W32814  14.701   9.781  11.391 -0.0703 -0.2513  0.2010
17684W        W32815   9.054   2.940   5.072 -0.0475 -0.1820  0.1198
17685W        W32816   8.485  16.015   0.629 -0.1228 -0.2393  0.2132
17686W        W32817  16.759  12.055   3.123  0.1393 -0.0947 -0.2032
17687W        W32818  12.963   3.189   0.410  0.0250 -0.0898 -0.1209
17688W        W32819   9.684  13.120  11.567 -0.3176 -0.0857  0.1643
17689W        W32820  16.144   9.876  14.955  0.2938  0.2333  0.2151
17690W        W32821  12.652  12.599  10.673 -0.0100 -0.2270  0.3488
17691W        W32822   0.692   9.160   1.664  0.1195  0.0780  0.2246
17692W        W32823   6.172   1.532  13.096 -0.0091 -0.1715 -0.2282
17693W        W32824   9.361  17.361  15.570 -0.0988 -0.2528 -0.2646
17694W        W32825   9.215   1.848   2.770  0.1915  0.0123 -0.1932
17695W        W32826   9.655   7.251   3.866  0.2206 -0.2608 -0.0841
17696W        W32827  14.361   5.116   2.502 -0.1525 -0.1646 -0.2342
17697W        W32828  12.523   0.114   5.084 -0.1693  0.2491 -0.0859
17698W        W32829   2.487   9.199  11.942  0.3159  0.2993  0.0088
17699W        W32830  15.916   0.521   3.075 -0.1836  0.1140 -0.2517
17700W        W32831   4.351  17.706  12.810 -0.1617  0.1335  0.1212
17701W        W32832  10.713   9.881   3.986  0.1250  0.2737  0.0277
17702W        W32833   8.083   1.271   5.230  0.1603  0.0149 -0.1611
17703W        W32834   1.939  10.269   2.537  0.0175 -0.2829  0.2680
17704W        W32835  14.709   0.462  11.080  0.1839 -0.0469 -0.1373
17705W        W32836  16.322  12.304  12.250  0.1965 -0.2089 -0.1977
17706W        W32837  11.767   3.751  12.968 -0.4583  0.6438 -0.1404
17707W        W32838   3.082   2.389   3.677  0.3327 -0.1724 -0.0485
17708W        W32839   9.133  13.215   0.233 -0.0998 -0.0693 -0.1408
17709W        W32840  15.042   1.659   2.229  0.3346 -0.0093  0.1117
17710W        W32841   9.042   8.797   3.421 -0.1595  0.2101  0.2636
17711W        W32842  17.319   3.189  15.839  0.0083 -0.1917  0.2165
17712W        W32843   2.587  10.778  12.001 -0.4570 -0.1579 -0.0868
17713W        W32844  10.413   6.352  12.387  0.0013 -0.0372  0.0248
17714W        W32845  16.458   6.221  12.829  0.0833  0.1874  0.3783
17715W        W32846   9.280   5.391  15.793 -0.2275 -0.0899  0.1388
17716W        W32847   0.405  16.847  10.920 -0.0043 -0.0346  0.0994
17717W        W32848  10.335   1.703   0.699  0.2830 -0.1094 -0.1842
17718W        W32849  13.769  12.796   2.433 -0.0113 -0.3930  0.0870
17719W        W32850  11.054   8.810  14.692  0.0892  0.0500 -0.0565
17720W        W32851   3.115  15.733  11.641  0.0001 -0.1964  0.2798
17721W        W32852   9.344   1.181   1.575 -0.0190 -0.1652 -0.0605
17722W        W32853   4.261   9.922  13.467  0.3174 -0.1316  0.0789
17723W        W32854   9.858   6.586  14.323  0.1692  0.1185 -0.0951
17724W        W32855   8.605  14.799   1.482  0.1113 -0.3138 -0.0529
17725W        W32856   0.572   9.445   3.344  0.1981 -0.0630 -0.1910
17726W        W32857  12.335  15.767  14.969 -0.2309 -0.1504  0.0286
17727W        W32858   6.015   7.640  14.835  0.2680  0.0923 -0.1225
17728W        W32859   3.621  12.803   2.095 -0.1574 -0.0102  0.0198
17729W        W32860  12.540   9.914  12.659  0.3712 -0.0708  0.1850
17730W        W32861  11.195  16.676  13.047 -0.0347  0.0493  0.1323
17731W        W32862   9.758  15.313  12.879  0.1227  0.0581  0.0231
17732W        W32863   4.746   5.201   5.749 -0.0356 -0.0375 -0.2529
17733W        W32864   0.694   6.449  14.001 -0.3133 -0.0779 -0.1598
17734W        W32865  13.014  16.957  11.805 -0.1760 -0.3907  0.1849
17735W        W32866  17.142   7.114  13.156 -0.0723 -0.3751 -0.1800
17736W        W32867  17.004  15.088  15.013 -0.2072 -0.1441  0.0748
17737W        W32868  10.444  12.587  14.038  0.2572 -0.0725 -0.2236
17738W        W32869  12.617   0.568   2.731 -0.0067  0.0211 -0.1042
17739W        W32870  16.023  13.053  14.632  0.0784 -0.1975 -0.1654
17740W        W32871   0.913  15.938  10.880  0.1535 -0.0254  0.0282
17741W        W32872  17.215   5.515  14.942 -0.1863 -0.1645  0.1780
17742W        W32873  12.859  12.427  10.273 -0.3403  0.2591  0.0682
17743W        W32874  15.587  13.957   1.813  0.0627  0.4258  0.1134
17744W        W32875   3.400   6.886  15.025  0.0600 -0.1730 -0.1153
17745W        W32876  17.565  12.724   0.271 -0.2383  0.5229 -0.1611
17746W        W32877  16.866   7.551  12.928 -0.2206 -0.0278 -0.0798
17747W        W32878  10.497   1.135  12.778  0.1219  0.0366  0.1678
17748W        W32879   8.291  11.221   2.180  0.2685 -0.1481  0.0614
17749W        W32880   0.825  17.201  13.521  0.0779  0.2286  0.1081
17750W        W32881   4.137   0.275   2.844 -0.1233  0.1337 -0.0501
17751W        W32882   4.161   0.582   0.054 -0.0656 -0.0232  0.3729
17752W        W32883   6.494   8.704   4.965 -0.2028  0.1015 -0.1990
17753W        W32884  11.173  17.745  13.279  0.0992  0.1406  0.2029
17754W        W32885   4.867   3.614  15.439 -0.1311  0.0345 -0.3928
17755W        W32886   5.456   5.186   3.376  0.0441 -0.0738  0.1172
17756W        W32887   7.569   6.605  12.898  0.1697 -0.1415  0.2338
17757W        W32888  16.465  14.470   0.843 -0.1460 -0.1244 -0.2116
17758W        W32889  15.692  17.693  13.227 -0.0524 -0.2681  0.0737
17759W        W32890   1.644   2.930   3.626  0.0610  0.1972 -0.0096
17760W        W32891   2.559   9.292  15.602 -0.1994  0.0311 -0.1162
17761W        W32892  17.624   2.085   2.876 -0.2232 -0.0699  0.3300
17762W        W32893   1.314   2.858   4.970  0.0474  0.0950  0.0124
17763W        W32894  11.700   1.856  11.710  0.0881  0.1322 -0.0411
17764W        W32895   6.525   3.859   2.696  0.0321 -0.1430  0.0288
17765W        W32896   0.223  16.790  12.187  0.0684 -0.5739 -0.0527
17766W        W32897   8.774   6.066  11.825 -0.3526 -0.0174 -0.0703
17767W        W32898  12.666   7.951   3.627 -0.0488 -0.0498 -0.0258
17768W        W32899   2.929  17.603   4.425  0.1317  0.1371 -0.2936
17769W        W32900   0.788  10.076  12.597 -0.3000 -0.1270  0.2102
17770W        W32901   6.510  14.213  14.126 -0.1992 -0.2476 -0.2417
17771W        W32902   3.931   6.574   3.847  0.0289 -0.1794 -0.0210
17772W        W32903   3.842   8.109  15.228  0.3672  0.1592 -0.0275
17773W        W32904  10.977   9.884   1.744 -0.0052 -0.2345  0.4195
17774W        W32905  14.159   7.554  10.840  0.0061  0.0464 -0.2303
17775W        W32906  13.550  14.960  14.059  0.1526 -0.2590 -0.1517
17776W        W32907  12.710  11.378  10.665 -0.1469  0.1372  0.1293
17777W        W32908  16.546  14.956   6.599 -0.3870  0.0525 -0.1203
17778W        W32909  15.578   6.564   3.866  0.0408  0.0061  0.0433
17779W        W32910   5.700   9.752  12.841  0.2617  0.1285 -0.2071
17780W        W32911  12.862   4.648   1.184 -0.0070 -0.3078 -0.0300
17781W        W32912  13.786   8.944   2.377 -0.0599  0.0679  0.0347
17782W        W32913   7.103  16.715   2.102 -0.2192 -0.1389  0.0754
17783W        W32914   4.684  14.297  12.488  0.0116 -0.0327 -0.0340
17784W        W32915   9.557  11.315   0.799 -0.1613 -0.0600 -0.3424
17785W        W32916   4.541   5.540  13.266 -0.3613 -0.0276  0.1359
17786W        W32917   1.624   7.717  12.837 -0.2878 -0.2190  0.2417
17787W        W32918   6.331  14.672   2.638  0.0964  0.0820 -0.0678
17788W        W32919  17.118  12.953   4.468 -0.1102  0.3435 -0.0799
17789W        W32920  16.507  14.972   3.325 -0.0067 -0.0087 -0.3932
17790W        W32921   5.054   1.568  11.855  0.1992 -0.1337  0.2248
17791W        W32922   6.502   6.144  15.423  0.1952 -0.0520 -0.0600
17792W        W32923  17.634  14.644  11.788  0.1155 -0.1546 -0.1942
17793W        W32924   8.659  18.126   2.648 -0.0573  0.0225 -0.0811
17794W        W32925  18.393   2.002  10.860 -0.2353 -0.0690  0.0247
17795W        W32926  17.785  11.842  12.560 -0.1792  0.2292  0.1204
17796W        W32927  17.518   0.058   9.828 -0.0882  0.1057  0.1543
17797W        W32928   7.952   1.440   1.519 -0.0320  0.2053  0.1365
17798W        W32929   3.618   2.190  13.768  0.0787  0.0407  0.1510
17799W        W32930  14.712  14.893  10.834 -0.2154 -0.0264 -0.0684
17800W        W32931   3.114  10.515  14.425  0.1077 -0.1547 -0.1224
17801W        W32932   0.074  11.735  11.731  0.1277 -0.0854 -0.1146
17802W        W32933  17.477  10.795  12.774  0.1640  0.0942 -0.1057
17803W        W32934   0.623   9.580  13.301 -0.3909 -0.0074  0.0374
17804W        W32935   2.691  11.777   2.943  0.1210 -0.0806 -0.1849
17805W        W32936   4.475   0.518   5.941 -0.1920  0.2275  0.2827
17806W        W32937  13.509   1.996   4.786  0.1283  0.1533 -0.0331
17807W        W32938  12.758   9.685  14.904  0.0612 -0.1280  0.1750
17808W        W32939   3.782   3.519   1.005 -0.2177 -0.0225  0.1038
17809W        W32940   9.888  10.794  11.475 -0.3559  0.0382 -0.0596
17810W        W32941  14.453  17.317   3.747 -0.1900  0.0711  0.2324
17811W        W32942  15.600  17.369  15.363 -0.1729 -0.1382  0.1161
17812W        W32943  11.253   9.721  11.505  0.1735 -0.0381  0.0006
17813W        W32944   9.589   1.458   2.452  0.1818  0.0437  0.0365
17814W        W32945   2.740  14.585  11.180  0.2900  0.1763  0.1470
17815W        W32946  13.542   6.173   5.364 -0.2394  0.0597  0.1519
17816W        W32947   5.923   0.133  11.681 -0.0662 -0.2426 -0.0226
17817W        W32948  16.889   4.235  12.043  0.1711  0.1078 -0.0788
17818W        W32949   1.145  10.371   1.445  0.1067 -0.1893 -0.1695
17819W        W32950  15.275  10.638  12.231  0.0770 -0.1725 -0.0584
17820W        W32951   3.884   6.590  14.834  0.1842 -0.0277  0.2506
17821W        W32952   7.944   9.114  11.640  0.0364 -0.1106  0.3329
17822W        W32953   6.441   2.623   4.733  0.1237 -0.0260 -0.2796
17823W        W32954  14.761   2.794  11.345 -0.2286  0.1633 -0.0589
17824W        W32955   3.604  15.151  15.426  0.3391  0.0556  0.0441
17825W        W32956   8.746   8.352  14.172  0.0449  0.0475 -0.0313
17826W        W32957   2.374   8.639   4.553 -0.2544 -0.1804 -0.1334
17827W        W32958   2.178   4.072   4.188  0.0202 -0.1660 -0.2875
17828W        W32959   1.383   6.000  14.618  0.0422 -0.0864  0.0531
17829W        W32960  16.587   1.081   4.308  0.0102  0.1608 -0.0360
17830W        W32961  13.753  14.124  13.737 -0.1240 -0.0631  0.3913
17831W        W32962   1.140   1.691   0.502 -0.0416  0.0086  0.3337
17832W        W32963  16.970   9.239   3.877  0.1135  0.1224 -0.0860
17833W        W32964  14.481  15.048   2.893 -0.1406  0.0381  0.0585
17834W        W32965   1.886   9.352  13.064  0.1992 -0.4687 -0.2938
17835W        W32966  16.361  15.136  13.947 -0.0822  0.0728 -0.0337
17836W        W32967   1.516   1.355  14.969 -0.1835  0.3575  0.1280
17837W        W32968  18.000  16.304   6.179 -0.2670  0.0264  0.1881
17838W        W32969  14.834  17.576  15.373 -0.0026 -0.0607 -0.4225
17839W        W32970   5.253  10.807   4.620  0.1606  0.2470  0.1076
17840W        W32971   0.460   9.093   5.230  0.1629 -0.1174 -0.0967
17841W        W32972   0.842  12.126   3.583  0.2468 -0.0543  0.1000
17842W        W32973  11.274   3.944   0.071 -0.1842 -0.1084 -0.1665
17843W        W32974  17.216   3.516   3.435 -0.0778  0.0540 -0.0879
17844W        W32975  13.805   2.092   6.152  0.2004  0.2812 -0.1796
17845W        W32976   5.990   8.060  13.981  0.1241  0.1139 -0.0669
17846W        W32977   3.419   7.531   1.214 -0.2087 -0.1933  0.0152
17847W        W32978   5.304   2.626   2.968  0.0909 -0.0425  0.0706
17848W        W32979  18.170  17.346  12.529 -0.2659  0.1776 -0.2471
17849W        W32980   4.903  13.245   3.099 -0.1061 -0.2095 -0.2750
17850W        W32981  11.768   9.697  11.558 -0.1142 -0.4588 -0.4368
17851W        W32982   2.141  12.373  15.051  0.1477  0.0746  0.2508
17852W        W32983   1.161  10.887  13.488 -0.0431 -0.3509  0.3262
17853W        W32984  18.129  16.859   0.116  0.1258  0.3685 -0.2213
17854W        W32985  15.807  10.477  12.478  0.0410  0.1396  0.2494
17855W        W32986  14.046   1.191  10.954  0.1734  0.0919  0.3533
17856W        W32987   6.885  14.561  14.108  0.1838  0.1157  0.0453
17857W        W32988   1.227   4.233   4.226  0.2068  0.0395 -0.1119
17858W        W32989   1.916  18.350  14.701  0.2184 -0.0991  0.1440
17859W        W32990  12.113   1.191   3.782 -0.1055  0.1213 -0.1362
17860W        W32991   5.329   8.402   1.476 -0.0052 -0.0230  0.1714
17861W        W32992   1.913   7.588  14.495 -0.0330  0.2325 -0.3092
17862W        W32993  15.872  15.393  13.649 -0.2490  0.0545 -0.2775
17863W        W32994   9.269  17.423  13.489 -0.0442 -0.0812  0.1515
17864W        W32995   6.598   7.347  10.970 -0.1405  0.0762  0.0576
17865W        W32996  18.316  15.120   5.212  0.1247  0.0052  0.1091
17866W        W32997  10.853  14.722  15.877 -0.0858  0.0586  0.1801
17867W        W32998   4.737  16.494  13.734  0.0761  0.2957 -0.1707
17868W        W32999  14.137   9.774   0.934 -0.0511  0.2651  0.1939
17869W        W33000  15.472  13.663   2.796 -0.0922  0.0075 -0.1759
17870W        W33001   7.175  18.070  12.386  0.0939 -0.2312  0.0043
17871W        W33002   9.940   6.849  12.041 -0.1014  0.1494  0.0118
17872W        W33003  10.525   1.341   2.919 -0.4169 -0.3074  0.1469
17873W        W33004  10.425  14.795   2.185 -0.0335  0.1320  0.0657
17874W        W33005  16.243   6.797  12.097 -0.1062 -0.2170  0.2934
17875W        W33006   3.729   9.770   0.197  0.1751  0.1857  0.1075
17876W        W33007  13.547   6.036   3.195 -0.3520 -0.0383  0.0845
17877W        W33008   2.707   5.399   0.932 -0.2842  0.1386  0.0487
17878W        W33009   9.359  17.982   0.401  0.2170  0.0533  0.0255
17879W        W33010   1.964  11.863  12.404  0.3169 -0.1720  0.1427
17880W        W33011  13.862  10.644   0.358  0.0021 -0.1281 -0.0581
17881W        W33012   6.867  13.139  13.280 -0.2174 -0.1440  0.4375
17882W        W33013  15.688  11.543   1.965 -0.0988 -0.3102  0.3111
17883W        W33014  12.040   3.186  10.913 -0.2171  0.0535  0.1809
17884W        W33015   5.639   7.477  14.065 -0.2070 -0.1787 -0.2487
17885W        W33016   3.732  12.879  13.398 -0.3176 -0.0617 -0.2833
17886W        W33017   4.000   5.154  11.963 -0.1649 -0.2487 -0.3363
17887W        W33018  14.933  15.881  10.777 -0.2057  0.1929  0.2095
17888W        W33019  10.833  11.960  10.921 -0.4093  0.1267  0.3984
17889W        W33020  17.262   5.237   3.554 -0.3869  0.3168 -0.1499
17890W        W33021  15.399   6.089   3.895  0.0623  0.0896 -0.0763
17891W        W33022  16.085   1.508   3.240 -0.1603  0.2759 -0.0670
17892W        W33023  18.287   1.102   1.530  0.3136 -0.0612  0.0661
17893W        W33024   8.357   0.117  11.399 -0.2669 -0.1387 -0.1406
17894W        W33025   7.871   0.382  13.492 -0.2263  0.0764 -0.0493
17895W        W33026   4.207   1.476  12.797 -0.1672 -0.2406 -0.0075
17896W        W33027   2.663  17.889  11.776 -0.2707 -0.1394  0.0366
17897W        W33028   9.062  14.964   1.697 -0.2046  0.2119  0.1272
17898W        W33029   5.299   9.085   4.209  0.0916  0.1690 -0.5686
17899W        W33030  12.628  14.203  11.542  0.3185 -0.0788 -0.2409
17900W        W33031   8.997  18.117  15.253  0.0639  0.0277  0.0540
17901W        W33032   2.646   8.378   1.998 -0.0809 -0.0430  0.0091
17902W        W33033  15.088  12.279  14.714 -0.1155  0.2885  0.2924
17903W        W33034  13.698   0.884   0.076 -0.2065  0.0158  0.0782
17904W        W33035  13.297  10.296  15.697 -0.2059 -0.1104  0.2009
17905W        W33036  14.010   7.985   2.960  0.0292  0.0495 -0.0980
17906W        W33037   8.450   8.682  10.904 -0.2271  0.0723 -0.1632
17907W        W33038  12.231  11.546  15.892  0.0954  0.2177  0.3667
17908W        W33039  17.109   4.201   0.746  0.2281  0.0500 -0.1061
17909W        W33040  12.813  15.060   3.714  0.0937  0.2300 -0.0701
17910W        W33041   6.788  17.819  11.267  0.0028 -0.0609 -0.4445
17911W        W33042  12.696   0.360  15.577  0.0409  0.0454  0.4291
17912W        W33043   1.935   5.742  13.822 -0.5936  0.0243 -0.1707
17913W        W33044   3.755  10.443   3.779 -0.1039 -0.0676 -0.0229
17914W        W33045   9.648  14.697   5.176 -0.0613  0.1294  0.1889
17915W        W33046   1.276  11.296  13.234 -0.2121  0.0203 -0.1388
17916W        W33047  18.003  12.269   6.209  0.1636  0.0362  0.0732
17917W        W33048  15.516  15.816   3.836 -0.3136 -0.1996  0.2886
17918W        W33049  15.733   7.106  15.739  0.1704  0.0947  0.1305
17919W        W33050  11.762   8.216  15.099  0.0352 -0.2531 -0.1361
17920W        W33051   3.956   6.811  11.316 -0.1000  0.0998 -0.1838
17921W        W33052  16.923   9.039   2.938 -0.0822 -0.3978 -0.2091
17922W        W33053  16.206   1.980  13.227 -0.4024  0.3142  0.0197
17923W        W33054   5.989   3.352   0.800 -0.0709  0.1875  0.0089
17924W        W33055   0.813   8.604  11.605 -0.0702  0.0261 -0.0357
17925W        W33056  18.391   8.480  15.052 -0.2039  0.0925 -0.2892
17926W        W33057   6.038   4.295  13.702 -0.2103 -0.2781  0.5264
17927W        W33058  16.198   2.740   1.488  0.0627  0.0779 -0.1145
17928W        W33059  11.114   2.780   4.806 -0.1510 -0.2351  0.0001
17929W        W33060  10.957   9.692   0.597 -0.2230  0.2848  0.0581
17930W        W33061   4.392  11.050   5.073  0.0062 -0.2041 -0.0205
17931W        W33062   6.852   5.194   3.364  0.0249  0.0217  0.4636
17932W        W33063  12.641   8.077   0.402  0.0604 -0.2914  0.1040
17933W        W33064  13.747  14.377  13.246  0.1263  0.4081 -0.1260
17934W        W33065   9.474  13.118  14.768 -0.1575 -0.4047 -0.3146
17935W        W33066   4.333  12.569   2.521  0.0628 -0.0568 -0.2055
17936W        W33067  13.896   4.743   2.624  0.1760 -0.3264  0.0453
17937W        W33068   6.566  13.625   2.557 -0.2161  0.0651 -0.3068
17938W        W33069   6.256  18.169  12.605 -0.3782 -0.0959 -0.1040
17939W        W33070   8.359   8.435   1.972 -0.1904  0.0992 -0.1394
17940W        W33071   6.002   8.409  13.641  0.3176 -0.1187 -0.3416
17941W        W33072   4.972  13.029   4.687 -0.2953  0.1001 -0.1095
17942W        W33073  16.308   5.439   1.038  0.0819  0.0439  0.0963
17943W        W33074   0.857  13.920   3.029  0.2057 -0.1828 -0.0795
17944W        W33075   4.917  15.907   0.840 -0.1157 -0.3808 -0.1483
17945W        W33076  11.194  14.799   3.647 -0.0510 -0.1914 -0.0919
17946W        W33077   2.609  18.283  14.944 -0.1165  0.0569  0.2583
17947W        W33078  17.993   7.750   2.439 -0.1668  0.0643  0.2617
17948W        W33079  14.340   4.628   2.824  0.0382  0.0437  0.0714
17949W        W33080   4.235   8.314  10.704  0.4253  0.1801  0.2545
17950W        W33081  10.945   3.267   0.601 -0.1100  0.0852 -0.2271
17951W        W33082  12.134   4.792  10.946 -0.2581  0.0997  0.1706
17952W        W33083  12.562   3.177   2.607  0.2348 -0.1515  0.3601
17953W        W33084  15.421   8.643   1.925 -0.0100 -0.1323  0.3422
17954W        W33085   6.557  18.052  11.710  0.2606 -0.0988  0.2798
17955W        W33086   5.681   6.621   5.872  0.1458 -0.0813 -0.0795
17956W        W33087   5.309   2.734   1.474 -0.0477 -0.0172 -0.0639
17957W        W33088   4.435   9.101  15.347  0.0795  0.2480  0.2384
17958W        W33089  11.844  12.177  10.762 -0.1952 -0.0928 -0.0729
17959W        W33090   5.575  10.758  12.941 -0.5363  0.1242  0.1127
17960W        W33091   0.502   0.111  13.005  0.0918 -0.0947  0.0481
17961W        W33092  10.424  15.532  11.768 -0.3335  0.2013  0.0706
17962W        W33093   4.884   6.013   9.668 -0.1126 -0.1535  0.1394
17963W        W33094   9.754   7.030  13.819 -0.1771 -0.2060  0.0579
17964W        W33095  12.968  17.353   3.395  0.2290 -0.1475  0.0057
17965W        W33096  12.909   8.539   0.445 -0.1174 -0.1601  0.1579
17966W        W33097   7.615  11.053  10.586  0.0173 -0.1199 -0.1664
17967W        W33098  13.462   8.824  11.363 -0.2808  0.0434  0.2022
17968W        W33099   1.207   2.887   3.248 -0.0763 -0.1898  0.2737
17969W        W33100   0.908   5.936   1.800  0.2145  0.2071  0.1205
17970W        W33101  12.257  10.871   4.512 -0.3678  0.0874 -0.0630
17971W        W33102  13.346   9.319   0.726 -0.0110  0.1413  0.1194
17972W        W33103   7.194  12.698   0.568  0.0122  0.1941  0.0449
17973W        W33104   1.538  10.985   3.173 -0.3059 -0.1358  0.3994
17974W        W33105  12.007   7.337  13.797  0.3028  0.1930  0.3439
17975W        W33106   5.753  17.732   4.888  0.0380 -0.2653 -0.1737
17976W        W33107  12.810   3.229   3.033  0.2086  0.0667 -0.1501
17977W        W33108  13.080   8.765  11.688 -0.2972 -0.2188  0.0539
17978W        W33109  13.128   6.285   1.249 -0.0429 -0.1845  0.0162
17979W        W33110  17.995   1.519   4.258  0.1836  0.1075 -0.3006
17980W        W33111   4.809   4.137   4.107  0.1187 -0.3121 -0.0778
17981W        W33112  10.657   8.082   2.953 -0.1388  0.1039  0.0621
17982W        W33113   4.941   9.652   1.118 -0.1381 -0.2709 -0.3820
17983W        W33114   1.215   7.116   3.726  0.3607  0.2226  0.0720
17984W        W33115  10.052  10.463   1.783 -0.2789  0.0093 -0.2941
17985W        W33116  11.100   5.236   4.457  0.0348  0.4127  0.2068
17986W        W33117   5.107  14.351   4.449  0.1101  0.2324 -0.0089
17987W        W33118  16.809   3.326  12.381 -0.1236  0.0291 -0.5986
17988W        W33119  11.426  10.344  12.967  0.0013  0.1623 -0.0908
17989W        W33120  15.729   2.325  13.342  0.0081 -0.1314 -0.0622
17990W        W33121  17.435   3.921  11.247 -0.0812  0.2682  0.0541
17991W        W33122  14.931   6.653   1.619 -0.1819 -0.1305 -0.0702
17992W        W33123  11.259  13.502   2.921 -0.0912 -0.2898 -0.0387
17993W        W33124  10.347   3.873  11.079  0.1978  0.0217 -0.0484
17994W        W33125  10.874  14.099  15.741  0.0885 -0.1198  0.1766
17995W        W33126  11.089   1.449   9.992 -0.1260  0.1881  0.0000
17996W        W33127  16.489   8.967   3.229  0.1684  0.0020  0.0183
17997W        W33128   6.780  12.978   0.344  0.0834  0.1526  0.0972
17998W        W33129  12.540   4.393   0.846 -0.1920  0.1633 -0.0102
17999W        W33130   1.033   4.367  14.641 -0.0243 -0.0832  0.0642
18000W        W33131  13.386   2.866   2.922  0.0162 -0.0752  0.1894
18001W        W33132   8.008  16.397   4.326 -0.2827  0.1734 -0.0238
18002W        W33133   0.737   7.718  13.084  0.2535  0.0130  0.0972
18003W        W33134  14.569   6.706  14.686 -0.1371  0.2494 -0.2741
18004W        W33135   7.221  16.366   1.327  0.1355 -0.2313 -0.0524
18005W        W33136   5.333  17.056  13.516 -0.1869 -0.1116 -0.0032
18006W        W33137   2.211   6.193   0.781  0.0334 -0.0857 -0.0659
18007W        W33138   7.502   6.095   0.344  0.1952  0.0290  0.2288
18008W        W33139   5.028   8.670   2.874  0.1024  0.1701  0.2358
18009W        W33140   7.813   2.669   1.376 -0.3193  0.1976 -0.2118
18010W        W33141  15.342  18.258   3.036 -0.0668  0.1662 -0.1719
18011W        W33142   1.580  13.231   4.243 -0.0496  0.1411 -0.3907
18012W        W33143  15.480   7.736  10.608  0.0255  0.1962 -0.1361
18013W        W33144  14.721   0.650   1.694  0.0906  0.3237 -0.0156
18014W        W33145  12.170  12.276   0.756 -0.6462 -0.0100 -0.1054
18015W        W33146  11.357   0.082   1.786 -0.0010 -0.1651  0.0614
18016W        W33147   5.075   6.428   6.015  0.1508  0.0404 -0.1498
18017W        W33148  14.533  13.212  15.890 -0.0616  0.1990  0.0821
18018W        W33149   9.967  10.034  12.024  0.0042  0.1188 -0.0933
18019W        W33150  12.540   6.355   2.882  0.1930 -0.0840 -0.0956
18020W        W33151  10.724  11.761  11.377  0.2728 -0.0070  0.2763
18021W        W33152   4.941  11.226   3.650 -0.0644 -0.0553 -0.2497
18022W        W33153   0.120   2.392   3.647  0.1483 -0.1869  0.1524
18023W        W33154   2.894   7.033   2.037 -0.1003 -0.1965  0.0465
18024W        W33155  12.902   8.472   0.980  0.2325 -0.5684 -0.0789
18025W        W33156   1.718   4.298  10.865 -0.0917  0.1466 -0.2703
18026W        W33157   2.474   8.597  14.263 -0.1926 -0.1205  0.0745
18027W        W33158   2.716   3.928  11.006  0.4209  0.1901 -0.3356
18028W        W33159   0.402   3.408  13.173  0.1493  0.0355  0.0027
18029W        W33160  13.412  10.312   2.506 -0.1253 -0.2141 -0.0720
18030W        W33161   1.170   8.944  11.749 -0.0903 -0.0665 -0.0258
18031W        W33162   9.504  15.226   0.086 -0.2365 -0.4883 -0.1415
18032W        W33163   4.031  12.396   3.497  0.2025  0.2393  0.2022
18033W        W33164  11.568   7.326   4.517  0.0836 -0.2071 -0.1320
18034W        W33165   9.839   1.607  10.684 -0.6326 -0.1440 -0.1631
18035W        W33166   7.351   3.627   1.746  0.0121 -0.0216 -0.1484
18036W        W33167   4.346  13.941  15.601 -0.0461  0.1301 -0.1736
18037W        W33168   6.961   9.783  12.043 -0.1632 -0.3720  0.2600
18038W        W33169   9.927  11.842  15.245 -0.0320 -0.0769  0.2187
18039W        W33170  11.223   2.258   5.221  0.2771 -0.0518  0.1506
18040W        W33171   5.017  10.330  15.277  0.0046 -0.0471  0.0158
18041W        W33172   0.461  17.371  11.016 -0.2210  0.0780  0.0862
18042W        W33173   1.741  10.767   5.609 -0.0442 -0.1348 -0.3923
18043W        W33174   6.451  12.718  14.455  0.0271  0.0495 -0.0364
18044W        W33175   2.264  10.509  12.317 -0.1928  0.1056 -0.1906
18045W        W33176   6.811  17.635  14.462  0.1331  0.0460  0.3366
18046W        W33177   9.476   8.776  13.690 -0.1050 -0.1750  0.0568
18047W        W33178   7.386  11.497   5.440  0.0467 -0.0384 -0.1245
18048W        W33179   0.259  13.527   4.623 -0.2366  0.0425  0.2598
18049W        W33180  12.369  11.027  14.381 -0.2901 -0.0554 -0.2190
18050W        W33181  12.733   5.227  15.184  0.1102  0.3210  0.0096
18051W        W33182  10.454  12.907   4.177  0.2617 -0.2819  0.0543
18052W        W33183   0.062   2.864   9.939  0.0119  0.1492  0.1967
18053W        W33184   3.004   0.969   5.986  0.0804 -0.0459 -0.3616
18054W        W33185  14.292  18.330  13.234 -0.2587  0.3936 -0.1329
18055W        W33186   3.267  13.239  11.365 -0.0258  0.3175  0.0446
18056W        W33187  17.086   9.359   5.461  0.0629  0.2454 -0.0614
18057W        W33188  16.018   3.919  11.298 -0.0881  0.1107  0.1232
18058W        W33189  15.425   9.448   0.808  0.3503 -0.4158 -0.2133
18059W        W33190  11.282   6.283   1.632 -0.1535 -0.1131  0.0197
18060W        W33191   6.265   1.067   3.923 -0.2313 -0.2617  0.0763
18061W        W33192  14.402   8.225  15.160  0.1017 -0.2334  0.0877
18062W        W33193   0.843  11.556  13.109 -0.1206 -0.0382 -0.1613
18063W        W33194  14.555   5.434   5.031  0.0350  0.1167 -0.0221
18064W        W33195  15.565   3.178  11.666 -0.0793 -0.3459 -0.0835
18065W        W33196  16.606  14.912   1.225  0.0435  0.5778 -0.1653
18066W        W33197   4.139   5.999  11.107  0.0346 -0.1972  0.1787
18067W        W33198  18.437   8.437   1.373  0.0280  0.3897 -0.0821
18068W        W33199   1.998  17.937  13.395  0.1092  0.0803  0.1281
18069W        W33200   1.820   0.237   5.940  0.0801  0.0351  0.0852
18070W        W33201   6.797   5.876  12.060  0.0456  0.2093  0.1251
18071W        W33202  17.960   0.823   0.768 -0.0284  0.4800  0.1341
18072W        W33203   3.735  11.747  13.063 -0.1013 -0.0865 -0.0708
18073W        W33204   7.670   9.122   4.741  0.0878 -0.0083 -0.2343
18074W        W33205  13.988  16.035   4.673 -0.0983 -0.1733 -0.0295
18075W        W33206   5.736   1.570  11.216  0.0798 -0.0913  0.1187
18076W        W33207  18.298   2.350   0.532 -0.1697 -0.1369 -0.2847
18077W        W33208  14.934   3.538  13.200  0.0125 -0.1424  0.1833
18078W        W33209   7.984   9.433  14.496  0.2382 -0.2054  0.0404
18079W        W33210   5.185  13.876  12.529  0.1023  0.1962  0.0652
18080W        W33211   2.952   8.633   2.342  0.1277 -0.1463  0.2120
18081W        W33212   0.744  16.030   0.786 -0.0715  0.1975 -0.0559
18082W        W33213   6.890  16.737  13.406 -0.0698  0.2859  0.3166
18083W        W33214   8.346   0.977   5.598  0.1834 -0.0126 -0.1626
18084W        W33215  10.263   6.194   5.765  0.1256 -0.2707 -0.1133
18085W        W33216  14.566   2.516   5.135  0.0396 -0.1560 -0.1220
18086W        W33217   2.456  12.961   2.316  0.0257 -0.4068  0.3643
18087W        W33218   8.058  16.868  13.122  0.2792 -0.0294 -0.0113
18088W        W33219  14.300   1.188   3.985  0.0820  0.1875 -0.0595
18089W        W33220   7.120   3.489  11.869 -0.3293  0.1167 -0.0414
18090W        W33221  17.031  12.217  11.805 -0.0086 -0.2260 -0.1032
18091W        W33222   1.731   6.661   5.127 -0.2795 -0.0109 -0.2731
18092W        W33223   7.369   0.014  12.258  0.0532 -0.0277 -0.0259
18093W        W33224   9.490  15.533   1.821 -0.0654 -0.1669  0.0981
18094W        W33225  17.016  17.853   0.180 -0.3092  0.0278 -0.3906
18095W        W33226  10.612  17.759   0.722  0.0247 -0.2060  0.0268
18096W        W33227  14.694  18.028   4.810 -0.0778  0.0356  0.2990
18097W        W33228  14.291   3.958  15.456  0.1038 -0.5254  0.2341
18098W        W33229   8.745  18.314  15.776 -0.1381 -0.0847 -0.1097
18099W        W33230  14.337   9.422   4.858  0.2711 -0.0973  0.1115
18100W        W33231   6.524   7.585   0.081  0.1186  0.1187 -0.2398
18101W        W33232   7.825   0.723  10.697 -0.3872 -0.1088  0.0699
18102W        W33233   5.469  12.928   3.004 -0.1256 -0.2278 -0.3225
18103W        W33234   9.624   4.966  14.851 -0.0111  0.0056  0.0057
18104W        W33235   6.326   3.989   3.990 -0.1261  0.0567  0.4250
18105W        W33236  13.484   2.186  11.271 -0.0330 -0.1391 -0.2200
18106W        W33237   8.918  11.960   0.427  0.0872 -0.0271 -0.1353
18107W        W33238  12.967  17.846   3.193  0.1883  0.0439 -0.2071
18108W        W33239   2.610  15.588   0.128  0.4004 -0.1753 -0.2565
18109W        W33240  14.587   5.244  15.867  0.5639  0.3768  0.1158
18110W        W33241  11.742  10.076  14.229 -0.0273 -0.0077 -0.0128
18111W        W33242   1.699   3.758   3.747  0.1752 -0.0106  0.2265
18112W        W33243   9.337   9.431   2.937  0.0360  0.2791  0.1052
18113W        W33244   8.421   1.816   3.602  0.1839  0.2145 -0.0027
18114W        W33245   9.762   3.831  10.231  0.0975 -0.0178 -0.3251
18115W        W33246  12.790   5.783  14.329  0.2472  0.0675 -0.3357
18116W        W33247   3.766   2.303   4.354 -0.1009  0.2831 -0.0591
18117W        W33248   9.232   0.115   4.225 -0.2078 -0.2235 -0.4468
18118W        W33249  13.429  14.946   5.871  0.2892  0.0840 -0.0665
18119W        W33250  16.112  13.519   0.716 -0.3246 -0.1690 -0.1277
18120W        W33251  15.858   0.245   1.412 -0.1131 -0.0812 -0.4564
18121W        W33252  15.802  15.311  12.623 -0.2965 -0.0608 -0.0962
18122W        W33253   2.509  17.826  15.167  0.0917  0.1770  0.0494
18123W        W33254   3.712   2.796   0.391 -0.1263  0.2394  0.2931
18124W        W33255  11.451   1.973   4.930  0.1741 -0.2332  0.2537
18125W        W33256  18.086  10.994  13.432 -0.0662  0.2261  0.1749
18126W        W33257  12.556  15.493  13.157  0.1313 -0.0033  0.0005
18127W        W33258   9.503  12.299  11.053 -0.1672 -0.1178 -0.0063
18128W        W33259   1.305   5.494  14.555  0.1727  0.2445  0.1639
18129W        W33260   8.268   5.375   2.472  0.1321 -0.0272  0.1611
18130W        W33261   5.979   9.331   0.525 -0.0849 -0.0734 -0.0080
18131W        W33262  14.871   6.889  11.777 -0.2270 -0.0871  0.0461
18132W        W33263  16.106   0.443  15.570  0.0711  0.1146  0.0816
18133W        W33264  17.694  12.879  13.407 -0.1212 -0.2375 -0.0152
18134W        W33265   6.287   8.950   1.734 -0.0227  0.3714  0.3215
18135W        W33266   1.697   4.988   5.233 -0.0332 -0.1211 -0.0525
18136W        W33267   9.910  17.121  11.895 -0.1299 -0.3840 -0.0956
18137W        W33268  15.602  14.231   0.475 -0.1283  0.0560  0.1253
18138W        W33269   1.239  14.601  15.472 -0.1518 -0.2439 -0.2405
18139W        W33270   4.822   7.894   3.856 -0.2683 -0.0176  0.1502
18140W        W33271   3.334  12.814   3.434  0.4209  0.1253 -0.1928
18141W        W33272  13.752   8.677  13.795 -0.2797  0.2211  0.1609
18142W        W33273   6.850   8.841   2.469  0.3398  0.1172  0.0024
18143W        W33274   5.971  17.798   3.485 -0.0223 -0.1800 -0.0770
18144W        W33275  13.921   4.877   4.424 -0.0623  0.1331 -0.0486
18145W        W33276   2.508  17.277  15.267  0.0850 -0.0480  0.0365
18146W        W33277   6.351  12.213   1.869  0.0772  0.3030  0.1921
18147W        W33278   1.161   1.656   3.843  0.1121  0.0134 -0.1515
18148W        W33279  11.641  12.797   4.737 -0.2895 -0.1606 -0.3177
18149W        W33280  15.898   1.889  12.057 -0.3633  0.2132  0.0283
18150W        W33281   9.248   5.513   1.323  0.3282  0.5472  0.1376
18151W        W33282   7.334  17.707   4.669  0.3243 -0.3561 -0.0810
18152W        W33283   4.356  13.273  11.252 -0.0381 -0.2567 -0.2893
18153W        W33284  14.631  17.699  11.093  0.1298 -0.2505  0.2305
18154W        W33285  17.887  12.238   4.242  0.1922  0.1121 -0.0960
18155W        W33286   3.455  14.837  13.161  0.1785  0.3080 -0.1597
18156W        W33287   1.941   5.460   0.259  0.1826 -0.0130 -0.0822
18157W        W33288   8.131  10.566  12.122  0.1156  0.3112 -0.0713
18158W        W33289   8.147   8.314   1.322  0.1298 -0.0697  0.6080
18159W        W33290   5.385   1.286  14.225 -0.1656 -0.0905  0.1313
18160W        W33291  13.549   8.195  13.065 -0.3148  0.1692  0.0188
18161W        W33292   8.210   2.773   2.444  0.0397 -0.2747  0.0018
18162W        W33293   7.584  14.724  15.406  0.1841 -0.2563  0.1431
18163W        W33294   1.909  18.490  11.990  0.1452 -0.0488 -0.2072
18164W        W33295   4.310  16.250  12.401  0.2177 -0.1547  0.0462
18165W        W33296   5.827   8.142   3.102  0.0958 -0.1715  0.0716
18166W        W33297   6.655  11.461  13.703 -0.0121 -0.2009 -0.3815
18167W        W33298   9.095   5.980   3.126  0.1009 -0.2225  0.0408
18168W        W33299   1.452   5.425   2.298  0.1374 -0.1612  0.0774
18169W        W33300   9.734   9.179  13.685 -0.1257 -0.1089 -0.1762
18170W        W33301  10.708   4.210  11.375 -0.0875  0.0510 -0.0359
18171W        W33302   5.822   2.104  11.299 -0.0078  0.1568  0.0545
18172W        W33303  13.171   2.532   5.616  0.2852 -0.2477 -0.1326
18173W        W33304  15.832  17.128   3.153  0.2046 -0.1287  0.2104
18174W        W33305  18.280   2.513  12.764  0.6185 -0.0103  0.1082
18175W        W33306   6.326  18.507  13.792 -0.0246  0.1408 -0.0266
18176W        W33307   8.294   8.777  12.466 -0.2627  0.1353  0.1023
18177W        W33308  18.510   0.975   0.567  0.1374  0.0530 -0.1490
18178W        W33309   5.448   2.431   4.130  0.2227 -0.1306 -0.1159
18179W        W33310   6.354   4.022  11.506  0.0525  0.0249 -0.0062
18180W        W33311   1.146   8.584  15.529  0.0471  0.1368  0.2055
18181W        W33312  10.131  14.802   0.511 -0.0201  0.4115  0.1131
18182W        W33313  16.489  10.130   2.721  0.0222  0.0936 -0.0447
18183W        W33314   6.301  12.014   0.239  0.1075 -0.1065  0.0217
18184W        W33315  12.864   6.949  14.218 -0.0949  0.2070  0.0717
18185W        W33316  14.552   2.736  11.895 -0.0557 -0.0604 -0.1040
18186W        W33317  18.393   2.082   0.967  0.0876 -0.0380  0.1424
18187W        W33318  12.952   3.777  14.349  0.0601  0.2461  0.0858
18188W        W33319   6.724   0.997  10.981  0.1719 -0.0424  0.2578
18189W        W33320  18.519   3.860   4.755  0.1368  0.1778 -0.1833
18190W        W33321  14.544   1.020  11.142 -0.1738  0.2641 -0.1192
18191W        W33322   7.115  18.344  13.361  0.0982 -0.1322  0.0710
18192W        W33323  15.377   5.171  11.799  0.2620 -0.0338  0.0685
18193W        W33324   9.925   6.131   6.162 -0.0408 -0.2159 -0.1729
18194W        W33325  12.496  16.710  14.831 -0.0954 -0.2412 -0.5936
18195W        W33326  16.695   1.535   4.446  0.0188  0.1597 -0.1941
18196W        W33327  13.079   5.693  10.541  0.0919  0.0125 -0.0316
18197W        W33328   3.555   7.650  13.965  0.0675 -0.2076 -0.0147
18198W        W33329   4.986  14.753   0.254 -0.0074 -0.1384  0.1721
18199W        W33330  16.776   2.891  10.595 -0.0877 -0.1800  0.0463
18200W        W33331  10.966  16.116  13.264 -0.1182  0.1992 -0.1629
18201W        W33332   7.721   4.762   0.695  0.3459 -0.1103  0.1813
18202W        W33333  18.332   7.924   1.228 -0.2458 -0.2701  0.1255
18203W        W33334   5.073   0.299  11.843  0.2014 -0.0576 -0.4427
18204W        W33335   3.596   6.646  13.458  0.1151  0.1157 -0.0760
18205W        W33336   4.140  15.396   1.644  0.0123  0.1030  0.1244
18206W        W33337   9.574  18.252   0.753 -0.1559  0.1090  0.0260
18207W        W33338  15.881   5.241  11.884  0.0440 -0.1133 -0.2410
18208W        W33339  10.397  12.680   2.071  0.0881  0.3506  0.2814
18209W        W33340   8.914   1.577  15.634 -0.0964  0.0850  0.3840
18210W        W33341   8.072   3.874   4.466 -0.0147 -0.0257  0.1247
18211W        W33342   7.759   5.817   5.275  0.5277  0.3021 -0.1486
18212W        W33343   0.523  16.456  13.030 -0.2361 -0.0155 -0.0186
18213W        W33344  17.809  13.283   2.079  0.2891  0.0177  0.1159
18214W        W33345  12.148   6.570  10.535  0.0107 -0.3688  0.0454
18215W        W33346  17.051   2.668  13.621  0.2902 -0.0717  0.1318
18216W        W33347   0.410  14.016  15.374 -0.1080  0.1596 -0.1218
18217W        W33348  12.020  10.062  12.749 -0.1968 -0.0795 -0.0877
18218W        W33349   9.523  12.491  13.404  0.1537 -0.1547  0.0166
18219W        W33350   4.342   3.434  13.608  0.5411  0.1008  0.0323
18220W        W33351  17.704   2.187  14.326 -0.4697  0.3057  0.0208
18221W        W33352  10.250   2.028   0.310  0.0288  0.0577 -0.0955
18222W        W33353   5.162   6.076  12.823 -0.1800  0.0301  0.2431
18223W        W33354   9.853  14.548  15.245  0.0352  0.0196 -0.1217
18224W        W33355  12.711  11.047   2.109  0.1903 -0.2280 -0.0972
18225W        W33356   8.775   1.411  15.166  0.0623 -0.0564  0.0277
18226W        W33357   8.800  12.472  15.229 -0.1950  0.0056  0.1570
18227W        W33358   2.153   7.473  12.710  0.0273  0.4145 -0.1524
18228W        W33359  14.586   2.547   3.124 -0.2167 -0.0017  0.0430
18229W        W33360   3.833   1.760   3.073  0.1943 -0.0289 -0.1764
18230W        W33361   9.024   9.826  14.825  0.0582 -0.1272  0.0381
18231W        W33362  15.500  14.144  14.390 -0.2962  0.0880 -0.0684
18232W        W33363  10.884  16.626   2.739 -0.0816  0.0378  0.0654
18233W        W33364   6.233   3.845  11.000 -0.0573 -0.1238 -0.1234
18234W        W33365   4.677  11.521  13.353 -0.0162 -0.0033 -0.1205
18235W        W33366   4.233   5.606   0.070  0.2236  0.0708 -0.0556
18236W        W33367  15.582  17.667  11.897 -0.2156  0.2227 -0.0799
18237W        W33368  12.798  13.877  11.853  0.1611 -0.1714  0.2728
18238W        W33369  17.871   9.471  14.581  0.2709 -0.0636  0.4859
18239W        W33370   3.100   8.095   3.874  0.3138 -0.1613 -0.1111
18240W        W33371   9.006  13.643  12.592  0.4162 -0.1055  0.0209
18241W        W33372  18.036   5.551   4.732 -0.0816 -0.1516  0.0656
18242W        W33373  10.556  10.134  13.685 -0.1310  0.0907 -0.3034
18243W        W33374  12.581   0.556  14.498  0.4151 -0.0130 -0.0260
18244W        W33375   3.176  12.595   0.571  0.0237 -0.1636  0.0210
18245W        W33376   8.565  10.231   0.277 -0.1309  0.1062  0.0055
18246W        W33377  16.237   2.907  15.051 -0.1209 -0.1156 -0.0061
18247W        W33378   8.453  17.162   3.635  0.2281  0.0096 -0.3886
18248W        W33379  11.550   4.797   4.314  0.1713  0.1575 -0.1187
18249W        W33380   6.171  13.575   2.908 -0.3007 -0.0053  0.1234
18250W        W33381  12.263  11.146  13.915 -0.1452  0.0660  0.0450
18251W        W33382   9.614   6.594   5.207  0.0110  0.1800  0.0119
18252W        W33383  17.725   7.969   0.264  0.2039  0.1348  0.0243
18253W        W33384   4.095   3.831  14.418  0.1819 -0.0090 -0.0461
18254W        W33385   9.111  12.675  14.145  0.3609 -0.0174 -0.1279
18255W        W33386   7.391   5.633   0.487  0.0955  0.3925 -0.1107
18256W        W33387  11.593  13.383  10.288 -0.1238  0.1055  0.1563
18257W        W33388  14.513   9.836  15.867 -0.0769 -0.0467 -0.1300
18258W        W33389  16.874  10.488  15.511  0.1828 -0.1684 -0.0550
18259W        W33390  15.893   8.584   3.072  0.0262  0.0389  0.1223
18260W        W33391  15.108  17.923  14.906  0.0631  0.2395 -0.4258
18261W        W33392   0.863  14.849   0.790 -0.1046  0.1758 -0.0981
18262W        W33393   9.433  12.718   2.260 -0.0582  0.0155 -0.1821
18263W        W33394   3.478   0.291  12.248  0.1067  0.0902  0.1715
18264W        W33395  15.925  16.793   1.650  0.1974  0.4959  0.2013
18265W        W33396   9.488   7.870   4.245  0.0122  0.1414 -0.3272
18266W        W33397  10.169  13.425   0.807 -0.1358  0.2747  0.5064
18267W        W33398  12.997   2.123  15.896  0.0711  0.1676  0.1244
18268W        W33399  17.695   5.474   3.348  0.1473 -0.3545 -0.2034
18269W        W33400  14.443  10.024  11.001 -0.0356 -0.0361  0.0080
18270W        W33401   6.076  17.906  10.577 -0.0061  0.4227  0.1442
18271W        W33402  13.126  12.367   1.849  0.3823  0.0601  0.3721
18272W        W33403   5.345  13.315   1.563 -0.1086  0.0713  0.1492
18273W        W33404   8.753  15.204   3.694 -0.1798  0.1623 -0.0331
18274W        W33405   5.555  16.576  12.178  0.0957 -0.0051 -0.2179
18275W        W33406   6.813   1.904   2.765  0.1743  0.1160 -0.1357
18276W        W33407  11.274   6.963  12.421 -0.2864  0.1466 -0.0730
18277W        W33408   8.269  15.636   0.214  0.0284  0.0125 -0.0043
18278W        W33409  10.966   8.059   4.267  0.0528 -0.0299 -0.2420
18279W        W33410  13.682   5.684   4.178  0.1157  0.0140  0.0740
18280W        W33411   7.422  16.805  15.378  0.0544  0.1994  0.4137
18281W        W33412  13.118   3.624  15.205  0.1901  0.1951  0.2538
18282W        W33413   5.884   0.567   3.575 -0.2294  0.1685 -0.1149
18283W        W33414  16.877   4.992  14.495 -0.0779 -0.1476 -0.0110
18284W        W33415  12.556  15.704  14.464  0.1489  0.0723  0.4229
18285W        W33416   0.710   4.918   0.056 -0.1785  0.0901  0.1456
18286W        W33417  13.194  10.765   4.035  0.1781  0.0244  0.0105
18287W        W33418   2.113  17.418   1.081  0.2950  0.1699 -0.1962
18288W        W33419   4.292   3.592  11.869 -0.1880 -0.2267  0.0356
18289W        W33420   1.354   1.685  12.881 -0.2201  0.2181  0.2087
18290W        W33421   3.272  12.515   4.815  0.1395  0.1502 -0.3072
18291W        W33422  11.009   7.048  14.531 -0.1063 -0.1331 -0.1902
18292W        W33423  13.297  11.766  14.159 -0.2371 -0.1723 -0.1502
18293W        W33424   2.891   0.512  13.331  0.1685 -0.1531  0.2913
18294W        W33425  10.511   0.026   1.485  0.0897  0.1775 -0.0299
18295W        W33426   2.304  17.540  13.479  0.2865  0.0566  0.0057
18296W        W33427   9.741  15.779   0.475 -0.2480 -0.2989 -0.1139
18297W        W33428   6.880   6.093  15.027 -0.0683  0.0726  0.2358
18298W        W33429  13.857   7.836  12.459 -0.2821  0.1970  0.2042
18299W        W33430  10.642   0.763  13.713 -0.0062  0.0570 -0.0584
18300W        W33431   0.592   9.205   3.811 -0.1607  0.0944 -0.0072
18301W        W33432   9.025   4.774  11.186  0.2126  0.0433  0.0535
18302W        W33433   6.162  14.938   5.427  0.1186 -0.2510 -0.0711
18303W        W33434  15.378   7.877   0.992  0.0990 -0.1986 -0.0773
18304W        W33435   8.509   2.412   1.562 -0.2193 -0.1763 -0.0956
18305W        W33436  17.149   2.948   1.245 -0.1860 -0.0404 -0.1370
18306W        W33437  11.410  18.373   3.097  0.5793  0.0243 -0.3177
18307W        W33438   9.039  18.186  10.801 -0.1142  0.1130 -0.3133
18308W        W33439   6.205   0.200   3.600 -0.0677  0.0328  0.1200
18309W        W33440  11.695  17.076   0.044 -0.0585 -0.1180 -0.2756
18310W        W33441  10.282   8.037  11.862  0.1566 -0.1627  0.1556
18311W        W33442  16.880   7.924  12.257  0.0509  0.2022  0.1864
18312W        W33443   5.782   3.964  12.886 -0.2066 -0.2337  0.1616
18313W        W33444   9.537  11.639   4.961 -0.0312  0.1305 -0.3514
18314W        W33445   3.469   8.076  13.658  0.1978  0.0562  0.1531
18315W        W33446  15.546   3.628   2.073 -0.1847  0.1596 -0.0002
18316W        W33447   7.545   9.459  11.511 -0.0395 -0.0454 -0.0714
18317W        W33448  12.536   8.796   5.172 -0.1412 -0.0032  0.1853
18318W        W33449  15.329  12.846   5.712  0.3498  0.0236  0.1116
18319W        W33450  11.295  12.461   5.135 -0.1587  0.0793  0.1587
18320W        W33451   6.497  14.178   2.212  0.1233  0.0351  0.2329
18321W        W33452   8.889  13.557   3.848  0.0449 -0.1653  0.1125
18322W        W33453   3.714  16.711  10.162  0.2347 -0.2318  0.2798
18323W        W33454   3.124  17.403   3.156 -0.0064 -0.0547  0.0929
18324W        W33455  16.235   2.669   2.673 -0.2390 -0.2482  0.1734
18325W        W33456   1.270   2.128   4.320  0.2694  0.0380 -0.1759
18326W        W33457   5.710   1.585  14.997  0.0837  0.1533  0.2404
18327W        W33458   9.464  11.246  12.468  0.0073  0.1273 -0.4947
18328W        W33459  11.304  17.473  11.334 -0.0043 -0.0766 -0.1562
18329W        W33460   1.185  13.741   1.306  0.1974  0.2075 -0.3113
18330W        W33461  11.643  11.633   9.543  0.2143  0.0344  0.4216
18331W        W33462   7.789  11.613  11.404 -0.2254 -0.0372 -0.1429
18332W        W33463  10.278   6.103  13.722 -0.5203 -0.1325 -0.4502
18333W        W33464   5.377  10.754   1.437 -0.0908  0.2410 -0.0395
18334W        W33465   5.429  11.794  14.147  0.1242 -0.4066 -0.0775
18335W        W33466  10.824  12.765   9.468 -0.0640  0.0107 -0.2511
18336W        W33467  18.002  12.147  15.451  0.0052  0.0188  0.0212
18337W        W33468  13.900   0.225   3.426  0.2075  0.4010 -0.3024
18338W        W33469  17.440  16.633  12.959 -0.0493 -0.1840  0.0350
18339W        W33470   4.067  16.177  14.913 -0.3254  0.0104 -0.3649
18340W        W33471  17.212  10.858  14.215 -0.0679 -0.1499  0.1344
18341W        W33472   3.767  17.207   4.280 -0.1886 -0.0810  0.2430
18342W        W33473  11.248  14.424  12.143 -0.1733 -0.1949  0.2770
18343W        W33474  14.567  15.974   3.189  0.2936  0.0737 -0.0640
18344W        W33475  14.717  18.204  11.026 -0.0963  0.0807  0.0538
18345W        W33476  13.347  18.100  15.776 -0.0187  0.0429 -0.0395
18346W        W33477   5.305   3.683   1.523  0.1888  0.0839  0.2844
18347W        W33478  12.184  14.369  15.697  0.0548 -0.0149  0.0920
18348W        W33479  10.091   0.311  11.302  0.1747 -0.3884 -0.0947
18349W        W33480   1.418  10.284   0.775 -0.1342 -0.0194  0.0258
18350W        W33481   5.580   7.190  15.451  0.3860  0.1119 -0.0049
18351W        W33482  14.831   3.877  15.507 -0.1284 -0.1211 -0.1377
18352W        W33483   1.864  17.475   2.317 -0.0153 -0.2475 -0.3287
18353W        W33484  11.886  13.302  15.439 -0.0318  0.1666 -0.1244
18354W        W33485  11.262  14.335   3.335 -0.1663 -0.1396 -0.1382
18355W        W33486  13.835  15.786   0.338 -0.0360  0.0374  0.2519
18356W        W33487   5.787   1.737  11.666  0.0503  0.0903  0.2903
18357W        W33488   9.401  13.611  11.742  0.1024  0.2512  0.1405
18358W        W33489  13.777   1.150  14.416  0.1026 -0.1014  0.2186
18359W        W33490  13.387  17.514  10.477 -0.0753  0.2886  0.0232
18360W        W33491  11.454  10.962   4.641  0.0675 -0.1594  0.0565
18361W        W33492   8.956  12.044   2.173  0.0353 -0.0759 -0.0516
18362W        W33493  18.201   0.092   0.200 -0.0778  0.1268 -0.1563
18363W        W33494  11.750   4.233   4.184  0.0130 -0.1412  0.0810
18364W        W33495  12.675  10.551   0.305 -0.0088  0.0498 -0.0011
18365W        W33496   6.825  15.538  14.573 -0.0180 -0.2773 -0.1051
18366W        W33497   9.724  10.394  10.214  0.3475 -0.1295 -0.0216
18367W        W33498  14.146  17.564  14.280 -0.4771  0.1050  0.1420
18368W        W33499   5.405   0.565   3.475  0.1173  0.2192  0.1541
18369W        W33500  17.928  17.029  11.702 -0.0292  0.1012  0.0931
18370W        W33501  16.699   6.022  12.293 -0.5431  0.1921 -0.0388
18371W        W33502  12.304   9.009  12.924 -0.1114  0.1356  0.1333
18372W        W33503  13.402   0.633  10.791  0.2355  0.2710 -0.0042
18373W        W33504  10.571   0.665   1.738  0.1916 -0.1635 -0.0028
18374W        W33505   1.737   9.908   0.992  0.0337  0.2571  0.0201
18375W        W33506   5.433  12.370  13.545 -0.1945  0.0713 -0.3501
18376W        W33507  11.506   7.750  11.788 -0.0998  0.3687  0.0223
18377W        W33508  10.236   4.942   6.412  0.0897  0.1280  0.1206
18378W        W33509  13.610   4.566   1.181 -0.0298  0.2093 -0.2420
18379W        W33510  11.877   0.637  13.167  0.2152 -0.1834 -0.2460
18380W        W33511  17.951   3.384  13.316  0.0376 -0.1101  0.0912
18381W        W33512  17.290  12.944  15.824  0.1233  0.0563  0.0295
18382W        W33513   5.539  12.198  10.144 -0.2967 -0.1697 -0.0896
18383W        W33514   1.151  15.680   0.200  0.1483  0.1562 -0.0531
18384W        W33515   3.825   5.735   1.526 -0.0253  0.1095  0.0138
18385W        W33516   1.949  17.365   4.342  0.2273  0.1641  0.0290
18386W        W33517   3.373   0.301   3.532  0.0879  0.0846  0.1352
18387W        W33518   9.831   4.967  12.344 -0.1640  0.0416  0.3683
18388W        W33519   1.704   0.391   4.142  0.0426 -0.0421  0.0216
18389W        W33520   4.844   9.213  12.257 -0.1537  0.0126 -0.0169
18390W        W33521  18.029  11.411   3.127  0.1344 -0.0638 -0.1090
18391W        W33522  13.010   1.838   3.557  0.0297  0.0510  0.0450
18392W        W33523  16.057   2.399   2.173 -0.2640 -0.0483  0.0619
18393W        W33524   4.563   8.122  14.468 -0.0737 -0.3780  0.2330
18394W        W33525  17.446   5.497   2.902 -0.1308  0.0548 -0.2315
18395W        W33526   0.918   0.193   0.895 -0.1134  0.2661 -0.1272
18396W        W33527   0.198  15.679  11.252 -0.2738 -0.0716 -0.1875
18397W        W33528   8.327  18.174  11.571  0.1209 -0.1930  0.2513
18398W        W33529  17.400   5.956  15.073  0.0426 -0.3701 -0.0084
18399W        W33530  16.437   6.944   5.602 -0.3568  0.2243  0.0551
18400W        W33531  14.212   4.116   0.962  0.0168  0.1321 -0.1234
18401W        W33532   7.353  10.191  14.931 -0.0127 -0.0824 -0.0423
18402W        W33533   9.531   4.596  15.349  0.2316 -0.1443  0.0373
18403W        W33534  11.038  12.452  15.744 -0.0104 -0.2986 -0.1704
18404W        W33535   1.224  13.369  11.628  0.3361 -0.1373  0.0468
18405W        W33536  15.734  13.794  15.602  0.0372 -0.1465  0.3180
18406W        W33537  18.529  11.696   4.575 -0.0176  0.0307 -0.1874
18407W        W33538  15.936   9.385   0.851 -0.0605  0.1627 -0.0352
18408W        W33539  18.138  15.972   1.782 -0.0871 -0.0234  0.0528
18409W        W33540   7.258   3.126   1.649  0.1618 -0.3713 -0.1908
18410W        W33541   4.465  11.499  11.832 -0.1192 -0.0674  0.1121
18411W        W33542   4.380   6.945  10.484 -0.0631 -0.6409  0.2420
18412W        W33543  11.389   5.139  12.893 -0.1010 -0.1702  0.1315
18413W        W33544   5.456   7.972  13.981 -0.2584  0.0990  0.1012
18414W        W33545  13.399  18.175   0.431  0.1031  0.1291  0.0533
18415W        W33546  16.875  10.488   0.427 -0.1062 -0.3655  0.1211
18416W        W33547   8.058   3.694  12.691 -0.2053 -0.0250  0.0591
18417W        W33548   9.286  11.147  10.684 -0.2455 -0.1029  0.0863
18418W        W33549   3.647  13.644  15.200 -0.1878 -0.2747 -0.0443
18419W        W33550  18.393  17.390   3.688  0.1635 -0.1937  0.3472
18420W        W33551  14.180   8.596   4.552 -0.2393 -0.0971  0.1383
18421W        W33552   7.715  10.322  15.289 -0.0857  0.0145 -0.4184
18422W        W33553  15.468  11.202   0.312 -0.2080  0.0684  0.0406
18423W        W33554   2.974  13.369  13.504 -0.1070  0.1767 -0.0451
18424W        W33555  18.349   5.329  11.783 -0.1665 -0.0191  0.2656
18425W        W33556  16.114   6.768  11.638 -0.1861  0.0428  0.2759
18426W        W33557  12.592  11.916   1.351 -0.1947 -0.0386  0.1238
18427W        W33558   9.668   1.409   4.462 -0.1676  0.0434  0.1867
18428W        W33559  10.251   2.045  10.524 -0.0757  0.0490  0.0730
18429W        W33560  16.652   3.114   1.621  0.0653  0.1461  0.2044
18430W        W33561   0.712  15.797   3.050  0.0439  0.0666  0.2350
18431W        W33562   4.393  10.561  13.296  0.0260  0.0188  0.1649
18432W        W33563  11.449  10.630   4.212 -0.0742  0.2058  0.0268
18433W        W33564   0.326   2.360   0.454  0.0731  0.3516 -0.1447
18434W        W33565   3.004   6.747   2.565  0.3656 -0.3464  0.0178
18435W        W33566   6.162   2.307  14.705  0.0263  0.0175  0.0713
18436W        W33567  14.369  11.681   3.237  0.1593 -0.0129  0.0255
18437W        W33568  16.089   0.371  14.576 -0.0807  0.2304  0.3455
18438W        W33569   2.196  17.169   4.814 -0.4180 -0.1971 -0.3054
18439W        W33570   7.623   0.551   2.553  0.0590 -0.3595  0.3040
18440W        W33571   7.577   6.194  12.602  0.1610  0.3153 -0.1186
18441W        W33572  17.886  16.025  15.105  0.1996 -0.1295 -0.1352
18442W        W33573  15.275   9.588  14.284  0.0124  0.0215  0.0812
18443W        W33574   7.209   4.294   2.826 -0.3976 -0.0310 -0.5599
18444W        W33575   4.524  16.903   3.252 -0.0554 -0.4284  0.2640
18445W        W33576  10.408   6.570   1.288  0.0856 -0.0329 -0.1643
18446W        W33577  17.158   3.664  13.708 -0.0020  0.2207  0.1510
18447W        W33578   4.092   4.624  11.027  0.0108 -0.1061 -0.0653
18448W        W33579  16.779   8.733   4.024 -0.2344  0.2595 -0.1384
18449W        W33580   1.900  12.934   2.567  0.0371  0.1912 -0.3435
18450W        W33581  15.972   8.568  10.794 -0.1093  0.1003  0.2999
18451W        W33582   8.693   5.240   2.710  0.2779 -0.0299 -0.1540
18452W        W33583  16.511   4.036  11.554  0.2941 -0.1242 -0.4423
18453W        W33584   7.195  11.371   0.024  0.0417 -0.1682 -0.0477
18454W        W33585  16.256   9.248  12.864 -0.3284 -0.3737  0.0633
18455W        W33586  13.129  10.124   5.209 -0.0807 -0.3742 -0.0931
18456W        W33587  16.708  17.427   4.149 -0.1089  0.0874 -0.1506
18457W        W33588   1.090  13.798  11.307 -0.1791  0.2408  0.0854
18458W        W33589   8.883   2.609  11.727  0.0034 -0.2042 -0.1763
18459W        W33590  14.267  15.344   0.306  0.0865  0.2421  0.1071
18460W        W33591   6.511  15.770  14.266  0.4165  0.2500  0.1576
18461W        W33592   8.022   6.881  15.360 -0.1404 -0.1708 -0.1418
18462W        W33593   3.793  14.331  10.841  0.0004  0.1003 -0.0148
18463W        W33594   7.900  15.368   2.006 -0.0417 -0.0272  0.0437
18464W        W33595  15.226   0.519  14.186  0.3774  0.0975 -0.2870
18465W        W33596   6.931   1.113  13.571  0.2830 -0.3383 -0.0308
18466W        W33597   3.795   6.771   2.254  0.2489 -0.0057  0.2023
18467W        W33598   3.098  12.724  13.359  0.1089  0.0311 -0.0542
18468W        W33599   9.595  14.771   0.312 -0.1549  0.0045 -0.3581
18469W        W33600  12.475   2.305  12.222 -0.3863 -0.2299  0.1521
18470W        W33601  11.212  18.268   4.672  0.1327  0.0524  0.1249
18471W        W33602  13.406   0.390   1.771  0.1274 -0.0361 -0.0938
18472W        W33603   2.453  10.234  13.785 -0.1118  0.0817  0.2506
18473W        W33604   9.575  18.478  13.159  0.2957 -0.1250  0.3482
18474W        W33605   5.757  16.256  14.629  0.3378  0.0814 -0.1994
18475W        W33606  10.526   1.867   3.908 -0.0425  0.2145  0.2438
18476W        W33607   2.276  10.074  14.814  0.0453  0.1324  0.1232
18477W        W33608   5.983  16.007   3.086  0.0985  0.0174  0.1101
18478W        W33609  13.866  17.724  11.995  0.3007 -0.3830 -0.0301
18479W        W33610  12.904   1.958  15.237  0.0451 -0.0152 -0.1697
18480W        W33611   5.009  18.363  15.488  0.0251 -0.0082  0.3174
18481W        W33612  15.319  13.568   2.157 -0.1785  0.1007 -0.3083
18482W        W33613   1.089  14.710   3.724  0.0233  0.1375 -0.0345
18483W        W33614   5.401   3.341  10.864 -0.0232 -0.0531 -0.0468
18484W        W33615   6.216  12.099   5.417  0.0133  0.2929  0.4561
18485W        W33616   7.451  17.905  10.303 -0.1740 -0.1138  0.2562
18486W        W33617  17.883  17.383  13.028 -0.1103  0.0573  0.0843
18487W        W33618   8.465   5.242   3.757 -0.1296 -0.1907 -0.2608
18488W        W33619   8.521   7.386   4.825  0.0447 -0.1632 -0.1682
18489W        W33620  14.419   8.799   3.548  0.2938  0.0588  0.1668
18490W        W33621  16.792  15.180  15.498  0.2178  0.1853 -0.0923
18491W        W33622  14.461  12.432   4.442  0.1448  0.1639  0.0945
18492W        W33623   1.767   5.185  13.066  0.2151  0.2221 -0.2305
18493W        W33624  14.940  10.247  12.187 -0.1208  0.0193 -0.0279
18494W        W33625   1.573  12.933  14.379 -0.1149 -0.0027  0.0716
18495W        W33626  16.691  12.649  12.014  0.0017 -0.2102 -0.1226
18496W        W33627  12.775  17.329   9.848  0.1560 -0.2062 -0.0336
18497W        W33628   9.057  15.352  12.819 -0.1205 -0.2407  0.0177
18498W        W33629   6.390  10.270   2.983 -0.1592  0.1026 -0.0089
18499W        W33630   4.652   1.961  11.706  0.2691 -0.2335  0.1065
18500W        W33631  12.471  11.144  11.778  0.2607 -0.2040 -0.1936
18501W        W33632   9.163  10.129  11.455  0.0377  0.1573 -0.0127
18502W        W33633   7.055  12.884  12.704 -0.1183 -0.0508  0.0288
18503W        W33634  13.501  12.745  14.966  0.1132  0.0208 -0.3166
18504W        W33635  14.599   4.024   5.630 -0.3055  0.1263 -0.0017
18505W        W33636  10.427   4.515   0.896 -0.2578 -0.1416  0.0048
18506W        W33637   7.166   6.983  15.447  0.0335 -0.3288 -0.0817
18507W        W33638  11.369   1.787   3.642  0.2697 -0.0204  0.2617
18508W        W33639   9.448   4.442   4.261 -0.1328  0.3578 -0.0353
18509W        W33640   9.058  16.317  15.397 -0.0244 -0.0359  0.0387
18510W        W33641  16.407  15.400   1.568  0.0292 -0.2405  0.1595
18511W        W33642   0.137  15.214   1.748 -0.1064  0.3388  0.0752
18512W        W33643   9.192   4.940  15.108  0.0157 -0.0189 -0.1157
18513W        W33644   4.473   0.597   0.488  0.1281 -0.1461  0.0418
18514W        W33645   6.872   5.824   0.346  0.2592 -0.2557  0.1837
18515W        W33646  10.205   3.558   5.830 -0.1938  0.0999  0.0561
18516W        W33647   9.444   8.533  13.228  0.1243 -0.0084 -0.0756
18517W        W33648  12.521  17.411   2.116 -0.2401 -0.1704 -0.3729
18518W        W33649  15.804  15.172   4.332 -0.1781 -0.0514  0.3336
18519W        W33650  13.143  14.209  11.883  0.2184 -0.1606  0.1462
18520W        W33651  16.354  13.422   1.949 -0.0466 -0.0055 -0.2926
18521W        W33652  17.531   5.033   1.851 -0.0021  0.2766  0.1283
18522W        W33653   8.307   3.937  12.190  0.1627  0.0074 -0.0394
18523W        W33654   6.610  14.903   0.186 -0.1771 -0.3208 -0.1141
18524W        W33655  14.187   6.422   0.097  0.1640 -0.1736  0.1406
18525W        W33656   2.371  11.550   5.590  0.1436 -0.1785  0.0329
18526W        W33657   8.102   7.302   6.303 -0.2546  0.3045  0.0395
18527W        W33658   1.341   3.413   3.389 -0.1256 -0.0850 -0.0069
18528W        W33659   5.092  12.618  13.765  0.1586  0.3799  0.0683
18529W        W33660  14.663   0.967   3.119  0.0464  0.0434  0.0191
18530W        W33661  14.045  15.370  13.390  0.1677  0.1126  0.0101
18531W        W33662   5.294   6.998  14.992 -0.0059  0.1248  0.1468
18532W        W33663   7.698  10.958   3.045  0.1099  0.1212 -0.0768
18533W        W33664   1.081   9.299   4.534 -0.1944 -0.1469  0.0237
18534W        W33665   1.658   9.087   6.111  0.1346 -0.0141 -0.1091
18535W        W33666  17.483   2.850  11.838  0.1442 -0.0228 -0.1972
18536W        W33667   2.994   4.310  11.168 -0.0694 -0.0886 -0.3903
18537W        W33668  16.463   2.869   0.121  0.1717 -0.1471  0.5176
18538W        W33669   2.702  13.635   5.016  0.2778 -0.2263 -0.1600
18539W        W33670   1.721  12.255  14.199 -0.1572  0.4880  0.4915
18540W        W33671   6.152   3.514  11.509 -0.2186  0.2009  0.1151
18541W        W33672  14.788   0.982   1.341  0.3109  0.2482 -0.1238
18542W        W33673  14.807   8.910  12.437 -0.0579  0.3222  0.1789
18543W        W33674   1.778   5.729  12.589 -0.2819 -0.0748  0.0260
18544W        W33675  12.644   4.708   3.336 -0.2947  0.0239  0.3902
18545W        W33676   3.477   2.024  14.355  0.2894  0.1392  0.0945
18546W        W33677   7.400   2.798  11.170  0.1477 -0.3147  0.1487
18547W        W33678   4.398   1.347  15.393 -0.0701 -0.0706 -0.0126
18548W        W33679   7.088   6.536   1.957 -0.0060  0.0850  0.1656
18549W        W33680   0.421   1.122  11.289 -0.2889 -0.5882  0.1649
18550W        W33681   2.130   9.736  15.758 -0.1112  0.2791  0.2068
18551W        W33682   0.681  11.948   0.926 -0.2925  0.2419 -0.0993
18552W        W33683  13.144   0.373   4.776 -0.0050  0.1906 -0.1188
18553W        W33684   6.936  12.461  11.559 -0.2322 -0.1289 -0.1258
18554W        W33685  10.720   0.068   0.065 -0.3505 -0.2655 -0.0206
18555W        W33686   0.358   0.138   3.877 -0.2227  0.1559  0.2499
18556W        W33687   5.078   8.546   1.891  0.0751  0.1827 -0.0315
18557W        W33688   6.621  14.510   1.795  0.1275 -0.0618  0.2712
18558W        W33689   1.157  15.607   1.446 -0.2986  0.1431  0.0447
18559W        W33690   0.323  14.938  11.715  0.0356 -0.3358  0.1229
18560W        W33691  16.483   8.146  11.982  0.3235 -0.0485 -0.3866
18561W        W33692   2.371  16.075   3.290 -0.0285  0.0123  0.0674
18562W        W33693   3.708  14.622  12.204  0.1687  0.0917  0.0865
18563W        W33694  17.488  13.477   3.210 -0.1395  0.1352  0.2406
18564W        W33695   7.183  13.646  13.128 -0.1352  0.3463 -0.1486
18565W        W33696   9.094   4.990   4.393  0.0117 -0.0522  0.1386
18566W        W33697  10.524  16.591  13.859  0.2276 -0.0939 -0.1367
18567W        W33698   5.715   4.376  12.621  0.3810 -0.1150 -0.0418
18568W        W33699  17.806   9.013   1.250 -0.1578  0.1205 -0.0721
18569W        W33700  14.448   4.506  15.473  0.2712  0.0635  0.0238
18570W        W33701  17.566  13.809  10.761 -0.2574  0.1543  0.1730
18571W        W33702  11.518   2.169  15.010 -0.3063  0.0906  0.1283
18572W        W33703   2.856  18.447   4.757  0.1631  0.2919 -0.1729
18573W        W33704  14.832   8.042   3.870  0.1986  0.1419 -0.1911
18574W        W33705  15.132  13.202   3.037  0.2073  0.2951  0.2673
18575W        W33706  15.649   4.003  10.439 -0.2222  0.1147  0.1557
18576W        W33707   7.543   4.793  15.581 -0.1613  0.1367  0.2822
18577W        W33708   8.591  11.320  13.791 -0.1015 -0.2394 -0.2714
18578W        W33709  16.857   2.276   5.688  0.0094  0.0499  0.1207
18579W        W33710  12.136   2.511   1.537 -0.1422 -0.1821 -0.0496
18580W        W33711   6.359   0.430   2.717 -0.0683 -0.0683  0.1075
18581W        W33712  11.581   6.943  11.238 -0.2847  0.1287  0.0663
18582W        W33713  12.108   6.474   1.141 -0.1744  0.1887  0.1370
18583W        W33714  13.784   4.778  12.802 -0.0761  0.0225  0.0538
18584W        W33715  16.241  10.296  12.713 -0.1088 -0.0815 -0.2774
18585W        W33716  13.421   0.664  14.919  0.2332  0.1604  0.1471
18586W        W33717   1.687   2.933  15.312 -0.0194 -0.1079  0.0716
18587W        W33718   0.128  13.392   1.393 -0.0230  0.0409 -0.1283
18588W        W33719   8.260   5.181   1.984 -0.0836  0.1741  0.3172
18589W        W33720  10.083  12.644  15.891 -0.0231 -0.0357 -0.0255
18590W        W33721   7.372   3.547  11.034 -0.2215  0.0806  0.3139
18591W        W33722   6.970   5.158  13.400  0.2833 -0.2715  0.0562
18592W        W33723  11.935   3.661  10.866 -0.2383  0.0252  0.2422
18593W        W33724   0.488   0.582  13.173  0.0297  0.0082 -0.0934
18594W        W33725  12.854  12.346  13.809 -0.3140  0.1611 -0.0244
18595W        W33726  13.460   1.070   2.569 -0.1431 -0.0058 -0.0205
18596W        W33727   9.534  11.142  14.833 -0.1316 -0.1335 -0.2169
18597W        W33728  15.392   0.907  11.015 -0.2430  0.3274 -0.1174
18598W        W33729  15.219  12.847  14.936  0.0983  0.0471 -0.0110
18599W        W33730   9.633  11.842  14.849 -0.1630  0.1795  0.0119
18600W        W33731   0.138   1.439  15.743 -0.2329  0.0102 -0.2667
18601W        W33732   9.428  12.242   4.996  0.4044 -0.0427 -0.0786
18602W        W33733  18.211   1.277  11.623 -0.0958 -0.0895  0.0452
18603W        W33734  16.113  12.348   4.378  0.4139 -0.1438 -0.1425
18604W        W33735   9.631   1.793   5.622  0.1807  0.1003 -0.0026
18605W        W33736  16.714  11.195  15.566 -0.0049  0.0418  0.1370
18606W        W33737  13.803   8.352  12.136  0.1527 -0.0990 -0.1282
18607W        W33738  17.411   0.559  15.885  0.2009  0.0585  0.0042
18608W        W33739   1.420   1.968  11.629  0.1101  0.3145  0.3762
18609W        W33740   7.036   5.686   2.750 -0.0903  0.3972  0.0269
18610W        W33741  16.861  16.154  14.010 -0.0132  0.3482 -0.0153
18611W        W33742  12.479   6.868   5.439 -0.0666 -0.1171  0.0384
18612W        W33743   1.198  15.165   1.694  0.1927  0.0050  0.3298
18613W        W33744   7.977   9.217   2.909 -0.1504 -0.0403 -0.3441
18614W        W33745  12.876   5.685   0.494 -0.0965  0.1426  0.3467
18615W        W33746  17.051   2.458  10.534 -0.2172 -0.3011  0.0233
18616W        W33747  15.481  10.095  12.229 -0.1467 -0.3985  0.1984
18617W        W33748   9.241   9.157  14.605 -0.3844  0.1030  0.0604
18618W        W33749   1.389  14.144  15.063  0.0476  0.0163  0.1118
18619W        W33750   1.389   3.109   2.802 -0.1785 -0.0978  0.0443
18620W        W33751   7.616   1.434   5.244  0.0391 -0.1425 -0.1805
18621W        W33752  16.531   5.619  11.413 -0.0572  0.1497 -0.1454
18622W        W33753   1.039  18.362   9.834 -0.0931 -0.0971 -0.2760
18623W        W33754   1.733  16.238  14.507 -0.2222 -0.1154 -0.3231
18624W        W33755   8.857   4.458   2.259 -0.0185 -0.1897 -0.1210
18625W        W33756   3.291  12.847  15.691 -0.0096 -0.2753  0.3048
18626W        W33757  10.668   6.130   2.999 -0.1926  0.1241 -0.1227
18627W        W33758   2.763  18.344  15.897 -0.0705  0.5000 -0.1106
18628W        W33759  10.197  16.371   3.565  0.1818 -0.1892 -0.1584
18629W        W33760   7.236  10.784   3.903 -0.0588  0.0031 -0.1102
18630W        W33761  12.434  18.349   4.531 -0.3120  0.0293 -0.2028
18631W        W33762   4.507   2.413  11.489 -0.3774 -0.2482 -0.0359
18632W        W33763  14.320  11.764   3.891 -0.0467  0.0318  0.2522
18633W        W33764  10.217   5.845  15.006 -0.0882  0.4239  0.0896
18634W        W33765   1.088  14.129  13.636 -0.0106  0.1245 -0.2031
18635W        W33766  14.980  14.646  14.026  0.0856 -0.0936 -0.4503
18636W        W33767   3.133  10.409   0.176  0.1629  0.1940  0.0824
18637W        W33768  16.271  14.593  15.342  0.0865 -0.1627 -0.1961
18638W        W33769  10.683  13.954   1.635  0.0978  0.0382  0.1353
18639W        W33770  18.240  10.147  11.408 -0.1118  0.2664 -0.2185
18640W        W33771   0.206   3.280  14.275  0.2511  0.1060 -0.2774
18641W        W33772  10.793   5.355  12.433 -0.0501 -0.0371  0.0299
18642W        W33773   3.563  18.073  11.708  0.0871  0.1893  0.0859
18643W        W33774   1.265  16.367   5.275  0.2036 -0.0404  0.1505
18644W        W33775  10.256   0.073  12.428 -0.1626  0.0191  0.1451
18645W        W33776  10.205  13.827   4.046 -0.2950  0.1572  0.2346
18646W        W33777   4.586  10.017   5.935 -0.2565  0.1443  0.1103
18647W        W33778   6.053  17.604   0.066  0.1796 -0.0817 -0.2124
18648W        W33779   9.215  16.805   4.809  0.0207  0.0249  0.0734
18649W        W33780   3.266  13.560  10.871  0.1400 -0.4261 -0.1267
18650W        W33781   2.457  12.359  14.527  0.0476  0.2024  0.3102
18651W        W33782   5.317  11.163  14.986 -0.0845 -0.0139  0.0481
18652W        W33783  14.702  16.331  11.050  0.0330 -0.2198  0.0477
18653W        W33784  15.728  14.938  12.079  0.1508 -0.0407 -0.0800
18654W        W33785   7.388  10.914  12.325  0.1412 -0.0246  0.2447
18655W        W33786   5.472  10.426   5.499  0.1087  0.1020 -0.1477
18656W        W33787  18.392  10.158   3.287 -0.1079  0.0742 -0.2362
18657W        W33788   3.960  15.371  11.334  0.2683  0.0829 -0.3454
18658W        W33789  15.001  12.225   2.603 -0.2953  0.4219 -0.0597
18659W        W33790  16.990   4.178   4.628  0.2501 -0.0888 -0.0277
18660W        W33791   8.593   4.338   1.772  0.0269  0.4389  0.1300
18661W        W33792   0.378  10.520   6.094 -0.1612 -0.2356 -0.1537
18662W        W33793   0.214   4.359  14.283  0.0525 -0.0387  0.0028
18663W        W33794  13.963   5.235   3.957 -0.0452 -0.2263 -0.0239
18664W        W33795   0.206  14.600  12.256 -0.1028  0.2375  0.0476
18665W        W33796  14.015  15.656   5.993 -0.1926 -0.2499 -0.0638
18666W        W33797   6.050   1.727   4.455  0.2389 -0.1133 -0.0936
18667W        W33798   6.422   9.600   9.830  0.1693 -0.0787 -0.0192
18668W        W33799   3.741  18.029  14.557  0.2847 -0.3042 -0.1348
18669W        W33800  15.428   1.467  14.959 -0.0392  0.3601 -0.0831
18670W        W33801  13.890   8.659  11.578 -0.0011 -0.2644  0.2110
18671W        W33802   7.194  11.955   3.591  0.0521 -0.1210  0.0266
18672W        W33803  11.423   5.950   0.058  0.0210  0.0326  0.1606
18673W        W33804  10.308   3.264  13.024 -0.0988 -0.1550 -0.0065
18674W        W33805  13.800  16.838   2.591 -0.0842 -0.0044  0.0752
18675W        W33806  16.972   0.381   3.753  0.1210  0.1568  0.1715
18676W        W33807   8.751  16.321  15.866 -0.2283  0.0263 -0.0440
18677W        W33808  17.011  10.068   2.984  0.0012  0.0712  0.2528
18678W        W33809  14.898   1.037   5.371 -0.0540 -0.1537  0.0309
18679W        W33810  17.496  10.372   1.305 -0.0554  0.3805 -0.0635
18680W        W33811   8.129  13.865   0.317  0.0075  0.0409  0.1679
18681W        W33812  10.836   5.316   1.501  0.1031  0.0556  0.2167
18682W        W33813   9.951  15.336   1.845  0.1015 -0.0307 -0.3258
18683W        W33814   9.843   9.152   3.676  0.0327  0.0867  0.0086
18684W        W33815   2.444  13.540   4.499  0.0469  0.0834  0.0451
18685W        W33816   3.784   4.763  13.693  0.0214 -0.1740 -0.4114
18686W        W33817   4.054   0.223  15.586  0.0771  0.3366 -0.0192
18687W        W33818   8.759  16.164  11.827  0.0568  0.0706  0.0238
18688W        W33819   0.726   0.925   1.588 -0.0535 -0.0269  0.1276
18689W        W33820  13.301  13.619   0.928  0.1691  0.1658 -0.0762
18690W        W33821  12.900   5.258  14.428  0.0368  0.0383  0.3673
18691W        W33822   9.556   7.154   0.421  0.0301  0.0080  0.0496
18692W        W33823  18.424  13.883  13.365  0.1673  0.0723 -0.1128
18693W        W33824   0.614  17.964  13.334 -0.1556 -0.0940 -0.3529
18694W        W33825   7.300   5.205   1.923  0.1031  0.0912  0.1345
18695W        W33826  10.359  14.509   4.860  0.0594 -0.0253 -0.0605
18696W        W33827   6.587  10.979   0.516 -0.0838 -0.1887  0.3023
18697W        W33828  10.009  17.702  12.385  0.1191  0.3003 -0.2165
18698W        W33829   6.224   4.399  11.022  0.0475 -0.0494  0.3106
18699W        W33830   7.345   2.357  10.827 -0.1688  0.0813  0.3239
18700W        W33831   4.377   0.023  12.912  0.2841 -0.1055  0.1344
18701W        W33832   2.661   7.126  14.222 -0.0588  0.2429 -0.0460
18702W        W33833   4.694  18.122   3.109 -0.1153 -0.0900  0.3221
18703W        W33834   2.101  13.447  12.467 -0.0055  0.0310  0.1193
18704W        W33835   3.826  18.463   3.493 -0.0781  0.0374 -0.1672
18705W        W33836   4.599  13.033  11.752  0.0728  0.2528  0.1927
18706W        W33837   7.284   1.487   3.316  0.2843  0.0301 -0.1574
18707W        W33838  11.880   9.998  15.865 -0.3543 -0.1445 -0.2859
18708W        W33839  16.934  11.327  14.165 -0.1915  0.1290  0.0923
18709W        W33840   1.252   5.118  12.225 -0.2514  0.0081 -0.1379
18710W        W33841  16.119  16.382  15.557  0.2193 -0.1020  0.0376
18711W        W33842  11.531  13.019  15.656 -0.2263  0.3825 -0.1608
18712W        W33843   5.591  10.214   5.040 -0.1531  0.2114  0.3324
18713W        W33844   1.946  18.411  10.525 -0.0919  0.3422 -0.0077
18714W        W33845  16.686   6.999   3.785 -0.2154 -0.1147  0.1000
18715W        W33846   5.379   8.148  11.071 -0.0357 -0.4333 -0.0517
18716W        W33847   4.669  12.378  13.848 -0.0501 -0.1237 -0.0773
18717W        W33848   7.671  16.406   1.004  0.1937 -0.0047  0.0766
18718W        W33849   5.123   5.849   3.226 -0.1907 -0.0688 -0.0412
18719W        W33850  13.694  12.229  11.197  0.0436  0.0255 -0.0591
18720W        W33851   3.603   0.610  14.529  0.0015  0.0424 -0.1937
18721W        W33852   0.284   6.181  15.147  0.0030  0.0368 -0.0991
18722W        W33853   6.807  16.839   0.599  0.0046  0.2633 -0.3595
18723W        W33854  12.597  10.719  10.057 -0.0414 -0.0594  0.1429
18724W        W33855   1.442   5.703  10.914  0.0330  0.0699  0.3608
18725W        W33856  10.456  14.081   1.064 -0.0620 -0.0561 -0.1689
18726W        W33857  18.262  16.110   5.680  0.1681 -0.0394  0.2286
18727W        W33858  13.500   7.507   4.783 -0.1415  0.1060 -0.2373
18728W        W33859  16.893   9.701  11.734 -0.0149 -0.0100 -0.2465
18729W        W33860  15.407   8.363  12.825 -0.0222  0.0092 -0.1809
18730W        W33861  18.050   6.326   0.669 -0.0032  0.0796 -0.2066
18731W        W33862   6.343   7.854  11.070  0.1711 -0.0267 -0.1918
18732W        W33863   2.620  15.756  13.932  0.0731  0.2017  0.1334
18733W        W33864  12.899   8.532  13.565 -0.0764  0.1400 -0.2268
18734W        W33865   3.994   7.291   5.749  0.2151 -0.4040 -0.1352
18735W        W33866   8.150  15.513   4.553 -0.1767  0.0592  0.2242
18736W        W33867  16.985  16.541  13.015  0.3498 -0.3233 -0.1457
18737W        W33868  14.211   3.300  14.252 -0.1715  0.0130 -0.2887
18738W        W33869   1.467   3.486  11.516 -0.0310 -0.1997  0.0975
18739W        W33870   8.640  11.531  11.853  0.2206  0.1175 -0.1708
18740W        W33871  12.995  14.941  12.726 -0.2441  0.1748 -0.2835
18741W        W33872   4.900  10.654   0.116 -0.0245 -0.2390 -0.0367
18742W        W33873   7.811  18.472  14.839 -0.1717  0.0023 -0.1066
18743W        W33874   2.679  14.392   3.309 -0.0920 -0.0238 -0.4109
18744W        W33875   3.122  18.373   1.545 -0.1282  0.0825  0.1962
18745W        W33876  18.179   3.989   3.679 -0.1083 -0.3570 -0.3020
18746W        W33877  10.710  15.847  12.886  0.1052  0.1988 -0.0599
18747W        W33878  13.421  14.025  13.046  0.1168 -0.3200  0.1655
18748W        W33879   3.125   9.953   3.248 -0.1063 -0.1568 -0.1704
18749W        W33880  14.354   9.379   3.357 -0.2296  0.0546 -0.0746
18750W        W33881  12.649   8.960   0.209 -0.0646 -0.2360 -0.0671
18751W        W33882   5.184   1.451  13.134  0.2785 -0.0129  0.0106
18752W        W33883  16.063   8.064   1.186  0.1275 -0.0326 -0.0475
18753W        W33884  10.416   6.375  15.729 -0.0952 -0.0494  0.3868
18754W        W33885   8.234   0.893  13.238 -0.1995 -0.0916  0.3087
18755W        W33886   0.894   8.786   2.470 -0.3331 -0.0710 -0.1499
18756W        W33887   0.721   8.629   0.953 -0.2971 -0.4010 -0.1870
18757W        W33888   5.834  14.526  11.934  0.0221  0.2347  0.2289
18758W        W33889   8.701  15.597  13.478  0.2236 -0.0054 -0.3932
18759W        W33890  17.495  13.641   2.367  0.3680 -0.2411 -0.2549
18760W        W33891  14.913  15.867   5.352  0.2433  0.1007  0.0132
18761W        W33892  18.404   4.305  14.656  0.0438  0.0123  0.1609
18762W        W33893   2.452  11.323  15.299 -0.1294 -0.0851 -0.2001
18763W        W33894  14.822   8.587   2.557 -0.1428 -0.2605  0.1207
18764W        W33895  13.617   0.865  15.497 -0.1143  0.1103  0.3766
18765W        W33896   6.868  18.135  14.344 -0.4967 -0.3723  0.1070
18766W        W33897  11.862  15.870  15.267  0.1872 -0.1615  0.2326
18767W        W33898   7.458  12.455  12.350 -0.0313  0.0953  0.2727
18768W        W33899   5.062   9.267  14.512 -0.1218 -0.1692  0.2312
18769W        W33900   5.370   2.649   2.484 -0.0228 -0.2274 -0.1536
18770W        W33901  13.179   3.170   0.916  0.0312 -0.2170  0.1435
18771W        W33902  16.832   7.717   6.100 -0.2807  0.0758  0.5047
18772W        W33903  13.369   2.417   2.708  0.2005  0.0414 -0.0943
18773W        W33904  12.308   9.725   0.009 -0.1012 -0.2150  0.1581
18774W        W33905  16.764   8.740   0.740  0.1751 -0.1588 -0.2093
18775W        W33906  10.692   1.946  12.332  0.7105 -0.5598  0.0836
18776W        W33907   3.006   6.134  11.375  0.0882  0.0146 -0.0730
18777W        W33908   8.366   5.383   0.073 -0.2624 -0.1131  0.3583
18778W        W33909   3.889   3.031  13.615  0.0660  0.4844  0.1422
18779W        W33910   3.830  16.184  14.368  0.1094  0.0390 -0.2013
18780W        W33911  18.057  16.514   2.521 -0.1017  0.0310  0.2339
18781W        W33912   3.458  14.825  12.639 -0.0528  0.0046  0.0517
18782W        W33913   2.877   3.916   5.425  0.2392 -0.0022 -0.1747
18783W        W33914   7.684   8.393   4.628 -0.3317  0.1396  0.0809
18784W        W33915   1.617  14.145  12.710  0.0559 -0.1719 -0.2614
18785W        W33916  15.288  12.627  12.646 -0.4335  0.0999 -0.1007
18786W        W33917   1.996   3.322   0.752  0.0386 -0.0081 -0.0747
18787W        W33918  14.487  15.524  15.436 -0.1307 -0.0383  0.0664
18788W        W33919   3.493   3.168  12.733 -0.0784  0.2000  0.4721
18789W        W33920  13.560  14.313   0.712  0.0765  0.2300  0.1821
18790W        W33921   1.496  10.999   3.693 -0.1276  0.1066 -0.1267
18791W        W33922  17.336   0.559  13.320 -0.0395 -0.1796  0.0440
18792W        W33923   8.330   2.615   1.120  0.4045  0.0000 -0.0116
18793W        W33924   8.336  16.748  10.321  0.1381  0.0926 -0.1000
18794W        W33925  13.172  14.463  14.137 -0.2204 -0.1695 -0.0733
18795W        W33926  10.112   3.962   2.668  0.2818  0.0198 -0.1150
18796W        W33927   6.715  13.939  12.682  0.4343  0.1862  0.1110
18797W        W33928   7.315  15.045  15.719  0.0052 -0.0673  0.1354
18798W        W33929   1.952   7.008  13.663  0.4151  0.2415 -0.3245
18799W        W33930   4.554  12.967   2.775 -0.0225 -0.0230 -0.0705
18800W        W33931  12.374   6.475  13.666  0.1496  0.3243 -0.0095
18801W        W33932  15.118  13.290  14.638 -0.2009 -0.0157  0.2643
18802W        W33933  10.738  12.692   1.538  0.0620 -0.1999  0.1422
18803W        W33934   0.399  10.620   0.722  0.0273 -0.2192  0.1617
18804W        W33935   7.096   3.961   4.497 -0.1012 -0.1659 -0.0628
18805W        W33936  14.827  12.174   3.155 -0.2345 -0.2573 -0.0959
18806W        W33937   1.218   3.746  12.331 -0.0569 -0.0427  0.2014
18807W        W33938   6.404   5.844   5.511  0.0695  0.1000 -0.0480
18808W        W33939  10.454  15.809  14.353 -0.1639 -0.2026  0.0533
18809W        W33940  12.985  10.439   0.701 -0.0436 -0.0787 -0.2082
18810W        W33941  16.745  11.777   3.659 -0.2458  0.2023 -0.1227
18811W        W33942  10.132  12.435   0.932 -0.1686  0.1682 -0.1350
18812W        W33943   2.173  17.550  10.869 -0.4833 -0.0333  0.2006
18813W        W33944  18.182   6.258  13.415  0.0125 -0.2836 -0.1339
18814W        W33945   0.200  16.237  13.325 -0.0506 -0.0734 -0.1072
18815W        W33946   5.317   0.554  15.843  0.0770 -0.1669  0.1967
18816W        W33947   0.864  16.301  13.876  0.1684 -0.2748 -0.2523
18817W        W33948   4.222   5.892   2.545  0.0360 -0.0491  0.1242
18818W        W33949   5.934   8.619   0.872  0.1382  0.0509 -0.5061
18819W        W33950   8.007  18.387   4.913  0.0778 -0.0939  0.2833
18820W        W33951  17.336  11.094  11.774  0.1355  0.3492 -0.1732
18821W        W33952   9.387   4.108   4.968 -0.1330  0.0599  0.0256
18822W        W33953   5.545   2.210   4.574 -0.0030 -0.0162 -0.1788
18823W        W33954  17.237   3.080  12.312 -0.2044  0.1965 -0.2618
18824W        W33955  13.866   9.423  12.464  0.0935  0.2827  0.0558
18825W        W33956   7.650  12.613   3.410 -0.3120  0.2417 -0.0145
18826W        W33957  14.722   8.655   6.260 -0.0391  0.1006 -0.0289
18827W        W33958   6.942   8.030   0.905  0.3021 -0.2322  0.3471
18828W        W33959   5.772   4.563  10.530 -0.1150 -0.0287  0.1014
18829W        W33960  10.880   3.535   2.719 -0.0598  0.0211  0.3254
18830W        W33961   3.572   9.089  15.860 -0.2183  0.0556  0.1712
18831W        W33962   5.135  15.632  14.611 -0.1632  0.0233 -0.2473
18832W        W33963  17.479  16.264  14.675 -0.0203 -0.0814 -0.1271
18833W        W33964   5.136   4.115  13.811  0.0001 -0.0379  0.0845
18834W        W33965   4.871   4.695  13.730 -0.0206  0.2162  0.0849
18835W        W33966  11.528  14.375   4.175 -0.1944 -0.0350  0.0130
18836W        W33967  11.827  15.947  15.771 -0.7292 -0.3457  0.2523
18837W        W33968  10.453   1.961   1.235 -0.0885 -0.0627 -0.2718
18838W        W33969   7.417   0.390   1.793  0.2206 -0.1125  0.1404
18839W        W33970   6.164  11.405   0.465  0.1143 -0.3630  0.0875
18840W        W33971   3.340  13.391   0.697  0.3700  0.1951  0.2179
18841W        W33972   9.268   6.673  13.273  0.1987 -0.1407  0.1725
18842W        W33973  12.719   0.642   2.186 -0.0677  0.3592 -0.0132
18843W        W33974   5.459   1.617   3.140  0.0971 -0.3349 -0.2538
18844W        W33975  14.377  14.614  10.432  0.0769  0.0088 -0.0030
18845W        W33976  10.417  13.504  10.516 -0.0382 -0.0176 -0.3637
18846W        W33977   1.093  11.030   2.675  0.1979 -0.2628 -0.1625
18847W        W33978   6.345  15.290   0.306  0.1361 -0.2971  0.0121
18848W        W33979  16.846  18.162   4.818  0.0398 -0.0223  0.3695
18849W        W33980  10.863   4.054   0.348  0.3765  0.0502  0.3191
18850W        W33981  11.255   4.544   4.676 -0.4411  0.0826  0.2546
18851W        W33982  17.510  15.142  11.485  0.0891 -0.0167 -0.0326
18852W        W33983  13.989  18.501   2.982  0.0534 -0.3683 -0.0163
18853W        W33984   0.710  13.448   4.831 -0.0388  0.0344 -0.3770
18854W        W33985   9.270   4.829   3.436 -0.0746 -0.0637  0.1345
18855W        W33986  10.418   9.606   4.454 -0.2732 -0.0576  0.0295
18856W        W33987  18.403   3.952   4.233  0.1755 -0.2489  0.3433
18857W        W33988  14.824   2.492   4.178 -0.0931  0.0783 -0.3677
18858W        W33989   6.439   9.765   5.050 -0.0688  0.0277  0.3911
18859W        W33990  16.698   9.134  11.439 -0.1241 -0.0511  0.1278
18860W        W33991   1.495  15.984  15.388 -0.0552 -0.1215 -0.1079
18861W        W33992   6.293  13.185   1.256  0.1870  0.1423  0.0061
18862W        W33993  15.816   7.008   1.392  0.0726  0.0707  0.1271
18863W        W33994   3.637   1.477   4.975  0.2182 -0.0051  0.3242
18864W        W33995  17.418   1.171   0.820 -0.0373 -0.0275  0.2546
18865W        W33996  16.840   7.004   1.959  0.1594 -0.0974 -0.3709
18866W        W33997  12.700   5.239   2.580  0.0514 -0.1179 -0.0957
18867W        W33998  10.279   9.500   1.194  0.0966 -0.1755 -0.0291
18868W        W33999   8.252  14.972   4.433 -0.1120 -0.2067  0.0296
18869W        W34000   3.246   2.853  15.234  0.1259  0.1084  0.0927
18870W        W34001   1.404  16.421  14.904  0.1732  0.2252 -0.1062
18871W        W34002  10.754   4.209   3.355  0.2323 -0.1067 -0.1216
18872W        W34003   3.135  17.282   1.280 -0.1107  0.3156 -0.2035
18873W        W34004  16.550   4.075  15.349  0.2957  0.0438 -0.2496
18874W        W34005  14.624  12.440  14.630 -0.2088 -0.0264  0.4061
18875W        W34006   1.884   2.816   0.819  0.0409  0.1080  0.1801
18876W        W34007   6.925  13.252   3.754  0.1323 -0.0421 -0.1308
18877W        W34008   0.710   6.972   3.616 -0.2983 -0.1662 -0.1456
18878W        W34009   2.608  16.822   4.733 -0.3309 -0.0722 -0.0354
18879W        W34010  15.032   6.389  10.236  0.0086 -0.0630  0.1546
18880W        W34011  13.936   0.299   3.902 -0.1122  0.1521 -0.0826
18881W        W34012  17.650  17.059   4.312  0.2947 -0.1685  0.3090
18882W        W34013   9.384  15.368  10.528  0.2563 -0.1000  0.2669
18883W        W34014  12.465   9.112   4.256  0.1119 -0.1960 -0.2050
18884W        W34015   6.641  16.707  12.423  0.0424 -0.2208 -0.1881
18885W        W34016  15.533  12.452  13.338  0.0700 -0.1773 -0.4371
18886W        W34017   6.902   1.653   3.740 -0.0502  0.0640  0.1247
18887W        W34018  11.118   4.863   1.401  0.2736 -0.0586 -0.1376
18888W        W34019  11.769   3.196   5.105 -0.1492  0.0409  0.0631
18889W        W34020  13.768   2.746   5.067  0.0701  0.0412 -0.0813
18890W        W34021  14.451   4.439  10.380 -0.1035 -0.0617 -0.0899
18891W        W34022  15.401   5.472  10.189  0.1616  0.0118  0.0203
18892W        W34023   4.390   2.878   1.548  0.0727  0.2064  0.1252
18893W        W34024   9.963   6.278  15.828 -0.0562 -0.2535 -0.0715
18894W        W34025  10.649   7.591  11.165 -0.1784 -0.0998 -0.0116
18895W        W34026  10.188   8.520  12.558  0.0263  0.0499 -0.0115
18896W        W34027   5.735   9.590   0.933  0.0681  0.1380  0.1135
18897W        W34028   8.055   7.384   4.906 -0.0846  0.0536  0.0135
18898W        W34029   3.131  13.002   2.083  0.0881 -0.0213  0.0574
18899W        W34030   2.032   5.837   4.839 -0.1710  0.1783  0.1370
18900W        W34031   4.347  16.189   0.158  0.0968  0.2132  0.0877
18901W        W34032   2.230   4.674  15.796  0.1200  0.2485 -0.0567
18902W        W34033   7.801   9.777  15.180  0.0922  0.0028  0.1875
18903W        W34034  16.744   1.181  13.443  0.1653  0.0637  0.4276
18904W        W34035  15.418  15.286  12.242 -0.3665  0.0164 -0.0243
18905W        W34036  16.775   2.195   6.241 -0.0214 -0.1704  0.0861
18906W        W34037   2.136  11.665   3.132 -0.0280  0.1191 -0.0604
18907W        W34038  11.674  14.237  15.490 -0.1966  0.0487 -0.1943
18908W        W34039   0.188   4.957   0.525  0.1025  0.0179  0.0859
18909W        W34040   5.731   2.467   3.170  0.2950 -0.1402 -0.0310
18910W        W34041   0.768   4.672   3.128  0.3010  0.0445 -0.3469
18911W        W34042   7.142   4.040   1.989 -0.0049 -0.0661  0.0477
18912W        W34043   0.379   7.098   0.380  0.0429  0.0649  0.0105
18913W        W34044  18.322   8.122   4.563 -0.0535  0.0446  0.1358
18914W        W34045  11.030   1.440   0.214  0.0839  0.5304 -0.1442
18915W        W34046  11.745  13.781   4.177  0.0635  0.0773  0.2552
18916W        W34047  15.485   4.366   0.403  0.0584  0.1280  0.0793
18917W        W34048  13.247   2.411   3.232 -0.1432 -0.0736 -0.4181
18918W        W34049   8.745   5.520   6.148  0.2989  0.1191  0.3461
18919W        W34050   5.025  13.534  11.770  0.0801 -0.3475 -0.0132
18920W        W34051   9.375   6.511  15.830 -0.2552  0.0357 -0.0742
18921W        W34052  12.940  12.753   3.526  0.1951  0.0575 -0.0670
18922W        W34053   9.896  18.484   1.685 -0.2324 -0.1036  0.0583
18923W        W34054  12.655  16.229  14.142 -0.2184  0.2363  0.2563
18924W        W34055   8.357  15.867  13.719 -0.1040 -0.2342 -0.3087
18925W        W34056   1.812   4.167  14.084 -0.0572 -0.1705  0.0941
18926W        W34057   7.078   6.093  12.416 -0.1404  0.0743  0.2912
18927W        W34058  17.701  14.541   0.407  0.0273  0.0406  0.0180
18928W        W34059   0.691  16.144   3.950 -0.1965 -0.3813  0.0874
18929W        W34060   8.354   0.820   2.328  0.0519 -0.1785  0.0731
18930W        W34061   3.337  18.285   3.576 -0.2210  0.1787 -0.0041
18931W        W34062  12.514   3.278   0.630 -0.1489  0.3846  0.0786
18932W        W34063   0.549   4.476   5.709  0.2224 -0.0893  0.1559
18933W        W34064  11.174  16.428   4.210 -0.1329 -0.0899  0.1725
18934W        W34065  15.468  15.299  13.942  0.0372  0.0404 -0.1362
18935W        W34066  12.496   0.365   3.640  0.0590 -0.0762 -0.2079
18936W        W34067  11.355  10.094  14.645 -0.2363 -0.0342  0.3601
18937W        W34068   7.621   2.235   3.615 -0.0702 -0.0731 -0.1461
18938W        W34069  12.563   1.978   0.810 -0.1533  0.2678 -0.2661
18939W        W34070  10.684  13.012  12.586 -0.2010  0.2987  0.3711
18940W        W34071   3.244   8.853   2.666 -0.2450  0.1427 -0.0499
18941W        W34072   8.020   0.314   1.728 -0.0885 -0.0635  0.0249
18942W        W34073  13.452  10.648   5.205  0.1558 -0.2790  0.0335
18943W        W34074   0.882  15.103  11.685 -0.1671  0.0666  0.2386
18944W        W34075   6.188   9.384  11.680 -0.0298 -0.2296 -0.0577
18945W        W34076  14.570   2.252   5.564  0.0109  0.1451  0.0315
18946W        W34077   1.064   1.069  14.278  0.1591  0.2304  0.0423
18947W        W34078  14.462  16.546   5.161 -0.3391  0.2156  0.0957
18948W        W34079   7.963   6.860   5.914  0.4631 -0.0578  0.0653
18949W        W34080   0.031  17.587  11.006 -0.3880 -0.1722  0.0505
18950W        W34081   2.097  17.326  15.532 -0.1503  0.0533  0.2321
18951W        W34082  10.724   3.137   4.803  0.1776 -0.0255 -0.0065
18952W        W34083  11.307   6.780   2.744 -0.2788 -0.1396 -0.0547
18953W        W34084  15.884   0.496   4.635 -0.0518  0.4999  0.2541
18954W        W34085  15.727  12.351  11.523 -0.4123 -0.4984 -0.1641
18955W        W34086  13.584  11.062  14.000  0.1928  0.0159  0.0229
18956W        W34087   5.494   0.123   2.814  0.1530  0.1602 -0.0324
18957W        W34088  12.835   8.104  11.007  0.0308  0.0468 -0.0188
18958W        W34089   9.482   6.123   5.213  0.0113  0.0046  0.3123
18959W        W34090  17.025   1.422   5.446  0.0512 -0.1637 -0.0079
18960W        W34091  15.579   0.723   0.822 -0.1698 -0.0514  0.1477
18961W        W34092  12.582   8.046  13.783  0.3687  0.3681  0.2485
18962W        W34093   3.836  17.526   0.116 -0.1684 -0.1012 -0.0406
18963W        W34094   8.346   7.450  11.114  0.1110  0.2512  0.1269
18964W        W34095  11.464  11.622   1.474 -0.2757 -0.0213  0.2481
18965W        W34096   6.645  10.733   1.351  0.0062 -0.0484  0.0562
18966W        W34097   1.565   1.355  12.581 -0.0597  0.0681  0.1904
18967W        W34098   0.124  10.814  14.364  0.1769 -0.2517  0.0803
18968W        W34099  14.481  17.125   4.614 -0.0448 -0.0035  0.0356
18969W        W34100   2.536   0.887  13.090  0.1715  0.0885  0.0453
18970W        W34101   9.089   6.677   1.046 -0.1113  0.0467  0.1228
18971W        W34102   6.152   9.120  10.421 -0.1246 -0.0572 -0.0653
18972W        W34103  11.476  16.495   2.455  0.2304 -0.0618 -0.3210
18973W        W34104   3.097   6.111   0.988 -0.2107 -0.3476 -0.4500
18974W        W34105   1.970  17.137  12.038 -0.0377 -0.0194 -0.0891
18975W        W34106  16.767   8.090  10.398  0.0434  0.3089  0.0654
18976W        W34107  14.570   1.014  15.704 -0.0055  0.0792  0.0754
18977W        W34108   6.230   9.527  15.685  0.3985  0.0315  0.1278
18978W        W34109  14.146   7.221  15.279  0.0286  0.1852 -0.0977
18979W        W34110  11.500   1.492  12.777  0.2113  0.2711 -0.2887
18980W        W34111   3.487   4.377  11.181  0.1153 -0.1972  0.3564
18981W        W34112  15.032  14.189  14.267 -0.3409  0.2329  0.0157
18982W        W34113  14.565   2.358  14.110 -0.2337  0.2908  0.0694
18983W        W34114   6.345  11.054  13.265 -0.0119 -0.0298 -0.1743
18984W        W34115  10.841   2.417   1.078 -0.3104 -0.2442  0.1159
18985W        W34116  11.066   3.218  11.260 -0.3211  0.0741  0.0927
18986W        W34117   4.302   1.810   1.858 -0.2486  0.0873  0.2188
18987W        W34118   4.873   0.392   6.209  0.1016  0.0633  0.0197
18988W        W34119  11.139  12.017   3.766  0.3263 -0.2873  0.2261
18989W        W34120   6.126   0.553   3.138  0.0035  0.0564 -0.0971
18990W        W34121   5.684   1.764   3.653 -0.1640  0.2811  0.1233
18991W        W34122   8.457   9.151   2.676  0.0257  0.0972 -0.1683
18992W        W34123   0.367   0.678  10.562 -0.0409  0.2661 -0.0192
18993W        W34124  17.270   7.170   2.184  0.2148  0.0143  0.0092
18994W        W34125  14.351  13.282   4.092  0.0665 -0.1129 -0.1661
18995W        W34126   5.544  14.215  11.621  0.2543 -0.0345 -0.0476
18996W        W34127  14.431   5.370  12.409 -0.1592  0.0530  0.0584
18997W        W34128  13.095   3.728   5.825  0.0860 -0.2547  0.1655
18998W        W34129  11.209  17.664   1.449  0.1217 -0.0770  0.0934
18999W        W34130  17.255   9.460  13.239 -0.1754 -0.1115 -0.1578
19000W        W34131   1.751  16.996  15.684 -0.3056 -0.0342 -0.1722
19001W        W34132  10.230  12.524   1.596 -0.0130  0.2132  0.1441
19002W        W34133   9.231  11.582  11.601  0.0208 -0.1805 -0.3357
19003W        W34134   1.879  15.374   5.813 -0.1316 -0.1730 -0.2961
19004W        W34135   5.524   5.472  12.127  0.1615 -0.1137 -0.0503
19005W        W34136   2.997  12.089   2.599 -0.1436  0.0189  0.1176
19006W        W34137   7.517   5.385   5.197  0.1925  0.1690 -0.3175
19007W        W34138  10.108   6.851  15.645 -0.1768 -0.1098  0.0652
19008W        W34139  14.483  12.028  14.227 -0.0416 -0.1162 -0.0409
19009W        W34140   5.376  10.021   3.169  0.2494  0.0731 -0.1217
19010W        W34141   4.030  16.070  12.802  0.1575 -0.2514 -0.1799
19011W        W34142  11.755  14.183   4.594 -0.2662  0.0545 -0.0711
19012W        W34143  14.882  17.019  14.845  0.1051  0.0903 -0.1840
19013W        W34144  15.067   6.520  11.531 -0.0100  0.0965  0.0102
19014W        W34145   3.090   2.429   3.193  0.0619 -0.1423 -0.0678
19015W        W34146  11.127  14.767  15.344 -0.0906 -0.1309 -0.1513
19016W        W34147   1.403   2.715   2.026  0.5324  0.4121 -0.0995
19017W        W34148  15.276   0.161   5.116 -0.2962 -0.0846 -0.1633
19018W        W34149   3.741  17.590   0.595 -0.0288 -0.0680  0.1049
19019W        W34150   4.705   9.827   3.147  0.2249  0.2877  0.1929
19020W        W34151   6.370   0.016  15.552 -0.2167  0.0915 -0.2599
19021W        W34152   6.916   5.622  11.655  0.0712  0.0065 -0.2449
19022W        W34153   6.486  11.704   1.668 -0.1697 -0.2986 -0.1977
19023W        W34154   9.135   1.051  15.306  0.0085 -0.2153 -0.2511
19024W        W34155   0.671   1.458  15.865 -0.5861  0.1508  0.0013
19025W        W34156  15.544  12.081  10.524 -0.1511  0.0567 -0.0644
19026W        W34157  15.907  13.904   2.548 -0.1631  0.0393 -0.0351
19027W        W34158  11.321   1.266   5.409 -0.0762  0.2704  0.0054
19028W        W34159   5.695  10.291   4.068  0.3055 -0.0932  0.2392
19029W        W34160   3.802  10.688  10.220 -0.4839  0.2061  0.0466
19030W        W34161   6.829  12.820   4.390 -0.0424 -0.0847 -0.0666
19031W        W34162   2.678  14.943   5.546 -0.2521 -0.0439 -0.0013
19032W        W34163   0.128   9.273   0.816  0.0963 -0.3093  0.2829
19033W        W34164   6.100   9.400   2.116  0.0634 -0.2094  0.2541
19034W        W34165   8.704  10.561  12.127  0.2041 -0.3560  0.3562
19035W        W34166  10.021   4.735  11.590 -0.2289  0.2193  0.4892
19036W        W34167  14.453  18.503   2.292  0.1762 -0.0420 -0.3493
19037W        W34168  18.218   1.760   2.599 -0.2274  0.0702 -0.3154
19038W        W34169  11.429  14.153  14.279 -0.0878 -0.0565 -0.1253
19039W        W34170   1.631   1.393   4.790 -0.0708 -0.1915 -0.1146
19040W        W34171   1.481   8.923   0.935  0.0444 -0.3142 -0.0133
19041W        W34172  14.741   3.606  11.425  0.0972  0.1913  0.3072
19042W        W34173   0.289   6.178   0.982  0.0391 -0.1537  0.2865
19043W        W34174   8.208   5.259  11.530  0.2723 -0.0818  0.0576
19044W        W34175   3.302   8.376   3.434 -0.2787 -0.0975 -0.0645
19045W        W34176   4.656   8.478  14.124 -0.2468 -0.0465 -0.0027
19046W        W34177  11.283  12.162  14.375  0.0113 -0.1364  0.0251
19047W        W34178  10.446   6.758   2.154  0.0111 -0.1171  0.0720
19048W        W34179  15.615  17.213  13.536  0.4072  0.1152  0.3235
19049W        W34180  12.581  18.520  14.808 -0.2910 -0.2567 -0.2667
19050W        W34181   4.553  17.833  14.921 -0.0307  0.0605  0.0102
19051W        W34182  16.421   0.648   4.686  0.0847  0.1598 -0.1375
19052W        W34183  10.759   3.555  11.101 -0.2236 -0.3111 -0.1484
19053W        W34184   4.627  16.869  11.235 -0.0696 -0.0355 -0.2950
19054W        W34185  12.422   8.349   2.594  0.0687  0.2417 -0.1593
19055W        W34186  14.270  17.719   3.385 -0.1438 -0.0127 -0.1202
19056W        W34187  18.081   2.670  11.191 -0.0924  0.2523  0.0300
19057W        W34188  14.937   1.433  11.655 -0.1768 -0.3955 -0.1416
19058W        W34189   2.405   9.234   0.664  0.4186 -0.1027  0.3595
19059W        W34190  16.486  10.397  12.255  0.0276 -0.0802 -0.0543
19060W        W34191   9.241  13.887   3.998 -0.0451  0.0142  0.1699
19061W        W34192   4.944  14.284   0.105 -0.0434 -0.2522  0.6824
19062W        W34193  15.006  15.549  12.673  0.0572 -0.0642 -0.2028
19063W        W34194   4.257  10.588   2.956  0.0050  0.0374  0.0707
19064W        W34195  13.547  17.241  11.221  0.1041  0.1327  0.2278
19065W        W34196   1.099   5.178  14.939 -0.1103 -0.2310  0.1290
19066W        W34197   6.386   8.729  13.695  0.0631 -0.0232  0.0389
19067W        W34198   0.035  10.956   1.439 -0.0541  0.3167 -0.1955
19068W        W34199  12.102  12.419  12.252 -0.1067  0.2825  0.1848
19069W        W34200   1.413  15.754  11.561 -0.0213  0.2807 -0.0026
19070W        W34201   9.259  11.684   1.149 -0.0191 -0.0131 -0.0519
19071W        W34202  10.560   3.846  12.404  0.2004  0.2462 -0.0725
19072W        W34203   6.729   5.994   2.588  0.0093  0.0229 -0.1671
19073W        W34204   8.989   1.432   0.232 -0.2647 -0.1564 -0.0898
19074W        W34205   9.530   3.305   4.358  0.1466 -0.1404 -0.1814
19075W        W34206  10.681   4.717   3.522 -0.1783  0.4690  0.0549
19076W        W34207   5.248  15.649  11.434 -0.1351  0.1914  0.0499
19077W        W34208  15.632  13.332  14.832  0.3560 -0.0966  0.6661
19078W        W34209  13.789   7.951  11.636  0.2071 -0.2077 -0.2452
19079W        W34210  14.774   1.724   1.183  0.1124  0.0387 -0.0869
19080W        W34211   7.969  17.776   0.239 -0.0271 -0.3226  0.0109
19081W        W34212  10.316   9.372  11.618 -0.0327 -0.0245 -0.2005
19082W        W34213   3.433  16.380  11.946  0.2694 -0.0009  0.4274
19083W        W34214   6.273  16.365  12.554 -0.0880 -0.0105  0.5933
19084W        W34215  18.438   0.652   1.690  0.1218 -0.3544 -0.0574
19085W        W34216  15.638  10.278  11.766  0.4400  0.3741  0.0745
19086W        W34217   8.753  17.660  14.232 -0.1563  0.1878 -0.2578
19087W        W34218   3.022  14.472   2.607  0.0183 -0.3330  0.0713
19088W        W34219   6.595  11.346  11.212  0.0435 -0.3675  0.2211
19089W        W34220  17.478  10.764   6.267 -0.0371  0.0919 -0.0087
19090W        W34221   4.512  11.101  15.812 -0.1291 -0.0338  0.2864
19091W        W34222  15.327   5.049  12.268 -0.3030 -0.0008  0.0894
19092W        W34223   0.888   7.269   2.538  0.0516 -0.1681  0.1525
19093W        W34224   4.591  10.252  11.984  0.0935  0.0767  0.6082
19094W        W34225  13.568  14.740   0.442 -0.0851 -0.0680  0.0941
19095W        W34226   6.488  14.862   9.869  0.1403 -0.1666  0.3354
19096W        W34227  13.871   8.897  11.127  0.1641 -0.2859 -0.0066
19097W        W34228   5.216   6.797  10.037 -0.0775 -0.0120 -0.0807
19098W        W34229  13.763   1.129  11.770  0.3566 -0.0840 -0.0735
19099W        W34230   0.123   0.876  13.597 -0.3952  0.2067  0.1661
19100W        W34231  15.263  14.971   0.632  0.0917 -0.1633 -0.0848
19101W        W34232  12.617  14.860   3.048 -0.0478  0.0089  0.0185
19102W        W34233  12.057   0.920   5.631  0.0484  0.0749 -0.2103
19103W        W34234  14.198   9.871   5.030  0.1669  0.0029 -0.0845
19104W        W34235   0.928   1.080   3.114  0.3487  0.0058  0.1689
19105W        W34236   2.260  18.098   2.121 -0.1560  0.1617 -0.5037
19106W        W34237   2.292  17.382  11.465  0.3394 -0.3025 -0.2207
19107W        W34238   7.146  13.466  12.574 -0.2472  0.0891  0.3078
19108W        W34239  17.714  16.978   2.616 -0.0713  0.0192  0.2031
19109W        W34240   4.353   1.066  10.673 -0.0207  0.1519  0.1299
19110W        W34241   6.500   0.017   1.807 -0.5008 -0.1061  0.1150
19111W        W34242   1.255   4.933  10.532  0.0389  0.0137 -0.1182
19112W        W34243  14.446  13.306   2.411  0.0383 -0.1693 -0.1570
19113W        W34244   8.427   9.344   3.164  0.1652  0.1149  0.0608
19114W        W34245  11.742   8.951  15.799 -0.2174  0.2635 -0.3476
19115W        W34246  17.719  10.707  14.178 -0.1577 -0.1910  0.1066
19116W        W34247  18.058   6.360  12.559  0.1836  0.1005  0.0419
19117W        W34248  14.348   0.640   0.259  0.0870 -0.2993 -0.3230
19118W        W34249   5.840  11.474  15.547 -0.1405  0.3903 -0.1065
19119W        W34250   6.114  10.024   4.236  0.3359 -0.0074  0.0510
19120W        W34251  15.661   6.394  15.312  0.1093  0.1685 -0.0816
19121W        W34252   6.751   3.816   4.793 -0.1331  0.0620 -0.2095
19122W        W34253  10.677   8.445  12.410 -0.1879 -0.0464  0.3191
19123W        W34254  15.630   1.376   0.168  0.0864  0.0108 -0.0142
19124W        W34255   0.880   0.226  13.867  0.0956 -0.0339  0.1016
19125W        W34256  14.384   2.187   0.439  0.1211 -0.1461 -0.1619
19126W        W34257  11.432   2.459   2.145  0.1653 -0.0868  0.2382
19127W        W34258   6.907  15.959   1.383 -0.2784  0.0405 -0.2858
19128W        W34259  18.474   3.299  12.541 -0.1657  0.1768  0.0958
19129W        W34260   8.843  12.697  10.423 -0.0948 -0.0905  0.1363
19130W        W34261  11.109  11.501   2.496  0.1407 -0.1889  0.0657
19131W        W34262   1.993  17.189   1.941  0.1013  0.1180 -0.2401
19132W        W34263  17.574   3.089   4.584  0.0418  0.2072 -0.0739
19133W        W34264  16.181  14.618  13.769 -0.0545 -0.0122 -0.2303
19134W        W34265  16.765   2.584   0.428  0.0772 -0.3795 -0.0214
19135W        W34266   6.910   4.922  12.172  0.0466 -0.1789  0.0172
19136W        W34267  14.228  14.166  14.884  0.1411 -0.3669  0.0571
19137W        W34268  15.407  11.846  10.920 -0.1019 -0.3906  0.1221
19138W        W34269   8.104   7.331   2.120  0.1610 -0.1254 -0.0044
19139W        W34270  18.011  18.275   5.118 -0.0865 -0.1194 -0.0048
19140W        W34271   2.046  18.359   0.419 -0.0239  0.0578  0.1040
19141W        W34272   5.763   5.300  14.041  0.1791 -0.0860  0.1159
19142W        W34273  15.694   0.747  14.386  0.3462 -0.4240  0.1369
19143W        W34274   1.926  15.254  10.331 -0.0345 -0.1370  0.1685
19144W        W34275   4.266   6.220  12.885  0.3795 -0.1422 -0.0182
19145W        W34276  16.213   3.844  15.063  0.0497 -0.1592  0.0213
19146W        W34277  11.414   1.253   0.465 -0.0230  0.1509 -0.0658
19147W        W34278  18.071  13.955   6.635  0.0151  0.0815 -0.1708
19148W        W34279   8.041  16.423  12.954 -0.1439 -0.0049  0.5759
19149W        W34280  10.275  15.238   2.276 -0.3927 -0.0194  0.0186
19150W        W34281   9.011   7.875   3.875 -0.0172 -0.1347 -0.0361
19151W        W34282  18.207   2.613  12.235 -0.2185  0.1298  0.2454
19152W        W34283   9.865   7.052   1.993  0.0691  0.0231  0.2136
19153W        W34284   0.453   4.487  10.821  0.0407 -0.0892  0.0277
19154W        W34285  10.633  13.147   0.806 -0.0094 -0.2166 -0.2468
19155W        W34286   1.935   2.536  15.189 -0.1046  0.1374  0.0117
19156W        W34287  15.970  11.958  12.527 -0.2585 -0.3217 -0.1450
19157W        W34288  15.531  13.403  12.262  0.4685  0.2256  0.3550
19158W        W34289   9.650   5.055   4.416  0.1968  0.2048  0.2731
19159W        W34290   5.056  17.901  15.080  0.0449 -0.2512  0.1429
19160W        W34291   5.007  17.037  10.389  0.2067 -0.2944  0.2383
19161W        W34292   6.146   5.534   3.793  0.1470  0.0912 -0.3794
19162W        W34293   4.689  16.734   2.167 -0.1760  0.1117  0.0280
19163W        W34294   8.873   9.980   2.099  0.1851  0.0802  0.0875
19164W        W34295  14.774   0.846  15.291 -0.1809 -0.0703  0.2272
19165W        W34296   6.851  16.512   3.479 -0.1762 -0.0688 -0.4566
19166W        W34297   6.817  10.370   1.117  0.1971  0.1686  0.1275
19167W        W34298   7.762   9.347   1.675  0.3768 -0.1497 -0.0916
19168W        W34299   7.934  14.788  15.797  0.1535 -0.0578 -0.2767
19169W        W34300   6.186  11.943  11.706 -0.0092  0.0508  0.1595
19170W        W34301   9.609  13.609  11.299  0.0520 -0.1638  0.0993
19171W        W34302   9.550  13.722  15.560 -0.1222  0.1667 -0.1731
19172W        W34303   5.050   6.255   0.326  0.2034 -0.1471  0.0691
19173W        W34304   4.173   7.429   4.481  0.1907 -0.0052  0.1375
19174W        W34305   0.478  15.166   0.887 -0.4896 -0.3005 -0.0402
19175W        W34306  14.437   3.784   2.392  0.4253  0.1352 -0.4585
19176W        W34307  10.868  18.284   2.824  0.0077 -0.1239 -0.1054
19177W        W34308   1.151  11.517  12.736  0.0234 -0.1217  0.0498
19178W        W34309   2.827   9.484  15.182 -0.3871  0.2664  0.0754
19179W        W34310   4.538   7.246   3.930  0.1027  0.3440  0.0731
19180W        W34311  10.762  11.122   3.239  0.0292  0.1580 -0.1048
19181W        W34312   4.748   9.111   4.319 -0.2476  0.2014  0.1717
19182W        W34313   6.667   6.011   1.018 -0.0925 -0.0533  0.2251
19183W        W34314  10.966   2.376   3.081 -0.0259  0.1603 -0.0354
19184W        W34315  11.065   1.096  11.907  0.0515 -0.1801 -0.2742
19185W        W34316   9.387  18.050   5.026 -0.1765  0.1189 -0.1642
19186W        W34317   4.489   4.333  12.175  0.1073  0.2900 -0.0175
19187W        W34318  17.873  14.585   2.998  0.1681 -0.0253  0.0060
19188W        W34319  15.277  16.315   2.677 -0.1051  0.0044  0.3255
19189W        W34320   1.016  17.988  15.558  0.3637 -0.0717  0.1807
19190W        W34321  10.931  13.234   2.522 -0.4124 -0.0871  0.0028
19191W        W34322   9.270   9.425  12.539  0.0622 -0.2819  0.3784
19192W        W34323   2.580   3.481   4.619 -0.1890 -0.0328  0.0023
19193W        W34324  17.455  10.763   3.547  0.1568  0.1578  0.1324
19194W        W34325  13.700  11.853   2.459 -0.2611  0.0185 -0.2268
19195W        W34326   6.781  15.368  13.946  0.0386 -0.1707  0.0793
19196W        W34327   5.930  14.046   0.745  0.1002 -0.0672 -0.0157
19197W        W34328  14.726   2.056  15.364 -0.0443 -0.1249  0.0540
19198W        W34329  12.473   1.843   2.169 -0.0554 -0.1916 -0.0419
19199W        W34330  17.774  16.740  15.591  0.1809  0.2663 -0.0503
19200W        W34331  14.038  11.861   2.885 -0.1533  0.1703 -0.2664
19201W        W34332   8.841   8.087  14.983  0.1089 -0.1067 -0.1347
19202W        W34333   0.095  10.086  12.072  0.2679  0.1989  0.0671
19203W        W34334   8.902  12.240   4.936  0.2123  0.0550 -0.0885
19204W        W34335  13.218  15.918  12.598 -0.2803  0.0337 -0.0895
19205W        W34336  10.747   6.696  15.481  0.0215  0.0628  0.0801
19206W        W34337   8.620   1.061   5.184  0.1393  0.2093  0.1700
19207W        W34338  18.326   6.105   1.899  0.0289  0.0500  0.1367
19208W        W34339   4.503  14.145  10.957  0.0712  0.0146 -0.0374
19209W        W34340  16.148  16.651  11.607 -0.6107 -0.4226 -0.0123
19210W        W34341  14.464  16.027   5.102  0.0367  0.0064 -0.1317
19211W        W34342   2.633  12.800  12.330 -0.2749 -0.0864  0.0392
19212W        W34343  16.295  12.710  11.310 -0.0697 -0.0995  0.2060
19213W        W34344  13.399  17.914  11.830  0.2709 -0.1073 -0.0067
19214W        W34345  12.183   8.239   2.146  0.1198 -0.0367 -0.0180
19215W        W34346   2.768   7.397  13.649  0.0003  0.0950  0.0681
19216W        W34347   7.107  13.264  15.352 -0.1434  0.0479  0.0249
19217W        W34348   0.154   1.867   4.906  0.1011  0.2310  0.1106
19218W        W34349  13.926   3.786  11.127  0.0372  0.0405  0.2259
19219W        W34350   1.809   6.828   0.308 -0.0809 -0.0158  0.0842
19220W        W34351   7.737   7.593  14.910  0.1911  0.2392 -0.3357
19221W        W34352  17.851  17.905   1.761  0.0614  0.0136  0.3729
19222W        W34353   1.735  14.055   5.257  0.1444 -0.0312  0.2014
19223W        W34354   1.713  15.747  13.581  0.2209 -0.1640 -0.0690
19224W        W34355   1.689   4.626  11.431  0.1382  0.1967  0.2221
19225W        W34356   8.585   2.883   1.575 -0.4619  0.0029 -0.0427
19226W        W34357  17.881  15.027   3.355 -0.2341 -0.2746 -0.1307
19227W        W34358  15.949   6.556   1.553  0.0692 -0.0131  0.1173
19228W        W34359  11.620   3.964   2.942 -0.2371 -0.0879  0.0417
19229W        W34360  12.079  10.731   3.404 -0.0960 -0.0298 -0.3478
19230W        W34361  13.073   0.214  11.450 -0.3997  0.3261 -0.0911
19231W        W34362  15.834   5.384   3.264 -0.1505  0.0674  0.0892
19232W        W34363  12.351   8.910  13.668  0.2849  0.1086 -0.1036
19233W        W34364   6.578  10.486   0.655 -0.1451  0.0170 -0.0653
19234W        W34365   3.986   2.063   2.730 -0.3232  0.4460 -0.1435
19235W        W34366  11.268   0.491  12.594 -0.1235  0.0289  0.4863
19236W        W34367   5.850   5.752   1.632 -0.2546  0.0100 -0.0473
19237W        W34368  15.170  16.902   1.395  0.1806  0.1997  0.2360
19238W        W34369   0.710   9.344  10.957 -0.3000  0.0311 -0.3436
19239W        W34370   4.842  14.129  12.933  0.4923 -0.0872  0.0690
19240W        W34371   2.575   1.459  11.018  0.1205 -0.1248 -0.0455
19241W        W34372  12.031  14.505  14.560 -0.0792 -0.2267  0.0529
19242W        W34373   1.561   3.867   1.530 -0.1037  0.0793  0.0255
19243W        W34374   3.254   1.387   2.811  0.1742  0.1904 -0.2361
19244W        W34375   7.286  13.009   3.480  0.0467 -0.0090 -0.4131
19245W        W34376   5.349  13.907   3.578  0.1337  0.1062  0.1318
19246W        W34377  11.702   5.309   2.462 -0.3301  0.1821  0.2942
19247W        W34378  11.798  15.658  11.810  0.4098  0.3181 -0.1081
19248W        W34379   7.040   8.235  10.766 -0.1337 -0.0860  0.1984
19249W        W34380  10.068  12.461   4.544  0.0705  0.0640 -0.0621
19250W        W34381  16.058  17.675  10.186  0.1828 -0.4280 -0.1059
19251W        W34382   4.096   0.775  14.765  0.0284  0.0874 -0.0026
19252W        W34383   7.775  18.137  11.477 -0.0169 -0.0613 -0.0960
19253W        W34384   0.410   4.389  14.715 -0.1491  0.1242  0.2525
19254W        W34385  17.017   4.844   2.439 -0.0703 -0.2702  0.0525
19255W        W34386  12.512   2.488  11.720  0.3126 -0.0687  0.0665
19256W        W34387   7.176   9.840   0.066  0.2790 -0.2541 -0.1736
19257W        W34388   3.066  18.503   4.296  0.1376 -0.3366 -0.1543
19258W        W34389   8.412   8.573  14.493 -0.0561  0.0039  0.0579
19259W        W34390   8.477   2.163  10.416  0.3062  0.3129 -0.3450
19260W        W34391  10.527   8.873  11.636 -0.1658 -0.2829 -0.1380
19261W        W34392  12.661  17.612  11.110  0.2441 -0.0607  0.1974
19262W        W34393   0.984   7.422  13.549 -0.0756 -0.2027  0.0141
19263W        W34394  15.691   4.175   0.022 -0.1264 -0.0067 -0.4178
19264W        W34395  17.681  11.760   2.934  0.1095 -0.0369  0.2509
19265W        W34396   2.546   4.825  10.930  0.1250  0.2706  0.0165
19266W        W34397   3.644   8.092  11.722  0.0182  0.0061  0.0623
19267W        W34398  11.985   7.953  11.168  0.1111  0.0013  0.0750
19268W        W34399  16.752  10.184  13.670 -0.1308  0.0645  0.1957
19269W        W34400   2.116   0.909  13.924  0.0086  0.2242  0.0449
19270W        W34401  17.807  15.952  11.907 -0.3357 -0.0166 -0.1376
19271W        W34402  12.611  13.024   3.001  0.0166  0.1020  0.2190
19272W        W34403   9.174  17.389   4.820  0.2946 -0.1818  0.1335
19273W        W34404  10.408   7.093   2.533 -0.0283 -0.2972  0.4039
19274W        W34405  15.619   8.125   3.233 -0.0282 -0.0297  0.0359
19275W        W34406  14.991   4.585  15.214  0.2352 -0.0431  0.0958
19276W        W34407   2.479   3.715  14.642 -0.0082 -0.0111  0.0490
19277W        W34408  11.904  16.262   0.950 -0.2062  0.2278 -0.3395
19278W        W34409  16.234   0.168   4.535 -0.5600  0.0266  0.2976
19279W        W34410  14.094  17.981   5.158  0.0406 -0.4358 -0.0512
19280W        W34411   3.898  15.520  13.796  0.0947  0.0702 -0.3066
19281W        W34412   2.706   8.141  12.554  0.0883  0.1826 -0.0499
19282W        W34413   7.084  13.716   2.728  0.1196 -0.1063  0.0437
19283W        W34414  11.396   3.293   0.628 -0.0423  0.2097 -0.0444
19284W        W34415   8.808  16.745  13.510  0.1467  0.3701 -0.1450
19285W        W34416  14.936  10.106  11.046  0.0508  0.0446 -0.1652
19286W        W34417  17.820   1.374  12.780  0.0564 -0.1455  0.0030
19287W        W34418  18.053  14.917  13.881 -0.1169 -0.0787  0.3020
19288W        W34419  15.427   0.482  13.035  0.1899 -0.1796  0.0434
19289W        W34420   8.582   6.033  12.705 -0.2114 -0.2634  0.0836
19290W        W34421   9.868  16.226  14.395  0.0579  0.0955 -0.0935
19291W        W34422  10.074   4.369   4.300 -0.0339 -0.0071  0.3239
19292W        W34423   9.888  13.194  15.113 -0.1116  0.2635 -0.2632
19293W        W34424  12.753  11.778  11.019 -0.2147 -0.0529  0.0995
19294W        W34425   5.359  10.722  10.790 -0.0191  0.1699  0.0322
19295W        W34426  13.320   6.141  12.587 -0.3316  0.3177  0.5128
19296W        W34427  13.884   3.185   1.681 -0.0667 -0.0240 -0.1380
19297W        W34428   1.888   6.795   3.871 -0.5239  0.0926 -0.0135
19298W        W34429   3.705   3.656  15.639  0.1135  0.0622 -0.0413
19299W        W34430  13.849   3.791   0.897  0.0353  0.0399  0.2086
19300W        W34431   8.484   6.995   4.434  0.0307 -0.0532 -0.1837
19301W        W34432   6.687  16.766  10.012  0.1697 -0.1354  0.5062
19302W        W34433  13.865  17.406   1.906  0.1934 -0.2669 -0.1819
19303W        W34434  16.798  16.516  15.276 -0.1531  0.3301 -0.1594
19304W        W34435   6.809  13.952  10.120  0.3448 -0.3171 -0.1844
19305W        W34436   7.170  10.706  11.083 -0.1424 -0.4312  0.0267
19306W        W34437   3.763  14.528  13.421 -0.1856  0.1971 -0.1201
19307W        W34438   9.347   6.865  12.590  0.0739  0.1330  0.2843
19308W        W34439  13.244  17.677   3.672 -0.3372 -0.2793  0.1315
19309W        W34440  13.937  11.408  13.029  0.1246  0.1211  0.1446
19310W        W34441   4.845   5.857   5.170 -0.1240 -0.1457 -0.2961
19311W        W34442   2.484  12.374  10.901  0.1183 -0.0240  0.1448
19312W        W34443   7.580   8.993   1.983 -0.3789  0.0161  0.1912
19313W        W34444   5.474   0.220  11.433 -0.0826 -0.2246 -0.1152
19314W        W34445  17.222   2.296   4.878  0.1632  0.0186  0.2350
19315W        W34446  16.225   8.897  11.489 -0.1184  0.3208 -0.2349
19316W        W34447   8.857  17.758  14.953 -0.0094 -0.0373  0.0094
19317W        W34448  14.553  17.227  14.506  0.1475 -0.1392  0.0420
19318W        W34449   6.031  10.444  15.531 -0.3865  0.1685 -0.1067
19319W        W34450  16.296   2.433   4.111  0.1003  0.0884  0.1752
19320W        W34451  12.787  13.722  11.330  0.0775  0.0974  0.0298
19321W        W34452   9.721   5.331  14.451  0.0921  0.1110 -0.0193
19322W        W34453  10.054   7.889   4.786 -0.0876 -0.0696  0.0715
19323W        W34454  13.171  10.103   3.558  0.0545 -0.2496 -0.0800
19324W        W34455  16.991  16.975   0.059 -0.0999  0.0236  0.0574
19325W        W34456  11.826   1.347   5.546  0.1016  0.1667  0.3365
19326W        W34457  15.293   3.372   1.768  0.2061 -0.2483  0.0805
19327W        W34458  16.275   4.098   4.164 -0.0018 -0.2674  0.0081
19328W        W34459  13.026   1.975   4.666  0.0553  0.0568  0.0046
19329W        W34460  12.798   4.418   3.707 -0.0842  0.1769 -0.4454
19330W        W34461  12.922   0.552  10.676 -0.2417 -0.2242  0.2546
19331W        W34462   7.029  13.421  11.397  0.1006 -0.1188  0.4730
19332W        W34463   9.767  16.313  11.774  0.0418 -0.2804  0.0090
19333W        W34464  12.055   9.958  14.589  0.3158  0.0812 -0.2058
19334W        W34465   0.443  11.519  14.444 -0.1502  0.0389 -0.3238
19335W        W34466   5.174  10.902   2.720  0.2606 -0.1330 -0.0547
19336W        W34467  10.805   0.889   3.752 -0.1402 -0.1941  0.0807
19337W        W34468  11.326  14.033  11.454  0.1840  0.3917 -0.0637
19338W        W34469  14.461   3.200  11.047 -0.0510 -0.2344  0.0927
19339W        W34470   2.439   4.672   0.369 -0.1009  0.1085  0.0024
19340W        W34471   5.088  15.576  15.528 -0.0525 -0.1113  0.0174
19341W        W34472   5.361   9.329   1.213 -0.0660 -0.0688  0.1802
19342W        W34473   6.665   5.559   4.653 -0.1689  0.0782 -0.2257
19343W        W34474  18.008  13.153   4.141 -0.0009  0.2162 -0.1050
19344W        W34475  13.750  15.485  14.329  0.1000 -0.0914 -0.1780
19345W        W34476  16.991   4.254  15.082  0.1073 -0.2415  0.0136
19346W        W34477  17.983  10.535   2.065 -0.0803  0.1589  0.2373
19347W        W34478   2.063  13.149  14.316  0.1074 -0.1465  0.0211
19348W        W34479   3.052  16.546   5.041 -0.0671 -0.0182  0.0569
19349W        W34480  11.719  11.593   5.536 -0.1911  0.4069 -0.0515
19350W        W34481  16.867  16.990  15.495  0.1355 -0.4040 -0.0392
19351W        W34482  17.994   5.179   5.047 -0.1533 -0.2745 -0.2519
19352W        W34483   1.982  14.404   6.043 -0.1284  0.2096  0.1906
19353W        W34484   4.719  18.107   5.560 -0.0826 -0.0732 -0.0162
19354W        W34485  13.290   2.822  11.257 -0.1789  0.4062 -0.3432
19355W        W34486   0.079  10.388   5.620 -0.0738  0.3145  0.1027
19356W        W34487  17.519   6.303  12.615  0.1586 -0.0625 -0.0150
19357W        W34488   6.812   3.855   1.448  0.0596  0.1012  0.1053
19358W        W34489  13.075  13.132   2.076  0.1171  0.0673  0.1111
19359W        W34490  16.429  18.446   5.030  0.3018 -0.0169 -0.2948
19360W        W34491   9.007   3.623  14.562 -0.1870 -0.0216  0.2600
19361W        W34492  13.327  12.864  12.538  0.4436 -0.1327 -0.0614
19362W        W34493   5.308  16.436  14.751  0.1520 -0.0106 -0.0234
19363W        W34494  15.210  12.987  15.515  0.2118 -0.2246  0.2723
19364W        W34495   8.574  18.403  15.059 -0.1281  0.0265  0.1017
19365W        W34496  13.221  15.346  14.039  0.0121  0.1097  0.1778
19366W        W34497  13.302   5.688  11.805  0.0247  0.1307  0.1708
19367W        W34498   2.704  14.123  14.810 -0.0706 -0.1160 -0.2626
19368W        W34499   5.659   4.627   0.221  0.0247 -0.1338  0.0814
19369W        W34500  17.031   3.725  13.186 -0.1295 -0.1276  0.0314
19370W        W34501   1.139  16.775   2.352  0.1740  0.1244  0.3860
19371W        W34502  13.157   2.743  14.412  0.2883 -0.1157 -0.3291
19372W        W34503   2.369  12.507   2.023 -0.0133  0.2807  0.1333
19373W        W34504   6.429  12.828  13.391  0.2105  0.0843 -0.0701
19374W        W34505   7.642  14.386   0.509  0.2069  0.1615  0.3371
19375W        W34506   7.732  16.284  14.341 -0.2187  0.1149  0.2149
19376W        W34507  10.976   0.966   0.680 -0.0668  0.4640  0.1932
19377W        W34508  12.147   9.462   4.541  0.0980 -0.1562  0.2232
19378W        W34509  13.855  16.917  11.691  0.0217 -0.2071 -0.0426
19379W        W34510   6.489   3.015   4.366 -0.1392 -0.0217 -0.4154
19380W        W34511  13.063  13.242  13.009 -0.0942 -0.0784  0.1264
19381W        W34512  12.846  11.681  14.609 -0.1781 -0.2290 -0.0830
19382W        W34513  16.778   1.386  14.951  0.1680  0.2184 -0.0886
19383W        W34514  13.670  13.849  12.055 -0.2518  0.0361  0.1821
19384W        W34515  17.771  15.643   3.856  0.0803  0.0578  0.0122
19385W        W34516   9.355   8.591   2.453  0.0788 -0.0336  0.1761
19386W        W34517   5.052  10.408   5.017 -0.0881 -0.0404  0.0085
19387W        W34518  16.855   3.163   3.827 -0.0504 -0.1429  0.2775
19388W        W34519   4.133  16.541   5.516 -0.0602 -0.0861 -0.1976
19389W        W34520  12.688   5.553   1.164  0.3644  0.0696  0.1809
19390W        W34521  12.498   9.697  14.112  0.2823 -0.0997  0.0305
19391W        W34522  16.251   0.443  15.119  0.0944 -0.0930 -0.1008
19392W        W34523   9.430  14.389  13.783 -0.1249 -0.1532 -0.0011
19393W        W34524  12.555   0.829  11.492 -0.2160 -0.3238  0.3815
19394W        W34525  10.627   3.833   4.145  0.0428 -0.2988 -0.0979
19395W        W34526   0.845  10.258   5.267 -0.2005 -0.1386 -0.1334
19396W        W34527   1.177   3.793   4.604  0.2831  0.3340 -0.1037
19397W        W34528  13.400   4.405   5.373  0.0438  0.1946 -0.2425
19398W        W34529  13.854   6.253   4.065  0.1630  0.1305 -0.0364
19399W        W34530  18.448   5.980  12.417  0.1174 -0.0227 -0.0097
19400W        W34531   1.313  11.959   2.768  0.0628 -0.2555  0.1751
19401W        W34532  13.093   3.964   3.565 -0.2461  0.0221  0.0124
19402W        W34533   1.300   4.681  10.042 -0.0509 -0.1326  0.5161
19403W        W34534   9.208  15.347   1.368  0.2818  0.0736 -0.1349
19404W        W34535  11.972   2.059   1.961 -0.0629 -0.2110  0.0784
19405W        W34536  13.684  15.970   5.582 -0.1190 -0.1808 -0.1912
19406W        W34537  15.009   9.621  15.526 -0.0837  0.2681  0.0615
19407W        W34538   4.504  11.504   0.756 -0.2119 -0.2192 -0.1464
19408W        W34539  14.975   2.819  12.249  0.2408  0.2799  0.5909
19409W        W34540  10.932   4.882  13.065  0.1916 -0.0380  0.0162
19410W        W34541   3.116  16.485   4.459  0.0883 -0.0471  0.3807
19411W        W34542   2.814  10.409   1.006  0.0174 -0.5832 -0.3222
19412W        W34543  13.562  11.483  10.972 -0.0166  0.0702 -0.0762
19413W        W34544  12.939   9.806  11.164 -0.1735 -0.2269  0.2499
19414W        W34545   7.031  17.751   2.198 -0.0665 -0.0436  0.0733
19415W        W34546  11.313  16.355  10.702 -0.1801  0.0363  0.0339
19416W        W34547   7.836   0.187  10.881  0.1111 -0.0717  0.1113
19417W        W34548  15.039   0.074  15.422  0.2169  0.4379  0.1115
19418W        W34549  13.500   7.671  15.240  0.0899  0.0540  0.0751
19419W        W34550  11.909   4.311  10.528  0.0939  0.0808 -0.0344
19420W        W34551  17.249  17.127   6.136  0.0715 -0.2336 -0.0728
19421W        W34552  10.754  11.347  14.952 -0.1411  0.4688  0.0350
19422W        W34553   2.077   7.015   0.829  0.0325  0.0856 -0.3797
19423W        W34554   3.768   8.507  13.873  0.0368 -0.3798  0.1728
19424W        W34555  17.411  17.515  13.017  0.1829  0.2863 -0.0352
19425W        W34556   7.731   1.961  13.559 -0.0234 -0.3787  0.4337
19426W        W34557   1.552   4.503   9.659  0.0021 -0.4080  0.2283
19427W        W34558  12.380  16.339   2.557  0.1982  0.0540  0.4068
19428W        W34559   0.398   4.900  13.431  0.0993  0.1238 -0.1951
19429W        W34560  14.945  17.925  13.579 -0.1601 -0.1411  0.4787
19430W        W34561   9.805  17.381   4.283 -0.2944 -0.1413 -0.0256
19431W        W34562  14.459   1.274   5.443 -0.1165  0.1576  0.0172
19432W        W34563  17.564   2.852   3.315 -0.3494  0.3270  0.2447
19433W        W34564   7.468  14.653  14.221 -0.2949  0.3991  0.0394
19434W        W34565   8.113  11.478  15.863  0.2954 -0.0473  0.1892
19435W        W34566  15.196  12.841  13.177  0.2615 -0.2013  0.1825
19436W        W34567   8.194  10.556   0.050  0.0892  0.3954  0.3299
19437W        W34568  14.413   2.955  14.956 -0.0703  0.2732 -0.0084
19438W        W34569  11.326  14.784   0.146 -0.0020 -0.1369  0.2111
19439W        W34570   3.585   0.164  13.339  0.3399 -0.0344  0.1165
19440W        W34571   5.395   8.467  15.815  0.2037  0.1118  0.0544
19441W        W34572   8.557   1.715   4.678 -0.5730  0.2252 -0.0570
19442W        W34573   7.899  10.181  12.375 -0.3085  0.1197  0.0534
19443W        W34574  13.425   1.213   3.598 -0.0192 -0.3399  0.2249
19444W        W34575  12.870   7.697   0.285 -0.1053  0.0059 -0.0441
19445W        W34576   7.552  16.820   0.692 -0.3550 -0.0482 -0.0171
19446W        W34577  12.937  18.461   1.551  0.2154  0.1385 -0.4424
19447W        W34578   0.670  12.398   3.083 -0.2909 -0.0186  0.0575
19448W        W34579  15.123   5.446  14.098  0.0777  0.3272  0.0677
19449W        W34580   5.639  13.778   2.979  0.1575 -0.1140  0.1587
19450W        W34581   1.026   7.290   4.920 -0.1108  0.0680  0.0209
19451W        W34582   8.228   4.012  10.800 -0.5506  0.0450  0.0789
19452W        W34583   6.274  16.898   0.500 -0.1461  0.1662 -0.4205
19453W        W34584   0.895  13.274  15.880 -0.1556  0.2595  0.1947
19454W        W34585   5.163   3.299  14.986 -0.0271  0.1058 -0.0820
19455W        W34586   4.565   5.301   3.491  0.1539  0.1267  0.0016
19456W        W34587   7.561  15.368   9.937  0.1852 -0.0490  0.1287
19457W        W34588   4.417  17.038   0.392  0.1405  0.0198  0.0223
19458W        W34589  18.333   5.930  11.843 -0.1279 -0.2513  0.3031
19459W        W34590   5.489  17.396  11.099 -0.1292  0.3705  0.1160
19460W        W34591  10.192   1.910   5.822  0.0403  0.3276  0.1561
19461W        W34592  11.993   1.619   3.554  0.2738  0.0090 -0.0235
19462W        W34593  12.855  18.416  12.722 -0.0016 -0.0807  0.0303
19463W        W34594   9.846   0.389  12.446  0.0896 -0.1011  0.0180
19464W        W34595  10.630   5.555  12.019  0.2247 -0.2083  0.0445
19465W        W34596  10.310   9.321  15.207 -0.2956  0.0533  0.2144
19466W        W34597  14.554   8.664   1.878  0.2043 -0.1651  0.2835
19467W        W34598  10.457   0.300  13.492  0.0594  0.3617  0.0914
19468W        W34599   7.138   1.978   3.467 -0.0225  0.1655  0.3654
19469W        W34600   4.677  10.359  13.716 -0.0706 -0.0576  0.0392
19470W        W34601   2.877  11.186   3.565  0.1957  0.0348  0.0223
19471W        W34602   6.262  17.660  12.639 -0.0448 -0.1616 -0.0303
19472W        W34603  16.074   1.745   0.208 -0.1214 -0.0645 -0.0840
19473W        W34604  14.160   6.558  13.565  0.1864 -0.2934 -0.2278
19474W        W34605  12.125  17.604  13.724 -0.0536 -0.0429 -0.0218
19475W        W34606   2.844   8.494  11.144  0.1199  0.1641  0.1536
19476W        W34607  17.303   8.467   3.680 -0.2113  0.1152 -0.0578
19477W        W34608  16.119   1.625   3.833 -0.0094 -0.0045 -0.1621
19478W        W34609  16.002  11.502  12.317  0.2349 -0.0775  0.1126
19479W        W34610  10.212   5.999  11.715 -0.1596  0.2808  0.0897
19480W        W34611   2.643  14.289  14.271  0.3070  0.3375 -0.1598
19481W        W34612   5.700   0.797  12.846  0.0156  0.2137 -0.0292
19482W        W34613   8.282  11.850   4.319  0.2549 -0.0612  0.3462
19483W        W34614   3.063   4.368   5.636  0.1225  0.1615  0.0400
19484W        W34615   8.639  10.619   2.861  0.3649  0.3027  0.0379
19485W        W34616   8.827   0.370   0.727 -0.0143  0.2574 -0.0240
19486W        W34617   6.095   4.528   1.658 -0.2571 -0.0615  0.1311
19487W        W34618   5.200   1.886   4.694  0.1108  0.1712  0.1465
19488W        W34619  12.497   9.423   3.612 -0.0835 -0.0637  0.2491
19489W        W34620  17.808   5.866   3.686  0.2375 -0.0235  0.0335
19490W        W34621   9.478   5.938   1.374 -0.2357 -0.2286 -0.0104
19491W        W34622  10.714   4.925   4.465 -0.0525  0.2288 -0.1023
19492W        W34623  17.104  15.979  13.210 -0.2472  0.1325 -0.1264
19493W        W34624  12.933   9.663  13.781  0.2321 -0.3471 -0.1707
19494W        W34625   6.580   2.344   1.749 -0.1158 -0.1135  0.0038
19495W        W34626   3.115  10.366   1.563  0.0333  0.0936  0.2034
19496W        W34627  14.467   4.682  12.093  0.1913  0.3383 -0.0867
19497W        W34628  13.824  16.788   3.977  0.0699 -0.0319  0.0702
19498W        W34629   3.630   6.409  15.745 -0.0048  0.0748 -0.1508
19499W        W34630   5.326  11.802   1.976 -0.0066  0.1914 -0.1040
19500W        W34631  16.708   2.486  14.745 -0.0053  0.3953  0.0659
19501W        W34632   4.281   0.865  12.273  0.0690 -0.3198  0.2355
19502W        W34633   9.703   6.022   3.674  0.0072 -0.0452  0.3966
19503W        W34634   1.342   7.604  10.299  0.1411  0.0968 -0.0073
19504W        W34635   5.525   5.996  11.032  0.2630 -0.1004 -0.3040
19505W        W34636  14.991   9.601   1.057 -0.0530  0.1765 -0.3028
19506W        W34637   0.122  17.334   0.558  0.3251  0.2785 -0.0623
19507W        W34638  10.280   6.234  10.861  0.6569 -0.1347 -0.0274
19508W        W34639   2.532  17.316  13.883  0.4920 -0.3330  0.0303
19509W        W34640  16.571   9.251   4.212  0.2233  0.1358 -0.0114
19510W        W34641   3.157   7.284  11.389  0.0675  0.1016 -0.0123
19511W        W34642  16.836   6.631   4.542 -0.2236 -0.0516  0.0332
19512W        W34643  17.204  14.280   2.891 -0.0571 -0.0176 -0.1196
19513W        W34644  11.496   4.429   2.876  0.0650 -0.2665  0.0852
19514W        W34645   8.748   2.075   4.985  0.0624 -0.1317 -0.1600
19515W        W34646  12.658   3.096  10.467 -0.0510  0.0119  0.1587
19516W        W34647   1.462  17.689   4.083  0.0555  0.0365  0.1055
19517W        W34648   9.492   3.674  11.225 -0.1861 -0.2157  0.0747
19518W        W34649   5.007  13.842   0.296 -0.0856 -0.0622 -0.2838
19519W        W34650  15.304   1.154   0.536  0.1050 -0.2413  0.0212
19520W        W34651  12.217   3.301  14.218 -0.2114  0.0332 -0.1132
19521W        W34652  17.237  15.745   1.466 -0.0003 -0.2116 -0.2652
19522W        W34653  11.798  12.008  13.646  0.2470 -0.0058  0.2584
19523W        W34654  10.118   4.549  12.049  0.0602  0.0360  0.1313
19524W        W34655  17.253   7.460   2.580  0.0140 -0.1191  0.0319
19525W        W34656   7.804  12.739  15.471 -0.4520 -0.2168 -0.2765
19526W        W34657   0.306  13.853   6.136 -0.3738 -0.0708  0.1620
19527W        W34658  15.132   8.802  14.087 -0.1571  0.2060 -0.1217
19528W        W34659  12.923  17.818   2.703  0.3718  0.2006  0.1609
19529W        W34660   4.854   3.327   3.049 -0.2319 -0.0874  0.4420
19530W        W34661  17.197   8.559   2.097  0.0617 -0.2562  0.0245
19531W        W34662   4.450  16.600   4.530 -0.3247 -0.2178 -0.1137
19532W        W34663   3.259   3.614  14.831  0.1051 -0.1931  0.2250
19533W        W34664  14.400  13.664  13.318 -0.2234  0.0702 -0.1384
19534W        W34665  18.386   3.158   1.063 -0.1212 -0.0111  0.1058
19535W        W34666   5.621  13.042   0.011  0.2525 -0.0285  0.2632
19536W        W34667  15.702   9.427   5.636  0.0256 -0.5418 -0.0516
19537W        W34668  13.887   5.634  11.348  0.1899  0.2956  0.0476
19538W        W34669  11.213  16.463  14.424 -0.0691 -0.0081  0.2020
19539W        W34670   5.335  11.534  14.613 -0.0310 -0.2092 -0.0210
19540W        W34671   9.842   7.425   0.711 -0.0383  0.3602 -0.1334
19541W        W34672   6.069  13.894  13.999 -0.1131  0.0095 -0.2029
19542W        W34673   3.040   3.635   2.959  0.1953  0.0239  0.0295
19543W        W34674   8.260   2.389  14.785  0.1167  0.0346 -0.0345
19544W        W34675   0.106   4.887   9.681  0.1292  0.0895  0.2000
19545W        W34676   1.859   6.332   0.402  0.1648  0.1857 -0.1644
19546W        W34677  10.702   9.279  13.022  0.1448 -0.3883  0.3362
19547W        W34678   9.050  13.081  11.581  0.3320  0.1053  0.0170
19548W        W34679  14.670  14.222   0.700  0.0158 -0.2294  0.0969
19549W        W34680   0.580  16.667   0.513  0.1634  0.1480  0.2242
19550W        W34681   2.285  11.995   3.549  0.0630  0.2500  0.1334
19551W        W34682   8.070  13.331  15.380 -0.1390 -0.2661 -0.3012
19552W        W34683  17.579  15.443   2.579  0.0461 -0.0324 -0.1159
19553W        W34684   6.847  10.964  12.212  0.0637 -0.3282 -0.1226
19554W        W34685   2.701   9.991  12.867 -0.1928  0.1408 -0.0567
19555W        W34686  13.490   7.471  11.596 -0.1369 -0.3398 -0.2106
19556W        W34687  14.541  13.264   3.295 -0.1243 -0.0851  0.3097
19557W        W34688  13.381  10.053  12.073 -0.1402  0.1164 -0.1036
19558W        W34689  14.687  16.980  10.029 -0.0241 -0.0676 -0.2301
19559W        W34690   4.760  13.916   3.537 -0.1639  0.4567 -0.1145
19560W        W34691   3.701   0.945  12.850 -0.0036 -0.0008  0.1190
19561W        W34692  14.218  14.596   5.305  0.0682 -0.0660 -0.2233
19562W        W34693   4.287  14.946  12.702 -0.2390  0.0577  0.0338
19563W        W34694  12.871  16.573  12.658 -0.3662  0.3712 -0.0188
19564W        W34695   1.324  11.106   5.459  0.0750 -0.0614 -0.2863
19565W        W34696   2.770  15.898  14.439  0.2127 -0.0268  0.0320
19566W        W34697  13.284   7.963  11.456 -0.3494 -0.1241 -0.1464
19567W        W34698  12.750   9.291  13.018 -0.2652  0.2999  0.2882
19568W        W34699  15.584   4.472  15.564 -0.0732  0.0181 -0.0458
19569W        W34700   2.778  15.417   2.072  0.0832  0.2905 -0.2508
19570W        W34701   7.315   5.860   1.242  0.1129 -0.2374 -0.2026
19571W        W34702  13.166   2.221  10.529 -0.1768  0.2398  0.1257
19572W        W34703   3.073  13.185  11.881 -0.1818  0.3042  0.2923
19573W        W34704  14.905   0.289   3.014 -0.0221 -0.0773  0.1313
19574W        W34705  17.415   9.519  14.800 -0.2916 -0.2015 -0.0667
19575W        W34706   9.619   7.285   1.598 -0.1566  0.1448  0.1210
19576W        W34707   8.316   9.251  15.424  0.0350  0.2390  0.2854
19577W        W34708   1.400  11.451  10.882  0.1099 -0.2499  0.4064
19578W        W34709  17.785  11.854  10.678  0.0945 -0.1780 -0.3241
19579W        W34710  18.456   8.650  11.583  0.1235  0.1565 -0.0764
19580W        W34711   8.080  16.729  14.170  0.0607  0.0437  0.2501
19581W        W34712   5.729   8.736  15.024 -0.1916 -0.3232  0.1229
19582W        W34713   2.216  15.045   4.550 -0.0384  0.1460  0.1458
19583W        W34714   1.803  11.123  13.359 -0.0056 -0.0726 -0.0319
19584W        W34715  10.142   3.918   4.857  0.4371 -0.1882  0.0162
19585W        W34716   8.759  13.887   1.495 -0.1406  0.0986  0.3712
19586W        W34717   7.213   1.122   5.535 -0.4656 -0.0070  0.0450
19587W        W34718  14.810   4.487   3.047  0.1536 -0.1947 -0.2069
19588W        W34719   0.466  12.320  11.813 -0.0939  0.1853 -0.0415
19589W        W34720  17.265   6.222  13.076  0.0318 -0.2752  0.2879
19590W        W34721  14.109   8.813   0.424  0.0014  0.1447 -0.1064
19591W        W34722  11.190   3.973  15.468 -0.1280 -0.2581  0.2571
19592W        W34723  18.130   0.378  11.955 -0.1496  0.2519 -0.1057
19593W        W34724  14.133  10.184  15.482 -0.0180 -0.1572 -0.2735
19594W        W34725   6.626  13.769   1.300  0.1946  0.0155 -0.2824
19595W        W34726   7.620   5.726  12.994 -0.1666 -0.1936 -0.1385
19596W        W34727   7.154   7.317  14.296  0.3305 -0.0771  0.4845
19597W        W34728  13.641   8.866   1.204 -0.0348 -0.1986  0.1596
19598W        W34729  11.711  14.305   2.079  0.1545  0.0981 -0.2760
19599W        W34730  11.990   6.322  13.356 -0.0851  0.3130 -0.1085
19600W        W34731   8.160   1.073   0.413 -0.2154  0.2945  0.2540
19601W        W34732   3.019   5.202   9.650 -0.0247 -0.2924  0.0091
19602W        W34733   3.528  10.000   4.115 -0.1895 -0.3448  0.1888
19603W        W34734   4.839  17.028   4.169  0.0394  0.3101  0.1528
19604W        W34735  14.100   1.988  14.622  0.0995  0.0527 -0.1794
19605W        W34736  12.393   6.682  11.418 -0.1083 -0.0450  0.3166
19606W        W34737   9.515   5.050  13.140 -0.1400  0.0444  0.0236
19607W        W34738  11.408   6.769  15.548 -0.0876 -0.1836 -0.0821
19608W        W34739   8.805  11.111   5.728 -0.2092 -0.1257  0.1348
19609W        W34740   7.053  10.614  15.223  0.0547 -0.1369  0.0344
19610W        W34741  13.621  16.300  13.871  0.0138  0.0661 -0.3102
19611W        W34742   5.149   4.984   1.032  0.1347  0.2448 -0.1334
19612W        W34743   4.656  10.959   4.404 -0.0040  0.1577  0.0651
19613W        W34744   6.870   0.731   3.816  0.1501  0.0144  0.3833
19614W        W34745  16.347   8.270   2.682  0.1104 -0.0476  0.1832
19615W        W34746   3.389  10.390   3.336  0.0648  0.0682  0.1094
19616W        W34747  12.132  11.291  12.706  0.0672 -0.1379  0.2269
19617W        W34748   4.418   0.439  15.112  0.0255  0.1220 -0.0872
19618W        W34749   9.635  17.295  10.513 -0.0653  0.1159 -0.1607
19619W        W34750   9.648   2.428   3.290 -0.1143  0.0427  0.2932
19620W        W34751  11.635   5.108   1.449  0.1405 -0.2387 -0.0359
19621W        W34752  15.494  11.735  15.209  0.2587 -0.1289  0.0343
19622W        W34753   4.834  10.324   3.642 -0.0159 -0.2804 -0.0442
19623W        W34754   1.617   6.323   5.928  0.1959  0.0057  0.1305
19624W        W34755   5.787  15.004  15.559 -0.4386 -0.0343 -0.0918
19625W        W34756   5.361   1.961  11.904 -0.0903 -0.2472 -0.0327
19626W        W34757  12.233   2.707  12.562 -0.3616 -0.2013  0.1144
19627W        W34758   5.295   1.667   2.194 -0.0887  0.0927  0.1903
19628W        W34759  13.395  15.519   0.138  0.4027 -0.0285 -0.2714
19629W        W34760   4.788  11.560   4.064 -0.3272 -0.1316 -0.0046
19630W        W34761   8.517  12.007   5.752 -0.1013 -0.1009 -0.1160
19631W        W34762   9.572  16.714  14.117 -0.1528 -0.1062 -0.2193
19632W        W34763  17.018   3.210   0.799 -0.3735  0.0814 -0.3918
19633W        W34764   2.326   3.122   1.116  0.3094  0.0612  0.0696
19634W        W34765  15.866   3.931   5.003  0.0413  0.2968  0.0229
19635W        W34766   4.413   7.376   5.392 -0.5332  0.0920 -0.0360
19636W        W34767   6.007   6.395   4.089  0.1594 -0.0155  0.0613
19637W        W34768   1.232   0.105  13.454  0.0067 -0.3109  0.0799
19638W        W34769  17.996  11.138   0.220 -0.1802 -0.3908  0.1713
19639W        W34770  10.614   3.444  15.325  0.1244  0.0784 -0.1616
19640W        W34771  18.420   4.344   3.470  0.2173  0.3131  0.1974
19641W        W34772  11.054   0.666  13.402  0.2370  0.1757  0.1392
19642W        W34773   4.346  16.782  15.827  0.0733 -0.0471 -0.1247
19643W        W34774   5.179   6.035   4.717 -0.1893  0.1846 -0.1002
19644W        W34775  15.723  10.605   3.573  0.2911  0.1080 -0.1316
19645W        W34776   0.326   7.986  13.349 -0.3152  0.1221  0.3656
19646W        W34777  12.295  13.194   1.285  0.2208 -0.0409 -0.0933
19647W        W34778  13.661   8.014  15.597  0.2883 -0.0557  0.0551
19648W        W34779   5.345  15.458  15.102 -0.1075 -0.1009  0.0936
19649W        W34780  11.795   8.899  11.957 -0.2571 -0.2594  0.3917
19650W        W34781   2.588  16.970   3.818  0.0099  0.2993 -0.3106
19651W        W34782  18.069  16.446  15.346  0.2669  0.2391 -0.1150
19652W        W34783   8.308   3.024   4.247  0.0854 -0.2395  0.3957
19653W        W34784   3.465   5.275   1.581  0.0525  0.3436  0.1685
19654W        W34785  16.294  18.450   1.421  0.1664  0.0533 -0.0638
19655W        W34786  16.808   0.334   4.736  0.0514 -0.0363 -0.3078
19656W        W34787   7.205  11.157  11.906  0.0107  0.0815  0.1260
19657W        W34788   7.549  14.437   1.399 -0.0072  0.0593  0.2739
19658W        W34789   8.470  17.713  11.533 -0.1138  0.0549  0.1231
19659W        W34790  17.808  13.364   0.709 -0.3713 -0.0385  0.0452
19660W        W34791  13.166  12.525   4.540 -0.1529  0.0034  0.0419
19661W        W34792   4.946  10.036   4.558  0.2301 -0.1578 -0.0293
19662W        W34793  17.068  10.343   5.400 -0.1783 -0.0009  0.2820
19663W        W34794  15.729  10.410   1.406 -0.2045 -0.0094 -0.1821
19664W        W34795   8.260   3.410   3.635  0.0174  0.1092 -0.2276
19665W        W34796   2.462   0.422  12.335 -0.1096 -0.0821  0.3624
19666W        W34797   0.102  10.294   2.392  0.0272  0.0426  0.1247
19667W        W34798  17.117  14.135  15.206 -0.0758 -0.0543 -0.0152
19668W        W34799   1.474   3.594   5.291  0.2028  0.1974 -0.0117
19669W        W34800   0.019   4.170  13.029 -0.2017  0.1067 -0.1810
19670W        W34801   0.316   5.273  14.565 -0.3266  0.0499  0.0408
19671W        W34802  14.135   8.398   3.281 -0.0615 -0.1206 -0.0183
19672W        W34803  11.060  12.935   3.384  0.2226  0.2412 -0.0206
19673W        W34804  10.546  10.949   2.617 -0.0634  0.1865  0.2305
19674W        W34805   0.109   2.653  15.031  0.1142  0.0533  0.2815
19675W        W34806   4.912   4.449  10.685  0.0751 -0.0226  0.1421
19676W        W34807   7.505   7.108  14.084  0.2071  0.2687 -0.0392
19677W        W34808  11.257   0.345   0.252 -0.3930  0.2803 -0.2438
19678W        W34809   0.110   9.992  15.522 -0.3806  0.1861  0.0048
19679W        W34810   7.146  16.859  11.083  0.1505  0.0576  0.0763
19680W        W34811  12.197   7.433  14.671  0.0425 -0.0428 -0.3821
19681W        W34812  13.450   4.167   1.996 -0.1993  0.1462 -0.0572
19682W        W34813   6.577   1.560   0.534  0.2155  0.1955  0.0885
19683W        W34814   8.428  13.668  13.392 -0.2281 -0.0918  0.0733
19684W        W34815  13.704   2.552   3.951 -0.1968 -0.0070 -0.1455
19685W        W34816  15.552   8.263  14.149  0.0213  0.0927  0.3721
19686W        W34817  15.607   5.701   5.402  0.1198  0.2219  0.0648
19687W        W34818   2.014  14.891  12.395 -0.1169 -0.0154  0.1854
19688W        W34819  15.337  12.184   1.490 -0.0887  0.0122 -0.0620
19689W        W34820  10.573  12.230   3.148 -0.0066 -0.3082  0.2178
19690W        W34821   8.862  12.794   0.245  0.4209 -0.0719  0.0361
19691W        W34822   6.536  10.320  14.457  0.0822 -0.4299 -0.3392
19692W        W34823  14.379   9.763  14.500  0.0213 -0.2063  0.3024
19693W        W34824   5.761  16.877   4.052 -0.0460 -0.0199  0.3676
19694W        W34825  12.796  15.752   4.111  0.4321  0.1893  0.2087
19695W        W34826   5.082   7.370   2.155 -0.3025 -0.0624 -0.2212
19696W        W34827  11.081   1.154  13.701  0.0495  0.1070 -0.2896
19697W        W34828   2.341   7.620  13.520  0.0008  0.1513  0.0703
19698W        W34829   1.519  10.814  15.257  0.1538 -0.1440  0.0733
19699W        W34830   4.328  12.891  13.196 -0.1108 -0.0506  0.2250
19700W        W34831  10.721  15.003   4.409 -0.1162  0.0828 -0.0853
19701W        W34832   4.556   3.307   2.052  0.2736 -0.2053 -0.0360
19702W        W34833   8.707  11.761  12.483 -0.2169 -0.0028  0.1891
19703W        W34834   8.100   3.094  11.641  0.0075  0.2743  0.1673
19704W        W34835   8.982   9.415   2.623  0.3719  0.0722  0.0435
19705W        W34836   0.554   0.869   0.135  0.2451 -0.0614 -0.0175
19706W        W34837  12.853  14.196  11.027 -0.0080 -0.1027 -0.3367
19707W        W34838   7.000  12.758   3.886 -0.0723  0.0883 -0.2842
19708W        W34839   9.639  18.121  14.706 -0.0437  0.0631 -0.0043
19709W        W34840   7.860  12.847  10.874 -0.1107  0.1663  0.0985
19710W        W34841   3.169  11.824  14.236  0.0995 -0.3510 -0.0788
19711W        W34842   3.170   8.340   4.336  0.1246 -0.0038  0.1360
19712W        W34843  16.920   9.403  14.647  0.2172  0.0588 -0.1954
19713W        W34844  18.520  13.874  15.625 -0.0467 -0.0017 -0.1922
19714W        W34845  14.931   0.080  11.290 -0.1002 -0.0547  0.2007
19715W        W34846  16.905  13.168   0.980 -0.0615 -0.1744 -0.1079
19716W        W34847   0.450   1.889  14.451  0.2445 -0.5122 -0.0107
19717W        W34848   1.126  14.891   2.867 -0.1059 -0.0779 -0.0391
19718W        W34849  15.096  12.920   5.014 -0.1424  0.1903 -0.0304
19719W        W34850  16.078  17.472   5.339 -0.2370 -0.0549 -0.2795
19720W        W34851   5.960  12.883  10.771  0.1732  0.3546  0.1982
19721W        W34852   4.500  13.268   1.293  0.1778 -0.0781 -0.3059
19722W        W34853   7.894   4.434  13.605  0.1070 -0.1491 -0.1171
19723W        W34854   4.219   7.280   3.575 -0.3406  0.0195  0.1901
19724W        W34855   6.836   6.493   3.064 -0.2601  0.1424  0.0121
19725W        W34856  18.427   4.712  10.992 -0.0374 -0.3084 -0.1338
19726W        W34857   5.316  11.638   1.078  0.1572 -0.0555 -0.0507
19727W        W34858  11.029   8.998   1.833 -0.1519  0.4329  0.1808
19728W        W34859   1.432   9.716   1.581 -0.3922 -0.2900 -0.3089
19729W        W34860  14.104  11.202  14.207 -0.0506 -0.0708 -0.1224
19730W        W34861   9.648   8.724   2.840  0.0463 -0.1113  0.0274
19731W        W34862   8.616   9.730   2.829  0.2137 -0.0682 -0.2052
19732W        W34863  18.516   8.194  14.076 -0.1318  0.1971  0.0292
19733W        W34864  17.424  12.767  14.895  0.1726  0.1315  0.0424
19734W        W34865  17.560  15.692   3.276  0.2834  0.1171  0.0283
19735W        W34866   7.448   4.602  13.793  0.0738 -0.0651  0.4906
19736W        W34867  14.440   9.127   2.773 -0.1172  0.1349 -0.1739
19737W        W34868   4.075   2.633  11.631 -0.3206  0.1811 -0.5470
19738W        W34869  15.716  15.645   4.274 -0.2287  0.0366  0.1000
19739W        W34870  15.985   9.413   2.037  0.0079  0.0749  0.1951
19740W        W34871  13.298   8.882  13.740  0.1261  0.1472  0.0288
19741W        W34872  12.083  12.899   4.514  0.0422 -0.2289 -0.5695
19742W        W34873   9.110   4.403  12.091 -0.0740  0.3760  0.0137
19743W        W34874  18.457   5.104   3.118  0.2013 -0.0679  0.0879
19744W        W34875  17.988   5.227  13.782  0.0733  0.2487 -0.2941
19745W        W34876   6.179  11.245  13.744 -0.1837 -0.2630  0.1055
19746W        W34877   8.087  17.567  14.483 -0.0063  0.3194  0.0669
19747W        W34878  17.720  17.927  11.492  0.4915  0.0868  0.0567
19748W        W34879   1.575  16.627  11.971 -0.3183 -0.2242  0.4269
19749W        W34880   8.626   6.959   5.457  0.1003 -0.1431  0.1307
19750W        W34881   9.431   8.518   0.858 -0.0130 -0.0816  0.0843
19751W        W34882   0.506   3.706   3.893 -0.1379  0.0381 -0.1619
19752W        W34883   9.663  14.426  10.705 -0.4100  0.0268  0.2364
19753W        W34884  17.712   5.066  14.716  0.0672 -0.0609 -0.0731
19754W        W34885  16.351  13.398  10.308  0.0932  0.1461 -0.4123
19755W        W34886   3.454  11.858  11.946  0.1540  0.0747  0.0153
19756W        W34887  13.979   6.753   1.669 -0.1499 -0.0303 -0.0402
19757W        W34888  13.895  15.385  15.802  0.1975  0.1126 -0.3525
19758W        W34889   2.274   7.318   3.816  0.1824 -0.1068  0.1306
19759W        W34890   1.423   0.748  15.203 -0.1716 -0.0173  0.1710
19760W        W34891   5.331   7.993   3.261  0.3940 -0.5098 -0.2153
19761W        W34892   9.310   2.180  14.701 -0.3592 -0.3000  0.0971
19762W        W34893  10.605   0.985   4.970  0.0521  0.0188 -0.1615
19763W        W34894  15.261   5.774  12.561 -0.0288 -0.2921 -0.0710
19764W        W34895  12.009   5.118  12.312  0.0180 -0.2270 -0.0332
19765W        W34896  18.072  15.769  12.650 -0.1914  0.3527 -0.1495
19766W        W34897  13.851   0.755   2.336  0.3757  0.0155  0.1571
19767W        W34898   9.349  10.215  14.545 -0.3584  0.1490  0.3335
19768W        W34899   3.198   4.335  12.244 -0.1094  0.1250 -0.1127
19769W        W34900   2.825  11.143  14.947  0.1191  0.0625 -0.1340
19770W        W34901   9.657  14.038  14.488  0.1091  0.1124  0.2605
19771W        W34902   6.926  13.553   2.200  0.0393 -0.2239  0.0439
19772W        W34903  14.388   0.341  14.574  0.1116  0.0318 -0.1073
19773W        W34904  18.395  17.923  14.926 -0.1848  0.1329 -0.1138
19774W        W34905  10.102  16.759   4.873  0.0823 -0.1015  0.0976
19775W        W34906   0.454   5.232   1.366  0.1895  0.1612 -0.1768
19776W        W34907   8.590  16.812  12.133 -0.1720  0.1960 -0.1450
19777W        W34908   8.981   5.777  11.330  0.2076  0.1551  0.2806
19778W        W34909   8.232  12.511   0.946 -0.2924 -0.3260  0.1048
19779W        W34910  17.317   9.992  11.859 -0.2400  0.3521 -0.1769
19780W        W34911   7.949  16.053  13.398  0.1621  0.0495 -0.0653
19781W        W34912  12.083  10.718  10.078 -0.0797  0.2258 -0.0291
19782W        W34913   9.641  14.523  12.423 -0.0864 -0.0041  0.4537
19783W        W34914   7.672   0.613   3.188 -0.1993 -0.0832  0.2838
19784W        W34915  13.425   4.062  11.209 -0.0640  0.2020 -0.3031
19785W        W34916  18.369  16.011  13.555 -0.0715 -0.1122 -0.3553
19786W        W34917  17.084   5.536  13.330 -0.1246 -0.0616  0.2911
19787W        W34918   3.971   0.578  13.684 -0.1381 -0.2503 -0.1958
19788W        W34919   0.767  14.862  13.326  0.1624  0.1405  0.2113
19789W        W34920  13.916   8.304  13.453  0.1544  0.2952 -0.2093
19790W        W34921   9.337   3.341  12.219  0.1500  0.0916  0.2080
19791W        W34922  12.269  13.516  13.456 -0.0404 -0.0330  0.1638
19792W        W34923  14.442  16.663   1.793  0.0113  0.3883 -0.1712
19793W        W34924  12.092  16.774   0.162  0.2541  0.0875  0.3604
19794W        W34925   8.220  11.327  13.383 -0.0822  0.3397 -0.2019
19795W        W34926   1.959   2.644  11.648 -0.4165  0.0403  0.0257
19796W        W34927   6.765   4.282  15.698  0.0994 -0.3225  0.0411
19797W        W34928   6.245  11.566   5.125 -0.0346 -0.1098 -0.0558
19798W        W34929  16.797   2.647  12.301  0.0470 -0.2013  0.0467
19799W        W34930  18.220   5.408  12.885 -0.0953  0.1497  0.1519
19800W        W34931   9.086   2.367  11.358  0.1305  0.1606  0.1165
19801W        W34932   1.902   3.118  13.966 -0.4447 -0.4677  0.3562
19802W        W34933  10.048  10.311  13.882 -0.2075 -0.4928  0.1767
19803W        W34934   6.105   0.657  12.605 -0.1108  0.1482 -0.0668
19804W        W34935   0.016   5.194  15.021  0.2670  0.2961 -0.2612
19805W        W34936  18.487   4.298   0.279  0.1076  0.1308  0.1008
19806W        W34937   0.335   0.088   4.792 -0.0716 -0.0146 -0.0463
19807W        W34938  14.165   2.238   3.022  0.1509 -0.0339  0.0125
19808W        W34939   5.791   7.363   2.510  0.0716  0.0611 -0.0467
19809W        W34940  14.788   3.679   5.177 -0.4592  0.2341 -0.0665
19810W        W34941  16.665   9.987   1.054 -0.1345  0.0242  0.1417
19811W        W34942  16.383   1.168  15.174 -0.0066 -0.0490  0.1131
19812W        W34943  10.138  12.360  12.127 -0.1208  0.0168 -0.0431
19813W        W34944   6.299   0.594  15.112 -0.1194 -0.0154  0.4694
19814W        W34945   7.556  15.401   4.128  0.0894 -0.1598 -0.1712
19815W        W34946  18.187   6.396   0.134 -0.1253  0.2865 -0.0680
19816W        W34947  17.817   3.959   5.660 -0.0869 -0.4570 -0.1097
19817W        W34948   9.873   6.323  11.865  0.0259 -0.0804 -0.0128
19818W        W34949   5.318   8.811  14.528  0.0279  0.0184 -0.0577
19819W        W34950   4.391  17.461   4.646  0.0825  0.1213  0.2332
19820W        W34951  18.068   2.822   1.352  0.0114 -0.2434 -0.0593
19821W        W34952   9.802   9.434   1.059  0.2081 -0.0176 -0.2672
19822W        W34953   6.561  11.753   0.672  0.0494 -0.2000 -0.0331
19823W        W34954   4.856  11.468  11.005 -0.2126  0.0697 -0.0467
19824W        W34955  17.059   8.826  13.233 -0.0618  0.1059 -0.2212
19825W        W34956  13.377  14.365  14.700 -0.0614  0.2014  0.2955
19826W        W34957  11.291   1.612  11.772  0.1917 -0.1771 -0.0467
19827W        W34958   5.965   2.291  15.267 -0.2661  0.1864  0.0716
19828W        W34959   5.202   9.670   1.573  0.0184 -0.0948  0.1109
19829W        W34960  15.484  12.434   3.217 -0.2692  0.2792 -0.0324
19830W        W34961   2.492  13.903   3.398  0.0166 -0.1032 -0.1860
19831W        W34962   1.568   6.091  15.095 -0.4587  0.1869 -0.1141
19832W        W34963   5.039   0.145   5.792 -0.0523 -0.0162 -0.0952
19833W        W34964  18.441  15.095  11.956  0.0348  0.2391  0.0690
19834W        W34965  15.079   6.506   0.173 -0.0346 -0.3101  0.0777
19835W        W34966  14.235   8.610   5.412  0.3527  0.1419  0.0308
19836W        W34967  16.462  17.022  12.884  0.0203  0.1757  0.0201
19837W        W34968   0.264  12.452  12.989  0.0993 -0.2391 -0.2374
19838W        W34969   8.765   2.797   4.350 -0.1192 -0.1714  0.1943
19839W        W34970  11.541  16.067   2.033  0.4370  0.2973 -0.0353
19840W        W34971   4.740  16.253   4.656 -0.0428 -0.3431  0.2180
19841W        W34972   6.273   8.925   2.664 -0.6382  0.0707  0.1727
19842W        W34973   2.979   3.925  12.826  0.0214 -0.0356  0.2828
19843W        W34974  17.849  14.497   3.507 -0.0651 -0.1025 -0.1695
19844W        W34975  17.700   6.803  11.815 -0.2448  0.1593  0.0825
19845W        W34976  10.753   8.095  13.584  0.0940  0.0304 -0.0044
19846W        W34977   4.345  10.813  12.388 -0.0124  0.1246  0.0587
19847W        W34978   3.767  15.079   0.805  0.0805 -0.0071  0.0536
19848W        W34979   9.893  13.249   2.883 -0.3546  0.0914  0.3049
19849W        W34980   9.776  16.509   3.274  0.1987 -0.1151 -0.1386
19850W        W34981   5.842   0.355  15.156 -0.0145  0.1473 -0.0339
19851W        W34982   4.209  15.751  14.678 -0.0154 -0.1163 -0.2128
19852W        W34983   9.476  17.147  13.820  0.1964  0.0321 -0.1015
19853W        W34984  10.253   9.135   0.201  0.0532 -0.1037  0.0766
19854W        W34985   9.950  13.120  14.536  0.0329  0.5530 -0.1276
19855W        W34986  16.454   8.888  12.367 -0.0545 -0.2419 -0.0376
19856W        W34987  11.307  17.315   3.098 -0.3477 -0.4297  0.0987
19857W        W34988  12.715   5.421   4.232  0.2130 -0.2023  0.3832
19858W        W34989   5.929  12.628   4.317 -0.1195 -0.2431 -0.1794
19859W        W34990  12.672  10.190   3.470 -0.0074 -0.1028  0.0705
19860W        W34991  16.695  12.937   2.832 -0.0320 -0.1045  0.1047
19861W        W34992  11.088  10.013  14.204 -0.1454 -0.0838  0.2478
19862W        W34993   6.883   3.599   3.129  0.1180  0.1027 -0.3422
19863W        W34994   6.023  11.950   1.532  0.2703  0.2018 -0.0298
19864W        W34995   3.317   9.972  15.885  0.0713  0.2508 -0.0294
19865W        W34996  17.075  17.105   5.289  0.0487 -0.1134  0.0662
19866W        W34997   3.163  10.485  15.250  0.0820 -0.0785 -0.2834
19867W        W34998   8.022  16.671  12.148 -0.4308 -0.0590 -0.0911
19868W        W34999   9.355   2.238  11.781  0.3133 -0.0152  0.1256
19869W        W35000   1.217   5.451   2.837 -0.2673  0.2834 -0.1234
19870W        W35001   4.522  13.016  15.396 -0.1984 -0.0898 -0.5115
19871W        W35002  17.788  15.743   1.309  0.7197  0.2150  0.0034
19872W        W35003  15.651  12.741   9.438 -0.1501 -0.1525  0.2245
19873W        W35004   5.555  17.452  13.237  0.2213  0.2349  0.1796
19874W        W35005   3.330  10.072   1.908 -0.2061  0.0165  0.0296
19875W        W35006   0.591   5.924  15.464  0.0739 -0.0918  0.0667
19876W        W35007   3.785  13.954  14.812  0.1238  0.2708 -0.4143
19877W        W35008   2.619   0.704  11.745 -0.1848  0.1341  0.0883
19878W        W35009   0.866  18.379   4.650  0.3594 -0.1865 -0.0166
19879W        W35010  17.267   0.166  12.224 -0.3638  0.0189  0.0695
19880W        W35011  10.615   8.620  14.505  0.0071  0.1932 -0.1387
19881W        W35012   6.775  10.890  13.079 -0.1698 -0.0112  0.2205
19882W        W35013  14.496   0.595  12.910 -0.1676  0.3497 -0.1672
19883W        W35014  17.349  12.265  14.893  0.4451 -0.0463 -0.3414
19884W        W35015   0.123   3.363  11.109  0.4542  0.0700  0.2592
19885W        W35016   9.930  14.421  14.685  0.0789 -0.0376  0.0998
19886W        W35017  10.655  11.311  11.118 -0.2727  0.1603 -0.0487
19887W        W35018  15.879   0.661  13.918  0.1132  0.0194 -0.1805
19888W        W35019   7.370  16.161  14.032 -0.2344  0.0753 -0.2632
19889W        W35020  14.195  10.824   5.871  0.0554  0.0592 -0.0155
19890W        W35021  18.375   9.677  11.120  0.0368 -0.4605 -0.1448
19891W        W35022   0.231   1.234  12.609 -0.0653 -0.2630  0.0930
19892W        W35023  16.288  16.685   1.976  0.0226  0.1390  0.0639
19893W        W35024  15.570   7.584   4.668 -0.0910 -0.1134  0.0399
19894W        W35025  14.982  10.073  13.053  0.1704  0.0411  0.1584
19895W        W35026  13.747   3.479  13.957 -0.0316 -0.0308  0.0940
19896W        W35027   9.359   6.959  14.670  0.1275  0.0385  0.1799
19897W        W35028   6.378  17.803   3.745 -0.2317 -0.0029  0.1184
19898W        W35029   3.631  13.980   4.254  0.0570 -0.2889 -0.2714
19899W        W35030  12.791  13.445   4.762  0.2320  0.3253  0.1550
19900W        W35031   6.752  11.861   2.836  0.1790 -0.3275  0.2425
19901W        W35032   7.317  16.061   5.371 -0.1167  0.1733 -0.1741
19902W        W35033  17.983  10.391   1.137  0.3895  0.2448  0.0787
19903W        W35034  17.201  17.416  14.098 -0.0249 -0.1744 -0.1440
19904W        W35035  13.566   7.222  13.009 -0.3098 -0.0507 -0.0842
19905W        W35036  18.302  14.920   1.487 -0.0973  0.2598 -0.0847
19906W        W35037  14.139   4.421   1.844  0.2242  0.1846  0.0454
19907W        W35038   1.296  16.504  14.106 -0.0980 -0.0392  0.0670
19908W        W35039   8.925  13.719   0.553 -0.0465  0.3362 -0.0819
19909W        W35040  11.749  13.766  15.271 -0.2560 -0.0904  0.0386
19910W        W35041  13.415  17.822  13.220  0.0547 -0.0072 -0.1192
19911W        W35042   2.645   1.705   1.663  0.1598  0.3813 -0.1046
19912W        W35043  17.949  17.275  15.876  0.2059  0.1021 -0.0686
19913W        W35044   0.751  16.289   5.082  0.3393  0.1652 -0.4422
19914W        W35045  13.566   0.100   4.285 -0.2116 -0.2698  0.0201
19915W        W35046  16.492  11.614   2.561 -0.1016 -0.3930 -0.4314
19916W        W35047   4.083  14.169  14.286 -0.1880  0.1039 -0.0689
19917W        W35048   2.803  12.965   3.687  0.0239  0.2809 -0.3021
19918W        W35049  17.001   9.316  12.426 -0.1373  0.0723 -0.3855
19919W        W35050  14.428  15.873  11.892 -0.2079  0.0716  0.2729
19920W        W35051  16.820  18.296   5.293 -0.0873  0.0737 -0.1232
19921W        W35052   7.535   3.664   5.358  0.1941  0.0596 -0.1101
19922W        W35053   9.408  16.194   0.472  0.1679  0.1951  0.2221
19923W        W35054  14.361   8.895   4.130  0.2498  0.1501  0.1456
19924W        W35055  16.130   4.201  10.378  0.1069 -0.0210  0.0500
19925W        W35056   7.728  16.505  13.895 -0.1453 -0.1023 -0.3406
19926W        W35057  16.957   1.566   3.559 -0.1866  0.0224 -0.0547
19927W        W35058   0.554   6.441  14.769 -0.1880 -0.2352  0.0040
19928W        W35059   7.099  10.787  14.287 -0.0319 -0.0176 -0.0586
19929W        W35060   5.140   7.432  15.439 -0.2033  0.1590 -0.0536
19930W        W35061   5.269  18.387   1.842  0.3682 -0.0032  0.0574
19931W        W35062  18.523  16.211  15.201 -0.0419 -0.0187  0.2672
19932W        W35063  16.172   2.613   0.393 -0.3291  0.0097 -0.5673
19933W        W35064  16.252   2.026  15.581 -0.0544 -0.1537 -0.0364
19934W        W35065  16.771  15.618   3.294  0.1151  0.4667 -0.1418
19935W        W35066  10.192  17.071   0.311  0.2323 -0.0135 -0.2367
19936W        W35067   4.434   1.773  14.218  0.0330 -0.1767  0.1938
19937W        W35068  17.810   8.790   0.308 -0.1155 -0.0574 -0.0803
19938W        W35069  17.982  12.119   2.854  0.0399 -0.1193  0.2077
19939W        W35070  17.244   8.965   2.556  0.0899 -0.2139 -0.3344
19940W        W35071  16.604  12.353   4.987 -0.2452  0.1194 -0.5113
19941W        W35072   0.660  14.703   2.809  0.0143 -0.0012  0.1332
19942W        W35073   6.563  13.412  15.443 -0.2070  0.1917 -0.4860
19943W        W35074   3.369  15.698  11.080 -0.2484  0.0689  0.1024
19944W        W35075  17.770  17.886   4.667  0.2166  0.0500  0.1454
19945W        W35076   8.572  12.766  13.217  0.1488  0.1075 -0.2802
19946W        W35077  12.642  11.014  11.139  0.1076  0.2065 -0.1658
19947W        W35078   6.112   4.955  14.163  0.0735  0.4523  0.4786
19948W        W35079  11.928   5.484   3.901 -0.4744 -0.0633  0.2779
19949W        W35080  16.863   9.776  15.064 -0.1377  0.0988  0.2122
19950W        W35081   2.564   1.608  15.631  0.3525  0.5103 -0.4180
19951W        W35082  13.217  16.237   1.380  0.0532  0.0078  0.0787
19952W        W35083   5.893  10.331   6.393  0.2611  0.3135  0.1478
19953W        W35084   9.727   7.925   5.214 -0.0853  0.1813 -0.0014
19954W        W35085   0.808   5.507  14.766 -0.0307 -0.1850  0.0535
19955W        W35086  18.508  13.324   5.536 -0.0189 -0.2232  0.3587
19956W        W35087  12.282   9.609  15.102  0.1731 -0.1404  0.3479
19957W        W35088  14.356   7.028   4.965 -0.0802 -0.2609 -0.0043
19958W        W35089  11.536  15.869  13.180  0.2057 -0.0997  0.0725
19959W        W35090  14.190   6.458   2.018  0.0239 -0.0977  0.2491
19960W        W35091  11.492   3.392  13.761  0.0034 -0.0834  0.4033
19961W        W35092   1.200   2.963  15.420 -0.1126  0.1026  0.2764
19962W        W35093  12.728   0.779  12.885  0.1667  0.3035 -0.2023
19963W        W35094   1.915   8.770   2.747  0.1728 -0.0104 -0.1866
19964W        W35095   4.990  16.908   0.369 -0.0374  0.0032 -0.0229
19965W        W35096   5.683   8.362   3.501  0.3483 -0.3726 -0.0763
19966W        W35097  17.012  11.403  13.281  0.1756  0.1875 -0.1513
19967W        W35098   6.544  16.368   4.494 -0.1456  0.0037  0.1988
19968W        W35099  16.515   9.600   3.842 -0.0168  0.3369  0.0220
19969W        W35100  17.929  17.956  15.189  0.2060  0.3758  0.3590
19970W        W35101   3.399   1.431   5.421 -0.1655  0.0476 -0.2170
19971W        W35102  14.318   1.726   3.081  0.0695 -0.0222  0.1575
19972W        W35103  13.014   7.481   0.749 -0.2103  0.1227  0.0190
19973W        W35104   1.078  12.907  15.502 -0.0985  0.0365  0.2240
19974W        W35105   8.833  13.999   0.113 -0.0055  0.5007  0.0325
19975W        W35106  14.337   8.108   3.756  0.0012  0.0549 -0.1434
19976W        W35107  13.964  11.432   4.212 -0.0738  0.0657 -0.2557
19977W        W35108   9.656   8.222  14.394  0.0220  0.3780 -0.0685
19978W        W35109   0.763   1.313  15.108  0.1476  0.0812  0.1049
19979W        W35110  17.481  10.992   4.975 -0.2815  0.3857 -0.1820
19980W        W35111  18.350   8.326  15.836 -0.2222 -0.1858 -0.1104
19981W        W35112  10.389  13.628   0.439 -0.2955  0.2808 -0.2095
19982W        W35113  14.366  11.291  13.827 -0.0639 -0.0985  0.1009
19983W        W35114  11.303  12.925  12.088  0.0956  0.2114 -0.0322
19984W        W35115  13.290  15.903  11.593 -0.1152  0.0849  0.1953
19985W        W35116  14.534   3.138  15.416 -0.0280 -0.0614 -0.1281
19986W        W35117   0.531  14.405  13.438 -0.2659  0.1178 -0.1571
19987W        W35118  16.352   3.387   2.069 -0.0282 -0.3244 -0.1208
19988W        W35119   5.833  14.506   0.612  0.0979 -0.1691  0.1638
19989W        W35120   8.658  11.345   3.878  0.0089 -0.1574  0.2666
19990W        W35121   5.008   3.655  10.842 -0.3753  0.0195 -0.0283
19991W        W35122   4.387   4.997   3.939  0.0636  0.0591 -0.0423
19992W        W35123  13.502  11.763   2.929 -0.2332  0.0096  0.2150
19993W        W35124   8.724   7.109  10.961  0.0693  0.1598 -0.1129
19994W        W35125   1.575  14.893  11.504  0.0189  0.0984  0.1742
19995W        W35126  10.082  13.322   0.206 -0.1556  0.0124 -0.1352
19996W        W35127   1.816  18.511   1.946  0.1113 -0.3375  0.0323
19997W        W35128  14.006  10.635  11.984 -0.0199 -0.0294 -0.2152
19998W        W35129   5.871   9.464   3.550  0.2731  0.4757  0.1898
19999W        W35130  18.363  15.511   4.391 -0.1656  0.1934  0.1299
20000W        W35131  14.713  10.454  10.737 -0.0224 -0.1152 -0.0128
20001W        W35132   1.540  10.639   1.433  0.0025  0.1944  0.0505
20002W        W35133   1.891  16.369  12.835  0.2810  0.0918 -0.0502
20003W        W35134   1.204   7.223  15.272  0.2035  0.1378 -0.2546
20004W        W35135   1.761  13.762  13.947 -0.2989 -0.0153  0.0724
20005W        W35136  15.495   9.714  13.812 -0.1880  0.1352 -0.0313
20006W        W35137   6.067  13.178  13.566 -0.0378 -0.0546  0.3640
20007W        W35138   2.079   4.068   1.541  0.3528 -0.1436 -0.0794
20008W        W35139  17.824   5.674  15.405 -0.1782  0.2478  0.0326
20009W        W35140  13.364  16.664  14.117  0.0085 -0.1763  0.0814
20010W        W35141   1.378   5.341   1.285  0.1299  0.1301 -0.1209
20011W        W35142   4.714  18.464  12.408 -0.0015 -0.0464 -0.0426
20012W        W35143  14.826  12.999  15.225 -0.1578 -0.2107 -0.1353
20013W        W35144  11.752  11.344  14.255  0.1560  0.0864  0.0732
20014W        W35145  15.619   6.183   1.772 -0.0643  0.0080  0.1494
20015W        W35146   1.408  12.763   2.885  0.4817 -0.1155 -0.1500
20016W        W35147   9.384  14.173  11.949 -0.1616 -0.1732 -0.0443
20017W        W35148  11.273   5.258  10.851 -0.1421 -0.3676 -0.0390
20018W        W35149  17.234   2.871  15.423  0.3922 -0.0092  0.1569
20019W        W35150  13.600   3.694   3.530  0.0288  0.0487 -0.2081
20020W        W35151   7.698  15.930  13.832 -0.1949  0.3706  0.0107
20021W        W35152  13.708  16.108   0.740 -0.1737  0.0432  0.1839
20022W        W35153  13.023   0.353   3.680 -0.0201  0.0211 -0.1734
20023W        W35154  11.352  12.912  14.842  0.1056 -0.0814  0.3345
20024W        W35155  12.699  13.956  10.304 -0.0141  0.2903  0.0133
20025W        W35156   1.695   7.290   0.092 -0.1575  0.1880  0.1281
20026W        W35157   6.787  12.864   3.404 -0.1075 -0.3767 -0.3533
20027W        W35158   2.795   2.834   0.406  0.0451 -0.1399 -0.2478
20028W        W35159  16.195  11.368  10.468  0.1562 -0.0357 -0.1620
20029W        W35160  16.045   7.328  10.171 -0.1259  0.3114 -0.0403
20030W        W35161   8.880   2.585   1.216 -0.1258 -0.2716 -0.2722
20031W        W35162   4.340   7.777  13.529 -0.0833  0.4133 -0.2250
20032W        W35163  12.388   0.853   4.386 -0.1514 -0.0432 -0.1087
20033W        W35164   1.439  10.519  14.204 -0.5516  0.4435  0.1443
20034W        W35165  10.749  11.063  13.116 -0.0799  0.0560 -0.1346
20035W        W35166  12.149  15.731   2.718  0.1095 -0.1307 -0.3477
20036W        W35167  16.855   8.140   2.512  0.2227  0.0048  0.1202
20037W        W35168  14.515  18.443   4.628  0.2767 -0.0665  0.3660
20038W        W35169   6.193  12.382   4.994 -0.0905 -0.1976  0.0871
20039W        W35170  16.737   6.435  15.157 -0.1532 -0.2087  0.1109
20040W        W35171  12.244  12.262   1.508 -0.1138 -0.0092 -0.1830
20041W        W35172   2.595   0.747  14.058 -0.0267 -0.3459  0.0221
20042W        W35173   1.850   8.247  10.883  0.1183  0.1771  0.1959
20043W        W35174  13.061  17.945   4.030 -0.0943  0.1320 -0.0096
20044W        W35175  12.518   3.810   3.299  0.2201 -0.1299 -0.0961
20045W        W35176  13.455  17.910   2.232  0.0254  0.5194  0.0648
20046W        W35177  14.284   6.858  15.628  0.0911 -0.3272  0.2709
20047W        W35178  10.022  13.266   1.977  0.0885  0.1594 -0.1948
20048W        W35179   5.881   0.553   0.197 -0.0392 -0.1938 -0.1352
20049W        W35180   8.041   9.582  11.793 -0.0482  0.0825  0.0782
20050W        W35181  17.247   1.565   1.052 -0.1180 -0.1157  0.1882
20051W        W35182  12.548  12.948  11.744  0.0643 -0.0205 -0.1016
20052W        W35183   6.787   0.996   0.113 -0.0906 -0.0655  0.0122
20053W        W35184  11.394  15.001  13.855  0.0107  0.3779 -0.2508
20054W        W35185   4.014  15.748   0.829  0.2135 -0.0572 -0.3445
20055W        W35186  15.421   5.348   4.990 -0.0021 -0.1182  0.0725
20056W        W35187  18.020   2.931   1.900 -0.0689 -0.1549 -0.3330
20057W        W35188  14.288   2.801  12.302 -0.1725  0.1449  0.1277
20058W        W35189   3.537   9.494   5.892  0.2443 -0.0009  0.0631
20059W        W35190   7.965   6.302  12.998 -0.2147  0.0050 -0.0305
20060W        W35191  14.200   0.887  12.624  0.1272  0.1605  0.0719
20061W        W35192   9.460   4.810   2.382  0.0716 -0.1241 -0.1370
20062W        W35193  11.904  14.414   3.356  0.4197 -0.1936 -0.1758
20063W        W35194   2.648  17.064   0.762  0.1920 -0.3693 -0.0662
20064W        W35195  16.667   2.358  11.785 -0.0045  0.0928  0.2259
20065W        W35196   5.607  15.388   3.001 -0.2302 -0.0046  0.0267
20066W        W35197   5.312   1.023  14.758  0.1205 -0.0259  0.1128
20067W        W35198  15.741  16.062   4.611  0.2235 -0.1652  0.0682
20068W        W35199   2.173  10.113   1.308  0.1168  0.1210  0.1599
20069W        W35200   6.646   0.044   0.921  0.1918  0.1569 -0.3368
20070W        W35201  17.404   6.778   1.189 -0.1980  0.3663  0.2809
20071W        W35202   1.175  17.550  15.706 -0.0288  0.1059  0.1206
20072W        W35203   6.743  16.242  12.270 -0.4489  0.1269  0.1144
20073W        W35204   0.242   3.978  14.904 -0.1905  0.0083 -0.0652
20074W        W35205   2.219   6.640   0.466 -0.1375 -0.0475 -0.0455
20075W        W35206   6.183   5.124   0.302 -0.0544 -0.1184 -0.0908
20076W        W35207   7.552  13.548   3.224 -0.2458  0.0716  0.0845
20077W        W35208   7.350  16.690  13.650 -0.1006 -0.2421 -0.1160
20078W        W35209   1.016   5.153  12.650  0.1046 -0.5123 -0.0459
20079W        W35210   9.103   9.465   5.542 -0.1040  0.2169 -0.3385
20080W        W35211   6.582  14.457  13.221 -0.1239  0.2877  0.0359
20081W        W35212  11.825   5.999  13.812  0.3124  0.1648 -0.2208
20082W        W35213  11.716  16.214  11.816 -0.0459  0.0924  0.4491
20083W        W35214  14.808  10.777   2.402 -0.0022  0.0065 -0.1296
20084W        W35215   3.040   8.672   1.222  0.2074 -0.0366  0.0868
20085W        W35216   0.082  14.269  10.497  0.0086  0.2172  0.0243
20086W        W35217  10.914   2.960   1.803  0.1246 -0.0737  0.3711
20087W        W35218   1.296  16.954   5.248  0.0622  0.2170  0.4158
20088W        W35219  16.357   5.964   4.085 -0.2213 -0.0403 -0.1893
20089W        W35220  13.406  13.180   2.544  0.2735 -0.2490  0.0160
20090W        W35221   8.950   1.470   1.507  0.0535  0.0898 -0.2831
20091W        W35222  16.787   2.714   5.471  0.0193  0.2146 -0.0441
20092W        W35223   4.860   3.480  14.413  0.0470  0.1128  0.3219
20093W        W35224   5.353   3.820  15.347 -0.4393 -0.2480  0.2135
20094W        W35225   5.168  18.285   2.995 -0.0421  0.1783  0.3143
20095W        W35226   8.168   6.910  12.406 -0.0023 -0.1408 -0.1297
20096W        W35227  12.211   7.512   9.766  0.3187  0.1700 -0.4244
20097W        W35228   4.960   2.933  15.877  0.2325  0.0658  0.0434
20098W        W35229   9.756  15.999  14.842 -0.1027 -0.0287 -0.3790
20099W        W35230   6.110  10.900   0.332 -0.5161 -0.0403 -0.0900
20100W        W35231   4.498   3.067   4.413 -0.0457  0.0732 -0.1529
20101W        W35232  11.188   2.286  14.618  0.3138 -0.0826  0.0182
20102W        W35233  16.540   1.750   0.494 -0.0961  0.1562  0.3422
20103W        W35234  15.133  10.264   1.271  0.1367 -0.1428  0.3630
20104W        W35235  17.226   6.901   3.779 -0.1375  0.0534 -0.2864
20105W        W35236   6.688  17.763  15.433  0.2106  0.0903  0.0064
20106W        W35237  15.929  14.231   0.926  0.0676  0.1065 -0.0382
20107W        W35238   2.568  18.292   0.468 -0.0377 -0.3260  0.0631
20108W        W35239  18.442  13.476  11.584  0.1461 -0.1444  0.1030
20109W        W35240  15.074  11.706   5.056 -0.1198 -0.0051  0.1662
20110W        W35241  18.035   4.249   2.882 -0.1203 -0.0340 -0.0902
20111W        W35242  17.205   9.383  14.183 -0.5710 -0.2769  0.1237
20112W        W35243   6.990   0.531   0.976 -0.2369  0.0852  0.1815
20113W        W35244   1.111  16.662  11.104  0.0206 -0.3075 -0.1267
20114W        W35245  13.046  10.001  12.503 -0.0389 -0.1865  0.1191
20115W        W35246  16.849  12.587   4.018 -0.2084  0.1784  0.3980
20116W        W35247   2.513  11.622   4.323 -0.1716  0.1286 -0.0079
20117W        W35248  11.914  11.589   3.480  0.0091 -0.5713  0.0344
20118W        W35249  13.865  11.309  13.622  0.1180  0.1430 -0.2116
20119W        W35250  11.847  12.869   1.242  0.1972 -0.2888  0.0480
20120W        W35251  17.665   2.067   1.589  0.2573  0.1302 -0.2066
20121W        W35252  12.804   3.659   4.231 -0.0091  0.0485 -0.0896
20122W        W35253   0.642  15.781   0.062  0.0591  0.1727  0.2576
20123W        W35254   4.994   9.659  14.158  0.0540  0.1194  0.2714
20124W        W35255   1.177  18.472  12.625 -0.0510 -0.0164  0.2060
20125W        W35256   7.191  18.251  15.646 -0.1514 -0.0827  0.0830
20126W        W35257   7.068  11.992  12.348  0.3519  0.0718  0.0667
20127W        W35258  14.234   0.657  11.026 -0.0308 -0.0155  0.0956
20128W        W35259   3.024  12.914   1.139 -0.0011  0.0676 -0.0077
20129W        W35260   1.049   9.808   4.957  0.2897 -0.1619  0.0870
20130W        W35261   5.256  17.731  12.495 -0.2185  0.1384  0.0079
20131W        W35262  14.844   2.456   3.660  0.3587  0.1832  0.2899
20132W        W35263  18.122  17.283   3.226 -0.1303  0.2274  0.1981
20133W        W35264  18.287  16.266   0.494  0.0850 -0.0552 -0.0538
20134W        W35265   9.999  11.846   4.864  0.0646 -0.2623  0.3281
20135W        W35266   6.996   6.595  15.222 -0.2624 -0.0603  0.4239
20136W        W35267   1.212  16.127   4.778 -0.0557 -0.0105  0.2101
20137W        W35268  10.041  10.256   5.333 -0.1835 -0.1233 -0.2995
20138W        W35269  17.977   8.107  11.521  0.1259  0.0650 -0.1108
20139W        W35270   4.228   1.402   0.977 -0.0915 -0.1194 -0.0297
20140W        W35271   1.044   4.467   0.077 -0.0917  0.1872 -0.0732
20141W        W35272  17.304   9.589  12.173 -0.1874 -0.0430  0.0497
20142W        W35273  17.263   9.404  11.741  0.0530 -0.1908  0.0227
20143W        W35274  17.119  11.259  11.309  0.2030 -0.0240 -0.0861
20144W        W35275   8.270   4.033   0.751 -0.2241  0.1290 -0.1282
20145W        W35276  11.505   5.456  11.711 -0.1286  0.1389 -0.0859
20146W        W35277  15.424  18.499   1.335  0.0498  0.1966  0.0209
20147W        W35278  15.098  18.499   5.543  0.0478 -0.1006 -0.0694
20148W        W35279   7.082  11.013   5.294 -0.0537  0.1343  0.0736
20149W        W35280  13.847   9.022  10.664  0.1876 -0.2180 -0.0418
20150W        W35281   5.360   5.847   2.794  0.1084  0.0174  0.1175
20151W        W35282  10.573  15.860   9.971 -0.1058 -0.0458  0.1070
20152W        W35283   3.154   5.302  13.300  0.2631 -0.2166  0.1196
20153W        W35284  13.219  14.793   4.619 -0.2758 -0.1938  0.1037
20154W        W35285  17.548  16.302  10.467  0.1568 -0.0317  0.1007
20155W        W35286  14.120  17.159  12.134 -0.3320  0.3445 -0.0191
20156W        W35287  17.540   1.573   1.500 -0.1256  0.0245  0.4361
20157W        W35288  14.196   9.537   1.988 -0.2717 -0.0577  0.1895
20158W        W35289  18.211  13.851  11.384  0.0879 -0.1775  0.0363
20159W        W35290   2.827  17.769   9.817  0.0700  0.3810 -0.1121
20160W        W35291   6.470  17.416   4.516  0.0208  0.0452 -0.0876
20161W        W35292   6.410   1.365   3.104  0.3460  0.0686  0.2182
20162W        W35293   7.680   0.655  13.019 -0.0526 -0.1100 -0.2044
20163W        W35294   5.004  10.049   6.185  0.0938 -0.0657  0.1842
20164W        W35295  12.467   6.815  15.029  0.1886  0.4863  0.0732
20165W        W35296   8.895  16.955   1.129 -0.1954 -0.3201  0.4590
20166W        W35297   1.651   0.386   2.165  0.1614  0.3150  0.2227
20167W        W35298  15.933  18.282   4.614  0.3131 -0.0407  0.2023
20168W        W35299  17.754   2.383  12.012  0.0532  0.2608 -0.0162
20169W        W35300  12.651   1.221  13.214 -0.1479 -0.0697 -0.0705
20170W        W35301   2.410  13.105  15.745  0.1337  0.1788 -0.1915
20171W        W35302   3.676  16.318   2.983  0.0474  0.2345 -0.1108
20172W        W35303   9.429  12.181   1.078  0.2390  0.1151 -0.0521
20173W        W35304  10.404   5.068   4.900 -0.1535  0.1012  0.0462
20174W        W35305   3.238   4.131  14.467 -0.2297  0.3412 -0.2689
20175W        W35306  16.729  13.007  12.381 -0.0985  0.0091 -0.1846
20176W        W35307   0.974  16.455   4.309 -0.0931  0.0333  0.0350
20177W        W35308  16.593   9.566   2.184 -0.1022  0.0900  0.0790
20178W        W35309  16.321  10.496   0.145 -0.1604  0.2583 -0.0485
20179W        W35310  12.837  14.746   2.307 -0.2600  0.0334 -0.3230
20180W        W35311   6.825  15.739   1.942 -0.2462  0.4225 -0.3643
20181W        W35312   3.755  15.554   5.911 -0.1077  0.2578 -0.0708
20182W        W35313   3.625  17.090  14.398 -0.0579 -0.1238  0.0235
20183W        W35314   3.911  16.922   2.080  0.0708 -0.1329  0.0379
20184W        W35315   0.041  14.263   3.426 -0.1068  0.0931  0.2893
20185W        W35316   5.652  15.874   1.118 -0.3264 -0.1185  0.1918
20186W        W35317   3.995  14.152  13.120  0.0544 -0.2787 -0.0848
20187W        W35318  14.974  18.139   1.498  0.0157  0.2424  0.1873
20188W        W35319  14.509  18.469  15.511 -0.3172 -0.0481 -0.1967
20189W        W35320  13.933  10.862   1.684  0.2084  0.2040  0.2020
20190W        W35321   8.291  12.339  14.882  0.0481 -0.2073  0.0379
20191W        W35322   8.825  13.607  10.413  0.1403  0.0442 -0.1594
20192W        W35323  12.881  17.849   5.417  0.0279 -0.0365 -0.0906
20193W        W35324   0.272   6.930  11.165 -0.1171 -0.1142 -0.1812
20194W        W35325  11.932   4.187  13.734  0.3664  0.1337 -0.2291
20195W        W35326   5.918   0.271   2.636  0.1593 -0.0999 -0.2695
20196W        W35327   6.038  13.209   4.662  0.1778 -0.0155  0.0878
20197W        W35328  10.154   1.436  13.222 -0.0679 -0.2297 -0.1428
20198W        W35329  15.572   0.219  14.433  0.2531  0.1039  0.1770
20199W        W35330   9.305   9.341   9.787  0.2164 -0.3090  0.0690
20200W        W35331   4.362  12.852  14.787  0.1318 -0.0856  0.3349
20201W        W35332   1.615   8.032  13.645 -0.0487  0.0520 -0.3578
20202W        W35333  14.883   6.424   4.273 -0.1281  0.0449  0.0916
20203W        W35334   9.912  12.474   5.560  0.2172  0.0400  0.1074
20204W        W35335   4.792   3.297   4.055 -0.0289 -0.0031  0.1842
20205W        W35336  11.887  13.836   2.216 -0.0226 -0.3217  0.3029
20206W        W35337  15.028  13.857   4.348  0.1944  0.0226  0.2727
20207W        W35338   8.296   4.469  11.043  0.0758 -0.2452 -0.1737
20208W        W35339  11.320   8.255   0.183  0.2077  0.2531 -0.0346
20209W        W35340  14.947   6.962   2.791  0.3784  0.1334  0.0805
20210W        W35341  16.089   0.197  11.775  0.1527  0.0063 -0.2738
20211W        W35342   3.582  12.664   0.240 -0.1736  0.0988 -0.1416
20212W        W35343  13.520   2.215  12.683  0.1971  0.3133  0.0402
20213W        W35344  13.646  12.787  15.876 -0.1954 -0.2037 -0.3737
20214W        W35345   6.359  15.390  11.752  0.3033  0.2508  0.0537
20215W        W35346   0.581   8.035  10.355 -0.0560 -0.1022  0.0760
20216W        W35347  18.011   6.771  13.366 -0.0809 -0.1253 -0.0602
20217W        W35348   3.442  15.591  12.125  0.1945  0.0271 -0.2443
20218W        W35349  13.453   8.252   4.781  0.3966 -0.0814  0.1351
20219W        W35350  11.451   1.866   5.871 -0.2864 -0.0816  0.1905
20220W        W35351  14.908   7.010  14.108  0.0857 -0.0959  0.2603
20221W        W35352  11.583  12.172   5.463 -0.0101 -0.1385  0.1242
20222W        W35353  15.875   7.601   1.039  0.1630  0.0759 -0.0350
20223W        W35354   7.655   6.110   2.996 -0.1563  0.0618  0.0600
20224W        W35355   7.482   4.416  11.015 -0.1672  0.2093 -0.0263
20225W        W35356   5.712   1.062   4.465  0.1127 -0.1503  0.0168
20226W        W35357  14.220   5.149  13.957 -0.0134  0.2201 -0.0647
20227W        W35358   8.832  17.361  12.724 -0.3253  0.0515 -0.2530
20228W        W35359  10.666  17.847   3.435  0.0531 -0.0522 -0.0917
20229W        W35360  12.228  14.580   1.428 -0.0188  0.1776  0.0882
20230W        W35361   6.901   6.174   3.498  0.1543 -0.0947  0.0023
20231W        W35362  17.174   1.087   5.069  0.2015 -0.2034  0.1206
20232W        W35363   4.891   7.557  15.000  0.0284  0.0057 -0.0712
20233W        W35364   4.363  13.620   0.631  0.1673 -0.1974 -0.0646
20234W        W35365   8.675   7.023   3.154 -0.0620 -0.0679  0.0748
20235W        W35366  16.600   5.488   4.423  0.1095 -0.2253  0.2299
20236W        W35367   5.707   3.867  12.359  0.3130  0.1306  0.1244
20237W        W35368  14.171   5.813   1.484  0.1175  0.0222 -0.2724
20238W        W35369   3.629   1.753   1.960 -0.2827 -0.0884  0.0752
20239W        W35370  16.260  14.304   2.419 -0.1201 -0.0027 -0.1824
20240W        W35371   2.684   6.923  13.232  0.2399  0.1019  0.1563
20241W        W35372   9.806   2.548   1.890 -0.0913 -0.1251 -0.0526
20242W        W35373   3.126  15.215  11.880  0.3543 -0.1269  0.0902
20243W        W35374  17.247  16.674  12.422  0.2529 -0.3054 -0.1164
20244W        W35375   4.900   0.738   3.271 -0.0826  0.4130  0.1296
20245W        W35376   0.472  11.047  14.125 -0.1441 -0.1497 -0.2023
20246W        W35377   1.594   6.239  12.770 -0.2579  0.0036 -0.0258
20247W        W35378   1.437  10.754   0.946 -0.0671 -0.1116  0.0125
20248W        W35379   8.907  14.411  12.042 -0.0057 -0.0980 -0.4576
20249W        W35380   2.119   3.450  13.513  0.1950  0.1558  0.0703
20250W        W35381  14.630  13.932   9.434  0.3699 -0.0324 -0.0918
20251W        W35382   8.264   3.078   5.232  0.1536 -0.1834  0.0127
20252W        W35383   6.632   4.124  11.061 -0.0398 -0.0665  0.0563
20253W        W35384  15.946  10.542  14.713 -0.0674 -0.0508 -0.2074
20254W        W35385  16.389  12.398   1.668 -0.3088  0.2867  0.0541
20255W        W35386   7.728   1.457   3.243  0.1308  0.0915  0.1287
20256W        W35387  15.250   5.109   3.981 -0.2563  0.0501 -0.1584
20257W        W35388  12.883   4.717  10.598  0.0183  0.1037 -0.2419
20258W        W35389   5.803  11.146   5.983  0.3982 -0.2131  0.0643
20259W        W35390   8.978   9.317  10.159  0.3136  0.0111  0.1478
20260W        W35391   2.260   8.112  14.291  0.2272 -0.2454  0.3045
20261W        W35392  10.811   2.096  13.712 -0.1204  0.0879  0.0099
20262W        W35393  12.460   3.763  14.182 -0.0141 -0.1184 -0.0894
20263W        W35394   6.457  17.926  13.048 -0.3174 -0.1717  0.3498
20264W        W35395  12.804  15.445   5.001 -0.2379  0.2449  0.1719
20265W        W35396   6.584   9.791  14.361 -0.0254 -0.0323 -0.3497
20266W        W35397  14.536  18.367  14.410  0.1935  0.0495 -0.0461
20267W        W35398   6.339   5.577  12.850 -0.0223  0.2202 -0.2055
20268W        W35399   0.418  10.115   3.514 -0.1727  0.1830  0.1350
20269W        W35400   7.687  12.565   4.303  0.1722 -0.1256  0.2010
20270W        W35401  18.519  17.238  13.294  0.2292  0.4053  0.2213
20271W        W35402   5.251  14.337  13.266 -0.2522  0.2120 -0.2484
20272W        W35403  12.189  12.327   4.688  0.0632 -0.2536  0.0262
20273W        W35404   0.428   7.762   5.972 -0.3355  0.0641 -0.1651
20274W        W35405   5.792   2.905   4.994 -0.4748 -0.0796 -0.3283
20275W        W35406   5.838  14.146  14.542  0.2287  0.0518 -0.0112
20276W        W35407  14.577   8.812  13.992 -0.2761  0.0975  0.1838
20277W        W35408  11.557  10.097  12.432  0.0676 -0.0758 -0.1904
20278W        W35409  16.897   7.467  14.856  0.4529  0.1961 -0.2236
20279W        W35410  10.909   8.401   4.873  0.0731 -0.3576  0.0743
20280W        W35411  13.746   2.523   3.034 -0.2058  0.1168 -0.2168
20281W        W35412  12.787  18.417  11.626 -0.1318  0.0883 -0.0514
20282W        W35413  11.504  10.253   0.430  0.1453 -0.0025 -0.0455
20283W        W35414   4.296  18.033  11.178  0.2283 -0.0882 -0.2929
20284W        W35415   7.552  16.525  12.873 -0.3862  0.0048  0.1017
20285W        W35416   8.286   8.333   4.981  0.1131  0.3034 -0.1060
20286W        W35417  15.237  11.312   2.971  0.0924 -0.1796 -0.2161
20287W        W35418  18.136   4.132   1.105  0.2836 -0.1903 -0.2272
20288W        W35419  15.155   8.425   1.148 -0.0669 -0.0606  0.0807
20289W        W35420   1.736   2.791  11.214 -0.0400  0.1161 -0.0340
20290W        W35421   2.442  17.463   4.130 -0.0039 -0.1167  0.0595
20291W        W35422  17.871  17.304  13.603  0.2153  0.0396  0.2158
20292W        W35423   0.623   5.752  13.392 -0.0576 -0.1227 -0.1699
20293W        W35424   4.670  12.606  12.528 -0.0160  0.1139  0.2845
20294W        W35425   1.848  16.270   2.521 -0.3088 -0.0310  0.1758
20295W        W35426   0.543   2.241   2.339 -0.1004  0.3548 -0.0571
20296W        W35427  14.348  17.292  15.730 -0.2649 -0.0751 -0.2358
20297W        W35428  16.973   2.156   1.119  0.0778  0.0112 -0.0954
20298W        W35429   0.311   2.868  11.670 -0.1617 -0.1365 -0.3464
20299W        W35430   9.384   5.006   3.985  0.0203 -0.0972 -0.1840
20300W        W35431   9.443   6.556  12.109  0.1262 -0.3747  0.4516
20301W        W35432   6.964  16.344   1.749 -0.1645  0.2008  0.0037
20302W        W35433   6.811   2.888  13.062  0.1163 -0.2508  0.1088
20303W        W35434   9.434   1.148   3.829 -0.1816  0.0385 -0.2200
20304W        W35435   0.905  11.595   1.933 -0.2513  0.0569  0.3316
20305W        W35436  12.609   4.804  11.489  0.2899 -0.0387  0.1101
20306W        W35437  13.383  15.568   2.232  0.0819  0.0106  0.0803
20307W        W35438  15.745   8.160   0.775  0.1138 -0.4554 -0.0220
20308W        W35439   0.058  13.054  11.240 -0.1330 -0.0814 -0.0030
20309W        W35440  10.649  18.290   5.337 -0.3528  0.1601 -0.0066
20310W        W35441   4.183  17.165  14.465 -0.2359 -0.1461 -0.1323
20311W        W35442   9.575   9.944   1.941 -0.0117 -0.3492 -0.2472
20312W        W35443  13.996  17.674  15.546  0.4531  0.0392 -0.1197
20313W        W35444   3.796  17.622   1.102 -0.0864  0.2324 -0.0955
20314W        W35445  16.490  16.331   4.534 -0.0212  0.2189  0.0435
20315W        W35446   0.465  17.362   2.329 -0.0278  0.0218  0.1286
20316W        W35447  11.371   9.265  14.753 -0.0490 -0.2000 -0.2254
20317W        W35448  10.018   9.231   5.324  0.2990  0.1931 -0.1613
20318W        W35449   6.804  17.907  13.452 -0.0714  0.2759 -0.0691
20319W        W35450  11.343  16.112   3.612 -0.1967  0.1123  0.0966
20320W        W35451   5.756  11.976   1.061  0.1762  0.0485 -0.0258
20321W        W35452   6.812   2.367  10.639 -0.2771 -0.1625 -0.2577
20322W        W35453   5.665  13.985  12.153 -0.0240 -0.1660 -0.4276
20323W        W35454   0.460   9.640   0.982 -0.2201 -0.2021 -0.1222
20324W        W35455   0.424  11.480   2.024 -0.3763 -0.3110  0.1658
20325W        W35456   3.833  15.336  13.315  0.1086  0.1636  0.1597
20326W        W35457   8.675  13.824  14.253  0.2409  0.0699 -0.1325
20327W        W35458  10.077   1.265   3.121  0.2876 -0.0715 -0.2099
20328W        W35459   1.016  16.885   3.215  0.1381  0.1476  0.1653
20329W        W35460   2.683   0.139  15.280 -0.0919 -0.1250  0.0921
20330W        W35461  13.313   2.696   4.240 -0.1130 -0.2849 -0.1844
20331W        W35462  14.006  15.620   2.214 -0.3814  0.1502  0.1104
20332W        W35463  16.051   3.518   2.451  0.1090 -0.0758 -0.3555
20333W        W35464   1.929   6.855  12.002  0.1986 -0.3992  0.2886
20334W        W35465  18.296  17.673  13.845  0.2629 -0.0134 -0.0707
20335W        W35466   1.136  17.067   3.700 -0.1019  0.0730 -0.0236
20336W        W35467  11.932  10.789  10.559  0.0372 -0.1320 -0.3599
20337W        W35468  12.339   7.170   3.985 -0.0349 -0.1460  0.2596
20338W        W35469  14.361   8.268   1.316 -0.2517 -0.1686 -0.1797
20339W        W35470  16.602  11.710  14.783 -0.0464  0.2427 -0.3334
20340W        W35471  13.400   5.112  13.797  0.0373 -0.1590 -0.0863
20341W        W35472   1.740  13.712  15.150  0.0793  0.0530  0.0489
20342W        W35473  18.168  15.675  11.350 -0.1621 -0.1215 -0.2965
20343W        W35474   4.058   2.401  13.845  0.3920 -0.1343 -0.2051
20344W        W35475   8.662   0.169   1.201 -0.0012 -0.2381 -0.2193
20345W        W35476   5.142   0.422   5.340  0.0607  0.0438  0.1942
20346W        W35477   5.259  15.139  14.739  0.1893 -0.0330  0.1381
20347W        W35478   8.643  11.197   3.383 -0.1585 -0.2326 -0.1319
20348W        W35479   2.222  15.397  12.102 -0.2559  0.1610  0.4323
20349W        W35480  11.956   3.763   1.339  0.0229  0.0805  0.1144
20350W        W35481   3.826   5.659   5.875 -0.0797 -0.1030  0.1848
20351W        W35482   0.842   7.394   1.690 -0.1543  0.1194 -0.0530
20352W        W35483  10.614  12.013  15.738 -0.1855 -0.1310 -0.1461
20353W        W35484  10.530   5.918  14.615  0.0324 -0.1597 -0.3266
20354W        W35485  11.665   1.085   3.490  0.1108  0.1859  0.0268
20355W        W35486   7.553  13.001   4.673 -0.0193 -0.0721 -0.0227
20356W        W35487   3.254   9.807   6.142  0.1335 -0.0427 -0.2463
20357W        W35488   4.950  15.000   1.317  0.2897  0.2334  0.4813
20358W        W35489   9.567  11.449  12.966  0.2335  0.0508  0.0555
20359W        W35490  18.512  11.904  15.317 -0.0177 -0.1308  0.1165
20360W        W35491   3.149   6.411  13.690  0.3979  0.2678  0.1725
20361W        W35492  10.482   5.073   3.193  0.0234  0.0389 -0.1528
20362W        W35493   6.446   0.921   4.918 -0.3251  0.1706 -0.0063
20363W        W35494   3.614  14.870   0.281  0.1625 -0.1260  0.0489
20364W        W35495   9.118   4.820  12.813 -0.3226 -0.0610 -0.0319
20365W        W35496   1.388   2.322   5.070  0.2397 -0.1581 -0.0265
20366W        W35497   8.389  12.338  13.012  0.1887 -0.1959 -0.0869
20367W        W35498  14.633  14.285  13.926  0.2312  0.0609 -0.1015
20368W        W35499   9.383   5.637  12.089 -0.0567 -0.2682 -0.1492
20369W        W35500  10.407  12.432  13.558  0.0982 -0.0114  0.4813
20370W        W35501   5.563   7.389   4.912  0.0430 -0.3516  0.1753
20371W        W35502   5.343  17.455  14.913 -0.0696 -0.0534  0.1962
20372W        W35503   6.413  13.817  13.662 -0.1697  0.0564 -0.0085
20373W        W35504   8.223   2.910   3.677  0.0731 -0.2523 -0.0282
20374W        W35505  16.184   0.871   0.639 -0.0510  0.2786 -0.2541
20375W        W35506   8.319   4.132   4.982 -0.2383 -0.0474  0.0714
20376W        W35507  17.051  14.037  11.240 -0.4232  0.3047  0.0610
20377W        W35508  18.515   2.726   1.724  0.1537  0.1285  0.0882
20378W        W35509   6.692   5.627   3.931 -0.1338 -0.0952  0.1234
20379W        W35510   8.399  11.791   0.337 -0.4245  0.2143  0.0498
20380W        W35511   9.430   2.544   5.947 -0.0427  0.1980  0.1125
20381W        W35512  16.953   4.027   2.090 -0.0898  0.1766  0.1040
20382W        W35513  17.394  16.335  13.397 -0.5049 -0.1838 -0.1901
20383W        W35514  13.750  15.691   3.088  0.1625  0.2149  0.0413
20384W        W35515   5.622  15.380   2.382 -0.3997  0.0242 -0.1230
20385W        W35516   0.632   9.761   5.880 -0.2955  0.2953  0.1020
20386W        W35517  15.850   1.021   3.073  0.0308 -0.1323  0.1557
20387W        W35518   5.258  12.893   0.429 -0.0672 -0.3512  0.1063
20388W        W35519   8.713  15.099  14.674 -0.2685  0.2537  0.0416
20389W        W35520   7.534  11.913  13.317  0.0792 -0.0477 -0.3018
20390W        W35521  13.123   7.604   2.505  0.1574  0.0015  0.0913
20391W        W35522   8.997   9.415   4.206 -0.0761  0.2196  0.0870
20392W        W35523   5.467   5.297   5.651 -0.3087 -0.2983 -0.1252
20393W        W35524   1.069  16.200  14.493 -0.0638 -0.1836 -0.2036
20394W        W35525  18.078  10.644  13.790  0.1553 -0.1016 -0.1189
20395W        W35526   8.264   0.315  14.509 -0.3102  0.1343 -0.0353
20396W        W35527   0.047   3.942   0.914  0.3979 -0.0611  0.1721
20397W        W35528   4.264  10.206  13.979  0.0944  0.0845 -0.1219
20398W        W35529  11.754  13.134   2.160 -0.0023  0.1735  0.2870
20399W        W35530  11.736  11.482   4.918  0.3038 -0.0446  0.1464
20400W        W35531  14.679   6.721   0.475  0.0036 -0.0045 -0.0014
20401W        W35532  12.739   3.935  15.729 -0.2478 -0.3621  0.0404
20402W        W35533   3.865  16.411  11.640 -0.3146  0.0755  0.0370
20403W        W35534   8.769   2.677  12.793  0.0083 -0.0544 -0.3520
20404W        W35535  14.011  12.665  13.857 -0.0017  0.3902  0.0423
20405W        W35536   2.806   4.586  14.906 -0.0528  0.1625  0.0491
20406W        W35537   2.749   1.365   3.470  0.3675 -0.0407 -0.1925
20407W        W35538   8.644   7.050   3.657  0.0491  0.0800  0.1042
20408W        W35539  11.661   1.115  13.058 -0.3923  0.0834 -0.2625
20409W        W35540   0.286   7.205   3.834  0.0440  0.2089  0.0587
20410W        W35541   5.242  12.495   4.486  0.0284 -0.2224 -0.2996
20411W        W35542  15.049  10.424  15.342  0.2926 -0.0964  0.0066
20412W        W35543   1.777  15.853  13.020  0.2205 -0.1582 -0.1643
20413W        W35544   2.924   5.561  14.990  0.3490  0.2900 -0.0107
20414W        W35545  11.751   1.602   2.008  0.0397 -0.2097 -0.2225
20415W        W35546   3.744   7.537   4.034  0.0015 -0.0575  0.3598
20416W        W35547   7.502   7.908   2.132 -0.0481  0.2110 -0.2595
20417W        W35548  14.507   2.465  15.669 -0.1271  0.1815  0.0347
20418W        W35549  13.305   6.635  13.883  0.0725 -0.1319  0.2479
20419W        W35550  12.632   4.762  15.353 -0.2081 -0.0682 -0.1438
20420W        W35551   4.569   8.786  11.593  0.1695  0.1159 -0.1180
20421W        W35552   9.321   3.177   0.497 -0.0624  0.3124  0.0112
20422W        W35553   4.423   4.499   4.193  0.1899  0.0961 -0.2048
20423W        W35554   6.994   8.687   4.095  0.1541 -0.0443 -0.1307
20424W        W35555   5.220   4.498   4.056  0.1430  0.0375 -0.2411
20425W        W35556   9.494  15.089  14.928  0.0987  0.4005  0.0492
20426W        W35557   9.306  14.623  15.305  0.1253 -0.1068 -0.1898
20427W        W35558  11.918   4.554  12.132  0.0074 -0.4133  0.1829
20428W        W35559   2.579  16.152   3.757  0.2302  0.1728 -0.0428
20429W        W35560  12.705  11.994   4.584 -0.1149  0.0175  0.3629
20430W        W35561   6.396   6.389   3.349  0.1556 -0.2556  0.1786
20431W        W35562   3.520  18.440   4.214 -0.0869 -0.0386 -0.0914
20432W        W35563   9.567   3.769  13.807 -0.2084  0.0295  0.0793
20433W        W35564   0.984   1.659  15.520  0.1320 -0.0807 -0.1269
20434W        W35565   4.047  17.818   2.435 -0.0716  0.0967 -0.0072
20435W        W35566  11.013   7.806  15.324 -0.0339 -0.3069 -0.1558
20436W        W35567   4.972   9.363   3.279  0.1050  0.0325 -0.0363
20437W        W35568   9.408  11.332   0.199  0.0629  0.0481  0.0012
20438W        W35569   0.768   1.506   5.662 -0.1703 -0.1405 -0.1696
20439W        W35570  14.431   5.428   1.990 -0.1653 -0.1610 -0.0885
20440W        W35571  10.885  11.562  15.802 -0.1459 -0.2831 -0.2742
20441W        W35572   5.131  11.335  14.099  0.2490 -0.0465  0.2324
20442W        W35573   7.937   5.762  11.061 -0.2750  0.3233  0.2137
20443W        W35574  13.313   7.021   4.934  0.0012  0.2006 -0.1250
20444W        W35575  11.437  16.420  13.930  0.0396 -0.1024  0.2967
20445W        W35576  10.607   6.073   3.750 -0.2650 -0.1174  0.4517
20446W        W35577  13.135  14.611  11.581  0.1192  0.1519 -0.3839
20447W        W35578  12.238   7.870  13.424  0.2973  0.4230 -0.1270
20448W        W35579   5.681   8.403  13.192 -0.2627 -0.0590  0.1533
20449W        W35580  11.954   8.696  10.891  0.1860  0.2138  0.0137
20450W        W35581   4.399   7.284  14.912  0.2931 -0.1286 -0.0664
20451W        W35582  10.596   9.208  11.979 -0.0636 -0.1571 -0.2421
20452W        W35583   5.553   0.992   4.996  0.0899  0.0528  0.0828
20453W        W35584   7.035   1.151  12.708  0.1234  0.0917 -0.1365
20454W        W35585   6.942   6.119   2.172 -0.0702  0.0112 -0.1395
20455W        W35586   5.458   2.291   0.916 -0.1260  0.1538  0.0241
20456W        W35587   9.871  18.141   0.045  0.0312 -0.2903  0.0085
20457W        W35588  10.108   3.134  12.292  0.0499 -0.1353  0.1931
20458W        W35589  18.018  15.490   3.439  0.0672 -0.2178  0.1249
20459W        W35590  16.622  11.052  13.213 -0.0556 -0.4869  0.2735
20460W        W35591  14.262  13.158  11.415  0.0003  0.1328  0.0092
20461W        W35592  11.056   5.752   2.901  0.0385 -0.2851  0.0957
20462W        W35593   0.810   4.924   0.599 -0.0413  0.0695  0.0755
20463W        W35594   9.271   9.473   0.829 -0.1586 -0.0842 -0.3565
20464W        W35595  10.533   6.792   2.926  0.0769  0.2150  0.0132
20465W        W35596  10.253   6.430   0.809 -0.3605 -0.1158  0.1446
20466W        W35597   8.878   3.980   2.576  0.1537 -0.0179  0.1222
20467W        W35598  14.157   5.109  12.061  0.1327  0.0567 -0.2655
20468W        W35599   8.466   9.994  12.776 -0.0683 -0.2438  0.0146
20469W        W35600  17.276   1.423  11.576  0.2002  0.3331 -0.1053
20470W        W35601  17.789   0.527  12.268  0.2352  0.2964  0.2593
20471W        W35602  11.138  15.198  10.836  0.0369 -0.4866 -0.1557
20472W        W35603   5.535  16.559  11.604 -0.1938  0.1396 -0.1820
20473W        W35604  18.344  10.896   3.921 -0.1910 -0.5005 -0.0214
20474W        W35605   5.858   1.954   2.369  0.1806  0.0172  0.0745
20475W        W35606   6.566  13.248  13.683 -0.2552  0.1528  0.3493
20476W        W35607   9.895   1.634   0.515  0.0580 -0.1599  0.1180
20477W        W35608  18.391   2.510   2.196  0.0560 -0.1234 -0.0299
20478W        W35609  12.554   4.653   5.922 -0.2878 -0.0177  0.2336
20479W        W35610  16.300  13.265  15.483 -0.1220  0.2114 -0.3598
20480W        W35611   9.397   3.420  10.402 -0.0606 -0.2190  0.1860
20481W        W35612   6.240  11.508  13.308 -0.1500 -0.0038 -0.0088
20482W        W35613   3.211  16.887  12.741  0.4818  0.2387  0.1373
20483W        W35614   3.319   2.003  11.557  0.0888  0.1530 -0.2015
20484W        W35615  17.550   3.484   9.925 -0.2337 -0.1199 -0.0749
20485W        W35616   4.789   5.336  10.171  0.1501  0.0382 -0.2174
20486W        W35617   6.992  12.577  14.808 -0.0216  0.0471 -0.2357
20487W        W35618  11.515  14.949   1.085  0.2727 -0.1673 -0.1123
20488W        W35619  13.645  10.670   1.005 -0.0648  0.3162  0.0145
20489W        W35620  13.933  13.511   9.701 -0.1558 -0.0328  0.0713
20490W        W35621   7.062  18.473   3.978 -0.0816  0.0342  0.0391
20491W        W35622  10.795   7.945  14.031 -0.0069 -0.4582 -0.0560
20492W        W35623  10.135   4.719   1.219 -0.0057  0.2038  0.0283
20493W        W35624  15.757  14.702   1.134  0.5107  0.2096 -0.0206
20494W        W35625   8.411  10.467   4.252 -0.2039  0.0355 -0.1120
20495W        W35626   1.490  10.434  11.722 -0.3039  0.1873 -0.0983
20496W        W35627   7.989  10.552  13.992  0.2375  0.2343  0.1468
20497W        W35628  14.946   1.201  13.030 -0.0977  0.2537  0.2481
20498W        W35629   9.214  17.050  12.343  0.2496  0.0472 -0.2479
20499W        W35630  10.060   1.384  15.540 -0.0316 -0.1603  0.2551
20500W        W35631   7.522  11.966  11.633  0.0658 -0.1757 -0.0624
20501W        W35632  18.177   1.086  13.491 -0.0052 -0.0625  0.1412
20502W        W35633  12.869   2.473   4.902  0.1780  0.0454  0.0845
20503W        W35634   7.540   1.093  10.656 -0.1126 -0.0547  0.1778
20504W        W35635   5.975  10.159  13.368  0.1655 -0.0250  0.0673
20505W        W35636  15.719  13.283   2.603  0.2555 -0.1580  0.1498
20506W        W35637   0.412   8.147  13.826  0.1415  0.2783  0.3561
20507W        W35638   8.287   0.831  14.253 -0.0298  0.0096  0.0156
20508W        W35639  15.048   6.421   1.230  0.2930  0.1739  0.3271
20509W        W35640  12.900  15.804  15.316 -0.2845 -0.2979 -0.2058
20510W        W35641   3.218   5.233   3.956 -0.0398 -0.0702 -0.0265
20511W        W35642   4.451  11.179   3.514 -0.0764  0.0077 -0.1005
20512W        W35643   7.885   1.588   2.836 -0.2227  0.1869  0.1010
20513W        W35644   5.198   5.018  11.866  0.1320 -0.1737  0.0639
20514W        W35645  17.978  15.216  11.251  0.0147 -0.3778  0.1033
20515W        W35646   1.175   0.897  10.423  0.0908 -0.2587 -0.0014
20516W        W35647   3.084   3.109  15.848 -0.1268  0.1355 -0.1973
20517W        W35648   0.309  15.941   0.483 -0.0174 -0.2391 -0.0832
20518W        W35649  18.345  10.996  15.480 -0.1269  0.0975 -0.1163
20519W        W35650   9.632   0.197   3.733 -0.0312  0.0212 -0.0041
20520W        W35651  11.011   3.205  13.642 -0.0023  0.2213 -0.0885
20521W        W35652   0.809   7.024  15.695  0.0304  0.0912 -0.1778
20522W        W35653   4.178  12.230  13.897  0.1956  0.0758 -0.0778
20523W        W35654  13.609  18.302  10.852 -0.0240  0.1952 -0.0677
20524W        W35655   1.983   0.520   1.002 -0.2541  0.0935 -0.0434
20525W        W35656   6.264   6.963  11.664  0.0218 -0.2256  0.0317
20526W        W35657  15.234  15.015  14.281  0.4211  0.0555 -0.1167
20527W        W35658   5.673   0.414   4.579  0.1491 -0.2428 -0.1807
20528W        W35659  10.713   2.284   3.666 -0.0213 -0.2931  0.3594
20529W        W35660  12.543  15.017   2.582 -0.0461  0.1766  0.0332
20530W        W35661  11.863  14.503  12.695 -0.2711 -0.1530 -0.1141
20531W        W35662   2.996  10.158   5.495  0.0616 -0.2391 -0.0584
20532W        W35663   6.858  10.038   3.053 -0.1894 -0.0113 -0.2278
20533W        W35664   7.361  11.761  11.138 -0.1377  0.0468 -0.0712
20534W        W35665   7.093   5.197   4.103 -0.1046 -0.2038 -0.0137
20535W        W35666   7.357   0.865   0.228 -0.3383  0.1299  0.3927
20536W        W35667  16.033  12.069  11.208  0.0914 -0.0797  0.2342
20537W        W35668   7.421  10.405   3.672  0.0612 -0.2685 -0.0334
20538W        W35669  18.505  13.741   1.064 -0.0859  0.1335 -0.1860
20539W        W35670   9.790  13.345   3.611  0.2120  0.1229 -0.3523
20540W        W35671  10.523   9.534  13.788  0.1706  0.2582  0.0960
20541W        W35672  13.432   8.593   2.557  0.0144  0.2200 -0.0706
20542W        W35673   2.448  11.698  12.067 -0.1121 -0.0499 -0.2090
20543W        W35674   4.115  15.875   4.652 -0.3287  0.0954 -0.1446
20544W        W35675  12.238  14.669  10.851  0.1416  0.0603  0.0913
20545W        W35676  13.886   3.669   5.219  0.1879  0.0049  0.1211
20546W        W35677   0.833  11.146   3.106 -0.0440  0.2026 -0.1295
20547W        W35678   0.674  13.234  15.411 -0.3809  0.0137  0.1564
20548W        W35679   2.700  10.846  15.397  0.1786 -0.2055 -0.0683
20549W        W35680   4.621  10.483  12.816  0.0232 -0.0614 -0.1908
20550W        W35681  10.699   1.767  14.765 -0.2812  0.1397  0.0149
20551W        W35682  15.627  12.166   4.253 -0.0629 -0.2414 -0.1980
20552W        W35683   2.027   8.348  15.256 -0.3000  0.2699  0.1222
20553W        W35684  10.233  11.050  13.156  0.1418  0.0295  0.0401
20554W        W35685   0.416  15.991  14.188  0.2151 -0.0716  0.0999
20555W        W35686  16.576  16.206  14.909 -0.1673  0.1032  0.1627
20556W        W35687   7.476   4.019   2.555 -0.0994  0.2965 -0.5124
20557W        W35688   0.933   0.584  13.419 -0.1083  0.1535 -0.3672
20558W        W35689   5.118   3.809   3.784  0.0723 -0.1445  0.1684
20559W        W35690   4.548  17.351   0.947  0.1575  0.3210  0.2927
20560W        W35691  14.237  12.791   2.654  0.2085  0.1810  0.3827
20561W        W35692   1.476  14.775   2.354  0.1993 -0.0299  0.0974
20562W        W35693  17.313   4.113  13.433 -0.3313 -0.1052  0.2456
20563W        W35694  18.500  18.398   4.528 -0.0279  0.0125 -0.2269
20564W        W35695  10.973  10.157  13.140 -0.1867 -0.1324 -0.0006
20565W        W35696  17.419  12.168   2.845 -0.1005 -0.0435 -0.4069
20566W        W35697   2.161  13.247   2.016 -0.2075 -0.0198 -0.0094
20567W        W35698  10.371  14.619  15.825  0.2468  0.0449 -0.0380
20568W        W35699   5.665   1.644  12.943  0.2700  0.2681  0.0738
20569W        W35700   5.906  11.587  11.943 -0.0848  0.0915  0.1929
20570W        W35701   3.541  15.318  14.492 -0.0447  0.1814 -0.0509
20571W        W35702  14.070   9.437   4.223 -0.6179 -0.5587  0.3142
20572W        W35703  13.527  14.798  14.940  0.1465  0.0190 -0.0178
20573W        W35704  13.707  14.502   5.119 -0.1310 -0.1033  0.5247
20574W        W35705   4.473  10.008   0.994 -0.0945  0.0132  0.0751
20575W        W35706  18.050  17.685   4.033 -0.3264 -0.2448 -0.0954
20576W        W35707  10.693   7.843  15.720 -0.0089  0.2283  0.1490
20577W        W35708   4.161   9.603   0.693  0.2079  0.1871 -0.4080
20578W        W35709   7.810   3.906  12.269 -0.1354  0.1421  0.0277
20579W        W35710  10.289   5.501   2.395  0.2078 -0.0209  0.1479
20580W        W35711   1.525   6.500  12.195 -0.1126  0.0540  0.1198
20581W        W35712   4.314  17.486   5.692  0.1212  0.0551  0.1515
20582W        W35713   8.511  16.409  10.619  0.0039 -0.0904 -0.0788
20583W        W35714  15.297   3.532  10.635  0.2326  0.2538  0.0712
20584W        W35715  14.925   3.081   1.459 -0.1097  0.2010  0.0485
20585W        W35716  13.993   6.953   2.548  0.2238 -0.2750 -0.0273
20586W        W35717   1.208   5.498  10.519  0.2484 -0.2814  0.0651
20587W        W35718   0.376  15.884  13.704  0.1783 -0.1690  0.3292
20588W        W35719   7.608  11.829  15.088  0.0343 -0.2061  0.2590
20589W        W35720   2.341  15.635   1.962 -0.2592  0.2156 -0.1278
20590W        W35721   3.563  10.892   4.024 -0.1179  0.1052 -0.0458
20591W        W35722  12.545   3.504  11.633 -0.1384  0.0897 -0.0573
20592W        W35723  12.139   0.125   1.269  0.1406 -0.0870  0.2815
20593W        W35724   6.075  16.704  12.263 -0.1217 -0.2197  0.3332
20594W        W35725  10.532   4.274   3.912 -0.0779 -0.0806  0.1438
20595W        W35726  17.480   1.609   3.054 -0.0998  0.2957  0.2973
20596W        W35727  12.114  18.241  12.397  0.0196  0.0188 -0.1317
20597W        W35728   4.837  10.677  12.212 -0.0021  0.0287 -0.3983
20598W        W35729   1.162  13.811  12.755 -0.3095 -0.0766  0.0801
20599W        W35730   8.545  17.241   2.197  0.2341  0.2126  0.0233
20600W        W35731   0.600  12.559   2.578  0.0883  0.0906  0.0226
20601W        W35732  14.274   3.100   0.922  0.0122  0.2059 -0.0981
20602W        W35733   0.174  10.515  14.787  0.0316 -0.0748  0.0554
20603W        W35734   0.937  14.706  12.863 -0.0453 -0.0154 -0.0185
20604W        W35735  17.224   3.173  13.573 -0.0176 -0.0488  0.1216
20605W        W35736  13.681  15.782  10.405 -0.1793 -0.2921  0.2515
20606W        W35737  14.563  17.823   5.305  0.0349 -0.0242 -0.3549
20607W        W35738  15.055   6.439   5.801 -0.2991  0.1309 -0.3431
20608W        W35739  17.558   1.279   4.767  0.0070 -0.0365  0.0221
20609W        W35740  17.807  13.901  12.891  0.0963  0.2779 -0.2542
20610W        W35741  10.672   2.756  12.481  0.2980  0.1387 -0.0834
20611W        W35742   5.659  15.200   3.481 -0.0431  0.0333 -0.0549
20612W        W35743   9.133  17.807   4.586 -0.2316 -0.1005  0.1629
20613W        W35744  15.665   6.626  12.289  0.0591  0.2092 -0.0329
20614W        W35745  17.269  17.556   5.423  0.2422  0.4502  0.2706
20615W        W35746   4.856   6.364   4.990  0.1467 -0.2691  0.0085
20616W        W35747   8.587   9.550   1.722  0.1287  0.0765 -0.4111
20617W        W35748   3.374  14.708  13.885  0.1379  0.1273 -0.1575
20618W        W35749  15.595  17.059  12.297 -0.0258  0.1915  0.2374
20619W        W35750   7.314  15.124   9.600  0.0886 -0.2041 -0.1303
20620W        W35751  10.455   5.713  13.416  0.0807 -0.0444 -0.0255
20621W        W35752   1.446   7.327  12.607 -0.2947  0.1650 -0.1554
20622W        W35753   7.922   4.952   2.554  0.0959 -0.0179  0.2606
20623W        W35754   4.165   0.167  13.378 -0.1448  0.2693  0.1467
20624W        W35755  10.104   5.362  15.146 -0.0436  0.3668 -0.5347
20625W        W35756   6.754   2.547   5.136  0.1615  0.3353  0.0613
20626W        W35757   4.590   1.262  14.095  0.0388 -0.1311  0.3703
20627W        W35758   5.198   9.094   2.102 -0.2126  0.0139 -0.2453
20628W        W35759   2.394   5.582   0.502  0.2479 -0.0869  0.1311
20629W        W35760   5.972   5.859  12.947 -0.3765  0.0667  0.1187
20630W        W35761   6.060   6.996  12.135  0.0369  0.1886  0.0141
20631W        W35762  12.212   4.044  10.888 -0.0322 -0.2333  0.1649
20632W        W35763   4.387   9.998  15.394  0.1115  0.3489 -0.0659
20633W        W35764   1.329  15.098  15.633  0.2184  0.1601  0.0089
20634W        W35765  13.702   7.639  11.207  0.2276  0.1222  0.1294
20635W        W35766  10.367   6.438  11.917  0.5024 -0.2268 -0.1280
20636W        W35767  15.880  11.464  14.244 -0.0343 -0.2549 -0.2123
20637W        W35768   1.329   9.487  12.845  0.2525  0.0235 -0.0094
20638W        W35769   0.795   5.610  12.363  0.1399  0.0407  0.1081
20639W        W35770  17.249   3.777   2.611 -0.0855  0.0170  0.1075
20640W        W35771   7.008   1.791  14.722 -0.0279  0.3010  0.1552
20641W        W35772   1.279   5.613  12.249  0.3552  0.0411 -0.1042
20642W        W35773   0.881  18.301   0.068  0.0030 -0.0735  0.5555
20643W        W35774  16.158  14.984  13.488  0.2054  0.2182  0.0252
20644W        W35775   4.594  14.547   2.737 -0.0082  0.0340 -0.2826
20645W        W35776   0.743  10.877  13.177  0.4344  0.1026  0.2323
20646W        W35777   2.776   6.889  12.118  0.0442  0.1949 -0.2202
20647W        W35778  15.567  15.071  15.753 -0.0203 -0.2029  0.0420
20648W        W35779   9.121   4.093   4.467 -0.1942  0.1859 -0.2615
20649W        W35780   2.232   3.150   6.270  0.3339  0.1366 -0.0660
20650W        W35781   5.438   4.713  10.843  0.5232 -0.0840  0.2175
20651W        W35782   6.901   6.513   1.013  0.3115  0.0034 -0.1101
20652W        W35783   1.765  12.306   5.655 -0.0956 -0.3042  0.0012
20653W        W35784  17.412  12.029  10.131  0.0885  0.2151 -0.1959
20654W        W35785   0.663  12.949   2.965  0.1405  0.2965  0.0074
20655W        W35786   5.011   6.271   3.001 -0.2326  0.0782 -0.1206
20656W        W35787   2.979   6.813  15.759  0.1864  0.1388  0.1527
20657W        W35788   2.071  10.617   4.409  0.1399  0.0752 -0.0891
20658W        W35789   5.075   5.700  13.325 -0.4151 -0.0734  0.0953
20659W        W35790   3.393  15.602   2.697  0.0388  0.1757 -0.1395
20660W        W35791   4.532   9.223  13.060 -0.0795  0.1306 -0.1083
20661W        W35792   8.382   5.921  10.940 -0.2260  0.0966 -0.0207
20662W        W35793  15.019  16.806  11.876  0.0869  0.0508 -0.2085
20663W        W35794   1.588  13.742   3.455  0.0963  0.1305  0.0438
20664W        W35795  15.538  11.209   1.643 -0.0608 -0.0676  0.0264
20665W        W35796   0.519   7.675   0.392 -0.3545  0.0850  0.2746
20666W        W35797   6.547  11.308   0.831 -0.2902 -0.0292 -0.1581
20667W        W35798  12.763  10.557  11.198  0.1138 -0.1335  0.1137
20668W        W35799  17.403   5.864   1.364 -0.0102  0.2683 -0.3471
20669W        W35800   4.880   6.798   0.095 -0.0731  0.1266  0.2574
20670W        W35801  13.756  16.783  10.303 -0.0233  0.3498 -0.1311
20671W        W35802   8.685   0.654  14.535 -0.3210 -0.0943  0.1480
20672W        W35803   7.002  18.259   9.597 -0.3511  0.3719 -0.1113
20673W        W35804   7.561   5.636   3.226  0.1162 -0.0830  0.0549
20674W        W35805   1.858   5.456   1.105 -0.2707  0.1605  0.2592
20675W        W35806   1.783   2.503  14.690  0.2300  0.0405 -0.3256
20676W        W35807  11.616  13.001   3.264  0.0148 -0.1925  0.0335
20677W        W35808  15.632   9.166  10.265  0.2922  0.0320  0.1475
20678W        W35809  17.762   1.356   3.334 -0.3364  0.2799 -0.0307
20679W        W35810  11.421  16.987  14.930 -0.2374 -0.0051  0.2494
20680W        W35811  17.908  16.226  11.135 -0.0611 -0.0618  0.1559
20681W        W35812  13.144   3.347   2.699  0.1745  0.0042  0.3518
20682W        W35813  15.627  15.917   3.122  0.5545 -0.5495  0.1490
20683W        W35814   9.812  18.131  12.068 -0.2626 -0.0359  0.0166
20684W        W35815  12.610  18.410  13.897 -0.1355 -0.2305  0.2737
20685W        W35816   7.795   6.950   3.759  0.0573  0.0792  0.2790
20686W        W35817  14.807   9.566   4.885  0.1214  0.0793 -0.0394
20687W        W35818  12.896   7.765   5.402  0.1643  0.0245  0.2009
20688W        W35819   5.640   7.611  13.275 -0.0309 -0.0831  0.1932
20689W        W35820  13.330  10.383  12.498  0.1980  0.4397 -0.0267
20690W        W35821  18.430   7.395  11.971 -0.1259  0.0174 -0.1583
20691W        W35822  15.636   8.514  13.199  0.1221 -0.1799 -0.1986
20692W        W35823  15.241  13.502  11.844  0.1971 -0.0756  0.1105
20693W        W35824  13.794   4.226   4.676  0.1822 -0.2382  0.0319
20694W        W35825   2.330   1.614  10.539  0.0152  0.2601  0.1079
20695W        W35826  18.128  10.418   5.475  0.0505 -0.1684  0.1746
20696W        W35827  17.480  13.452   1.056 -0.1727 -0.0525 -0.2020
20697W        W35828   1.542   8.138   2.610  0.0694  0.2434  0.0128
20698W        W35829   8.416  17.962  15.850  0.0488  0.2188  0.1445
20699W        W35830   2.541   4.093  15.494  0.1433 -0.0960 -0.1451
20700W        W35831  17.315  17.165  12.228 -0.0243 -0.2159  0.1834
20701W        W35832  14.966   2.402   0.658  0.3632  0.3269  0.0738
20702W        W35833   8.300   1.943  11.685 -0.1215 -0.0620  0.2048
20703W        W35834   9.884  12.680  13.704  0.1284  0.1774  0.1458
20704W        W35835  15.492  11.194   5.020 -0.3146 -0.0392  0.1042
20705W        W35836   4.976   8.149   5.406  0.1079  0.0017 -0.0085
20706W        W35837   2.836   3.031   4.602  0.2366  0.1560  0.1678
20707W        W35838  15.583  10.753  11.860 -0.1389  0.3360  0.2250
20708W        W35839   3.295   9.808  11.158 -0.3816 -0.1331 -0.3132
20709W        W35840   8.978   6.723   4.430 -0.0308  0.2320 -0.1422
20710W        W35841   1.279   7.938   2.186 -0.0730 -0.2361 -0.0991
20711W        W35842   6.360   5.219  13.227 -0.0600 -0.3987 -0.1428
20712W        W35843   2.742  12.049  11.627  0.0260  0.3349 -0.1676
20713W        W35844   1.455  18.147   2.594 -0.0670  0.1485 -0.0594
20714W        W35845   1.064  11.491   0.274  0.0808  0.0256 -0.1921
20715W        W35846   8.826  16.792  10.331 -0.1600 -0.2731 -0.0573
20716W        W35847  12.903  17.010   3.752 -0.0202 -0.0437  0.2481
20717W        W35848   7.096  18.127  14.815 -0.2430  0.1031 -0.2361
20718W        W35849  12.026  11.019   0.596 -0.2249 -0.0092  0.0527
20719W        W35850   0.196   9.855  13.436 -0.0482 -0.0349  0.1805
20720W        W35851   6.191   6.532  12.558 -0.0876 -0.0326  0.0847
20721W        W35852  13.919  16.086   1.202  0.0405 -0.1145  0.0595
20722W        W35853   9.376   4.497   3.767 -0.0986  0.2425  0.0388
20723W        W35854   9.334   7.646  15.487 -0.2924 -0.3588 -0.1069
20724W        W35855   6.406   7.296  15.010  0.0487  0.1430  0.0490
20725W        W35856  17.647   6.360  14.749 -0.1964 -0.0783  0.1208
20726W        W35857   6.237  10.033  12.889  0.1231  0.1595  0.2645
20727W        W35858  12.333  17.742   1.141  0.0242  0.3970 -0.3701
20728W        W35859   3.045   0.217   9.646  0.2627  0.0570  0.1498
20729W        W35860   0.452  15.166   2.546 -0.1707 -0.0095  0.0527
20730W        W35861  17.618  15.516  14.341  0.0847 -0.1693 -0.1032
20731W        W35862  17.555  13.662  15.895  0.0340  0.2103 -0.1501
20732W        W35863   4.728   0.903  13.182 -0.5053 -0.0338  0.1073
20733W        W35864   4.153   6.199  14.123 -0.1259 -0.0642 -0.2168
20734W        W35865  13.475   1.521   0.985 -0.1426  0.2390 -0.2139
20735W        W35866   9.135  15.886   4.754  0.0955  0.3504  0.2422
20736W        W35867   6.292  12.320   3.232  0.1336  0.2816  0.0546
20737W        W35868  13.019   8.717  15.801  0.1323 -0.2305 -0.1081
20738W        W35869  15.859   3.079  15.482  0.2069  0.1600  0.1300
20739W        W35870  16.370  12.571   3.728  0.0872 -0.0957 -0.1320
20740W        W35871   0.108  15.630  14.506  0.2791 -0.0952  0.1914
20741W        W35872  15.061   4.335   4.471  0.0374 -0.0380  0.0645
20742W        W35873   1.511   5.996   4.288 -0.1022  0.1589  0.1391
20743W        W35874   2.148  17.058  11.106  0.1314  0.1501 -0.2653
20744W        W35875   2.825   4.038   1.758 -0.0055  0.1008  0.2690
20745W        W35876   8.801  11.504   1.222  0.0582 -0.0612 -0.0598
20746W        W35877   2.028   1.348  11.054 -0.2134 -0.1113 -0.1574
20747W        W35878   8.808   3.605   2.890 -0.0342 -0.0356 -0.0164
20748W        W35879  18.448   7.769  14.527  0.0196 -0.0385 -0.0509
20749W        W35880   7.117  17.779  15.711  0.0336 -0.1475  0.0575
20750W        W35881  13.364  12.672   2.667 -0.2687  0.1189  0.0182
20751W        W35882  11.121  15.034  12.816  0.0185  0.3527  0.0767
20752W        W35883  12.926  13.850   3.275  0.0633 -0.2270 -0.2288
20753W        W35884   4.122   2.697   3.525 -0.1511  0.2962  0.2925
20754W        W35885   6.808   5.741   1.466 -0.0960  0.1860  0.1971
20755W        W35886  17.074  16.043   1.866 -0.1999  0.0530  0.0150
20756W        W35887   9.111   7.789  12.814 -0.1677  0.1032  0.3631
20757W        W35888   6.187  12.285   4.494 -0.0234  0.0619  0.2532
20758W        W35889  18.063  14.974  11.679  0.1670  0.4143 -0.1511
20759W        W35890  18.158   2.647  11.702 -0.0546  0.1827 -0.0361
20760W        W35891  10.555  12.155   1.950  0.1294 -0.1394  0.2942
20761W        W35892  11.651   7.427  14.724 -0.2039  0.0495 -0.0542
20762W        W35893   9.761   4.509   5.540 -0.1176 -0.2300 -0.1153
20763W        W35894  16.241  12.079   0.614  0.1070 -0.0929 -0.0139
20764W        W35895   6.649  11.275   2.259 -0.1644 -0.2445 -0.0920
20765W        W35896   2.937  16.830  13.188 -0.1575 -0.0437 -0.2763
20766W        W35897   9.822   0.904  11.952 -0.2042  0.0044 -0.1908
20767W        W35898   3.199  13.955   2.665 -0.1784  0.2272  0.0872
20768W        W35899   3.512  14.704   2.635 -0.3774  0.2686  0.2166
20769W        W35900  11.194  15.692  15.793  0.0566 -0.0572  0.0198
20770W        W35901   1.290  11.029   2.203 -0.0233  0.0745  0.0011
20771W        W35902   5.392   0.216   9.652 -0.0877  0.0818  0.3796
20772W        W35903  12.132  15.770   4.801 -0.0209 -0.0431  0.0580
20773W        W35904  14.253  13.108   0.381 -0.0453  0.0867 -0.3031
20774W        W35905   3.269  13.733  13.071 -0.0483 -0.2423 -0.0207
20775W        W35906   6.385   2.149   5.014 -0.3986 -0.0274 -0.0927
20776W        W35907  17.200   6.459   4.181  0.3980  0.0593  0.1860
20777W        W35908  15.983  16.110  14.167 -0.0579  0.3109 -0.0679
20778W        W35909  13.090  15.842   5.778 -0.0621 -0.0318 -0.0260
20779W        W35910   5.232   1.110   1.166 -0.3552 -0.0179 -0.1387
20780W        W35911  11.072  18.342  15.426 -0.2066  0.2895  0.0463
20781W        W35912   0.180   3.011   5.234 -0.3896  0.0406  0.2700
20782W        W35913   0.265  13.780  10.437 -0.1098  0.1968  0.3870
20783W        W35914  17.504   2.004   1.096  0.0917 -0.0222  0.0924
20784W        W35915   5.507   7.124  12.800 -0.0921  0.1372  0.1409
20785W        W35916   9.383   3.841  13.281 -0.1351  0.0331 -0.1810
20786W        W35917  15.289   1.840   3.026 -0.2071 -0.1134  0.0094
20787W        W35918  11.440  13.779   4.610  0.1783 -0.0592  0.0695
20788W        W35919   9.659   5.016   5.204  0.1113  0.0688 -0.3294
20789W        W35920   2.364   3.360  15.068 -0.1357  0.1637 -0.0888
20790W        W35921  10.989   2.262   4.776 -0.0000 -0.1160 -0.0490
20791W        W35922   4.241   3.506   0.646 -0.0104  0.1021  0.1361
20792W        W35923  14.835   1.654   4.217 -0.4816  0.4933  0.0948
20793W        W35924   9.571   3.877  10.758  0.2763 -0.0457  0.0177
20794W        W35925  14.172   9.224  14.485  0.0469 -0.1165 -0.2786
20795W        W35926   5.956   5.269   1.950 -0.1480  0.0964 -0.0948
20796W        W35927   7.973   4.432   1.167  0.0468 -0.2948 -0.2746
20797W        W35928   1.770  18.066  11.526  0.2326  0.4812  0.0212
20798W        W35929  10.578   1.693  12.770 -0.0936 -0.0160  0.4085
20799W        W35930  14.222  10.041   1.404  0.1658  0.0890 -0.3531
20800W        W35931   6.566   5.255   1.389 -0.2195  0.0502 -0.2438
20801W        W35932  16.696  17.856   2.832 -0.1516  0.2210  0.2086
20802W        W35933   4.328   0.932   0.901 -0.1651  0.0505 -0.0940
20803W        W35934   8.131   2.822  15.727 -0.1723 -0.0703  0.0256
20804W        W35935  18.529  17.564   3.057  0.1371  0.1437  0.3301
20805W        W35936   1.660   6.297   0.854  0.2590  0.2308 -0.1720
20806W        W35937   7.513  13.351  11.509 -0.0710  0.0741 -0.0611
20807W        W35938  12.616   4.235   5.090  0.0660  0.3774 -0.0439
20808W        W35939  13.219   5.979  14.910 -0.3527  0.1563 -0.0218
20809W        W35940  13.110  16.552   1.025  0.5079 -0.1378 -0.1356
20810W        W35941   5.000   4.839   2.692  0.1257 -0.0358  0.2730
20811W        W35942   3.883  12.084  12.151  0.0516 -0.0214 -0.1006
20812W        W35943  17.361  18.163   4.981  0.1264 -0.2675 -0.2763
20813W        W35944   5.718   6.700  10.323 -0.3038  0.0966  0.0989
20814W        W35945   8.295  14.999  13.753  0.2323 -0.3738  0.0343
20815W        W35946  10.177   5.831  15.509 -0.0663  0.4145  0.0002
20816W        W35947  10.432   8.140   4.168  0.0008  0.4208 -0.0783
20817W        W35948  13.287   2.789  15.555  0.0210  0.3424  0.1130
20818W        W35949  11.897   7.358  11.088  0.1037  0.0393  0.0959
20819W        W35950   2.793   3.557  15.450 -0.2230  0.2892 -0.1535
20820W        W35951  14.003  13.331  14.368  0.2202 -0.2384  0.1660
20821W        W35952   7.946  16.031   0.255 -0.2758 -0.0720  0.2451
20822W        W35953  10.080   7.507   1.628 -0.1245  0.1567  0.3496
20823W        W35954   5.448   9.040  12.348  0.2788 -0.0041 -0.0759
20824W        W35955   7.737   0.355  12.126 -0.2375  0.0404  0.0626
20825W        W35956   3.117   1.024  14.698  0.2326 -0.1494  0.0898
20826W        W35957   2.866   5.707   3.459 -0.1328 -0.0062  0.4553
20827W        W35958  12.722   2.722   0.743 -0.0591 -0.0463 -0.1715
20828W        W35959  15.325   5.293   5.549  0.0073 -0.3129  0.3875
20829W        W35960   2.854  13.438  12.258 -0.2339 -0.2212  0.2073
20830W        W35961  10.491   5.016  11.694  0.0981 -0.1647 -0.1636
20831W        W35962  10.250   1.174  15.161 -0.0229  0.0844 -0.0381
20832W        W35963  18.320  11.891   1.884 -0.1210 -0.3584  0.1484
20833W        W35964   4.292   0.122   9.861 -0.1360  0.2196  0.3460
20834W        W35965  15.343   2.613   2.002 -0.0185 -0.0535  0.0989
20835W        W35966   5.233   1.805   0.475  0.1404  0.1654 -0.2620
20836W        W35967   1.291   5.909   3.079 -0.0178 -0.0948 -0.0388
20837W        W35968   8.774   9.375  14.813  0.2387 -0.0821  0.1261
20838W        W35969   0.856   7.384   0.232  0.0587 -0.0012  0.2320
20839W        W35970   3.162   5.169   1.047  0.2408 -0.1769  0.1860
20840W        W35971   2.094  13.760   5.026  0.1349 -0.2720  0.2368
20841W        W35972  10.479  12.652   4.902  0.1093  0.0723 -0.0436
20842W        W35973   3.507   6.371   5.420  0.0538 -0.0693  0.2688
20843W        W35974   8.463   4.297  14.303  0.2921 -0.0141  0.2132
20844W        W35975   8.837  12.843  12.810  0.0011 -0.2997  0.0945
20845W        W35976   5.192  13.847   0.827 -0.0960 -0.2190 -0.3272
20846W        W35977  10.300   6.717  12.691 -0.2252  0.2416 -0.0210
20847W        W35978  15.250  10.871  13.429  0.0042 -0.0692 -0.0447
20848W        W35979   3.376   6.389   1.653 -0.1513  0.0383  0.0763
20849W        W35980   9.342   3.138  14.456 -0.0775  0.0587  0.0343
20850W        W35981  17.075   2.301   2.840  0.1765 -0.0337 -0.0010
20851W        W35982  13.353  13.492   3.449  0.1354 -0.0491  0.2602
20852W        W35983  12.783  13.575   0.964 -0.1741  0.0351 -0.1171
20853W        W35984   2.531   8.243   0.689  0.0394  0.1580 -0.1393
20854W        W35985   5.482   7.393   3.957  0.1073 -0.2849  0.2351
20855W        W35986   0.557  17.919  10.947  0.1283  0.1457 -0.0492
20856W        W35987  11.844  13.854  15.800 -0.2738 -0.1211 -0.1328
20857W        W35988  14.698   8.952   9.787 -0.3885  0.1431 -0.2646
20858W        W35989  12.556   6.032   4.180  0.0972  0.0717  0.0559
20859W        W35990  17.592   7.268  12.006  0.0158  0.2491 -0.1368
20860W        W35991   5.497  10.872   0.952 -0.0985  0.0313 -0.3298
20861W        W35992  12.413  17.519  10.676 -0.3146  0.5136  0.1223
20862W        W35993   0.646   5.487   2.682  0.1359 -0.2165 -0.0617
20863W        W35994   1.761   7.255   3.741 -0.0904 -0.1965  0.1209
20864W        W35995   6.932   5.119   4.578  0.0655  0.2560  0.0514
20865W        W35996   2.632   7.863  15.865  0.0085  0.1486  0.0120
20866W        W35997  16.722   0.838  12.436  0.0169  0.0083  0.3923
20867W        W35998   7.023  15.038  11.589 -0.0938 -0.0060  0.3718
20868W        W35999   6.777  13.470   9.966  0.0400  0.0694 -0.0276
20869W        W36000  18.294   1.200  12.451 -0.0585  0.1576  0.5377
20870W        W36001  10.080  12.213  13.954  0.1840 -0.1122 -0.1241
20871W        W36002  14.047  10.914   2.667 -0.1652 -0.4857  0.1518
20872W        W36003  16.903   3.088   0.239 -0.1909 -0.0702 -0.1006
20873W        W36004   8.497  18.063  12.627 -0.1814 -0.3807  0.1947
20874W        W36005  17.502   8.893   0.717  0.1864  0.0007 -0.1101
20875W        W36006   2.503  16.802  14.075 -0.1548 -0.3321  0.0609
20876W        W36007  13.722   6.230  12.146  0.1514  0.2713  0.0403
20877W        W36008  14.298   7.493   4.742  0.3654 -0.0529  0.2748
20878W        W36009  16.148   8.026   3.136 -0.2208 -0.3264  0.0729
20879W        W36010  16.665  11.047   3.887 -0.0850 -0.3390 -0.0351
20880W        W36011   8.326   9.049  14.927 -0.0423 -0.1736  0.4024
20881W        W36012   2.525   5.324   5.953 -0.2316  0.0431  0.3481
20882W        W36013  12.229  13.372   2.239 -0.0688 -0.2050  0.3715
20883W        W36014   6.430   2.460   4.263  0.0334 -0.0908  0.1825
20884W        W36015   2.941   5.272   1.500 -0.1490  0.0831  0.0783
20885W        W36016   8.490   2.450   2.908  0.3260  0.2100  0.1245
20886W        W36017  13.122  10.765   1.100 -0.1728  0.4105  0.0853
20887W        W36018  17.060  15.683   4.977 -0.2369  0.2731 -0.2629
20888W        W36019   1.753  17.137  11.467 -0.1165  0.3583 -0.2532
20889W        W36020   8.324  15.854  11.751  0.0858 -0.2103  0.0987
20890W        W36021  17.116   9.901  14.162  0.0637 -0.1028 -0.0620
20891W        W36022   3.426   1.856   1.379  0.0717 -0.2511 -0.1126
20892W        W36023  12.534  15.888  10.735  0.0413 -0.0338  0.0662
20893W        W36024   2.142   3.228   0.239 -0.0445 -0.5169 -0.0288
20894W        W36025   0.186   7.542   4.586  0.1230 -0.0650 -0.2483
20895W        W36026   0.108   3.809  13.391  0.0748  0.3869  0.5102
20896W        W36027   1.568   0.194  15.590  0.0439 -0.2621  0.3240
20897W        W36028   9.947  13.143  13.858  0.3684 -0.2433  0.1281
20898W        W36029   7.063   4.526   5.243 -0.0427 -0.0127  0.0567
20899W        W36030  14.612  12.464   2.791 -0.1095  0.0268 -0.0542
20900W        W36031   5.199  13.409   0.630 -0.0618 -0.0850  0.1272
20901W        W36032   2.143   8.314   1.090  0.0365  0.0985 -0.0979
20902W        W36033   8.721  11.237  13.239 -0.0097  0.0505  0.1247
20903W        W36034   3.092  16.814  11.729 -0.2961 -0.0524 -0.3564
20904W        W36035  13.018  10.580   3.598  0.1735 -0.2629 -0.2130
20905W        W36036  16.133   7.505   3.153 -0.0823  0.0593 -0.0710
20906W        W36037   7.496   8.143   1.655 -0.6391  0.1117 -0.0790
20907W        W36038   3.532  11.082  11.377  0.1406 -0.0911 -0.0119
20908W        W36039   4.398  10.159   4.544  0.1617  0.1013 -0.3450
20909W        W36040   9.452   1.486   0.383  0.1214 -0.4782  0.0532
20910W        W36041   1.333   0.516   0.556  0.1037  0.2914 -0.0844
20911W        W36042   9.388   2.236  14.092 -0.2742 -0.2167  0.0674
20912W        W36043   7.171   0.295  11.698  0.2122  0.1552  0.0031
20913W        W36044   2.560   9.266  14.268 -0.0784  0.0110  0.1502
20914W        W36045  10.423   4.296  13.932  0.3157 -0.3710  0.1459
20915W        W36046  11.365  13.893  14.766  0.0227 -0.0860 -0.1893
20916W        W36047   0.767   0.475   1.845 -0.1961 -0.2856  0.1105
20917W        W36048  15.094  17.062  15.341 -0.2105 -0.2199  0.0521
20918W        W36049  15.832  18.278   1.172 -0.1533 -0.3292  0.1930
20919W        W36050   6.242   4.118   4.808  0.0369  0.3161 -0.0042
20920W        W36051   7.870  15.118  13.269  0.3075 -0.1762  0.0922
20921W        W36052   6.922  18.390  15.233  0.0457 -0.2102 -0.0012
20922W        W36053   6.764  18.268  12.857 -0.2297  0.2462  0.0877
20923W        W36054   4.091  10.866   0.040  0.1520  0.1730  0.1475
20924W        W36055  17.191  13.077  11.368 -0.0726  0.1076  0.0886
20925W        W36056   0.683   8.115   0.304  0.3238  0.2450 -0.0168
20926W        W36057   8.404  13.708   0.681 -0.0810  0.2230  0.0223
20927W        W36058   8.443   0.110   4.994  0.2361  0.2006 -0.3551
20928W        W36059  10.757   3.428   1.474 -0.2434 -0.0602  0.2404
20929W        W36060   2.019  17.538  12.389  0.0449  0.2102  0.1474
20930W        W36061   0.532   4.643   1.904  0.1450  0.6649 -0.3720
20931W        W36062   2.228   6.374   5.075 -0.0819  0.0127 -0.0479
20932W        W36063   8.658  10.074   4.467 -0.0211 -0.1501  0.1669
20933W        W36064  15.121  12.812  10.786 -0.1715 -0.0564  0.2104
20934W        W36065  11.967   6.444   3.765 -0.0221 -0.1852 -0.1634
20935W        W36066  17.311   1.944   0.622  0.0957 -0.0837  0.2322
20936W        W36067  13.110   4.784  14.035  0.1091 -0.4670 -0.0862
20937W        W36068  17.238  17.840   4.653 -0.0175  0.4690  0.0608
20938W        W36069   7.993   0.887   2.752 -0.1798  0.2326 -0.1465
20939W        W36070  11.439   2.551   3.180  0.1045 -0.0639  0.0649
20940W        W36071   3.183   3.630  15.825 -0.3028  0.0311 -0.2205
20941W        W36072  18.088   2.706   0.268  0.2891  0.0885  0.0348
20942W        W36073  10.312  13.003  13.562  0.2198  0.0110  0.0878
20943W        W36074  15.445  15.330   2.555 -0.1263  0.3371  0.1209
20944W        W36075   9.555   7.175   5.865  0.1205  0.0335 -0.0178
20945W        W36076  14.977  16.820   0.418  0.0617  0.0356  0.1488
20946W        W36077   2.745   8.698   0.737 -0.2440 -0.1966  0.0259
20947W        W36078   2.629  12.001   2.263  0.2810 -0.2124  0.0437
20948W        W36079   3.570  12.403  11.994 -0.0298  0.2142 -0.0196
20949W        W36080  14.446   9.143   1.732  0.0152 -0.0135  0.0300
20950W        W36081   1.858   7.749  12.317  0.0417 -0.4004 -0.1889
20951W        W36082   8.231  18.060   3.719 -0.0098 -0.1149 -0.0663
20952W        W36083   1.715   7.811   3.620  0.0164  0.1945 -0.1504
20953W        W36084  16.334  15.280   4.412  0.4322 -0.0977 -0.0328
20954W        W36085   5.332   7.868  15.442  0.2394 -0.1579  0.2162
20955W        W36086   7.228   6.582  13.288 -0.1081  0.2242  0.1159
20956W        W36087   3.583   5.245  12.258  0.2089  0.1245 -0.0149
20957W        W36088  11.252  12.166   1.420 -0.0330  0.3741  0.0549
20958W        W36089   5.169   7.727   3.634 -0.1026  0.0890  0.0704
20959W        W36090  17.110   8.062  14.248 -0.2271 -0.0380  0.1938
20960W        W36091  10.314   9.256  13.353 -0.1402  0.3346 -0.3470
20961W        W36092  12.354   5.265  11.244 -0.1988 -0.1560 -0.4781
20962W        W36093   1.698  14.736  14.241 -0.0218  0.0625  0.3498
20963W        W36094  14.632   2.794   2.351 -0.0082  0.0211 -0.1768
20964W        W36095   0.276   7.934   2.113 -0.0015 -0.2883  0.0586
20965W        W36096  10.670   1.088   1.505  0.0353  0.0349  0.2409
20966W        W36097   6.550   2.194  12.033 -0.0515  0.2198 -0.1055
20967W        W36098  17.548   8.952   3.740  0.1341  0.0042 -0.0278
20968W        W36099  16.724  18.392   1.208  0.0010  0.1324 -0.2971
20969W        W36100  13.826   2.712   0.830  0.0314 -0.2173 -0.2756
20970W        W36101   9.963  17.429   0.673 -0.0744 -0.3180  0.0632
20971W        W36102  17.181   3.680   4.497 -0.1078 -0.3443  0.0222
20972W        W36103   6.712  17.706  14.940  0.3538  0.3846  0.0180
20973W        W36104  18.513   7.754  13.775  0.1443  0.1476 -0.0935
20974W        W36105  15.986  17.937  12.026  0.1003 -0.0671  0.1673
20975W        W36106   8.919   2.618  10.620  0.0696 -0.0881 -0.2286
20976W        W36107  13.008  12.247   3.502 -0.1509 -0.0145  0.0231
20977W        W36108   1.118  18.098  13.449  0.3086  0.0385  0.2401
20978W        W36109   4.101   1.083  15.726 -0.1892 -0.0292 -0.0490
20979W        W36110  11.404  11.824  14.815 -0.0519  0.0350 -0.0419
20980W        W36111  10.324   6.279  12.966  0.4039 -0.0901  0.1502
20981W        W36112  15.778   3.814  12.987 -0.0185  0.0455 -0.2379
20982W        W36113  16.976  16.419   3.523 -0.0644 -0.4762  0.0933
20983W        W36114   0.971  17.537   2.182  0.3571  0.0109 -0.0123
20984W        W36115  12.793   7.231  15.120  0.0033 -0.0892 -0.3872
20985W        W36116   6.478  15.753   5.249 -0.3322 -0.0185 -0.1369
20986W        W36117  16.589  13.922   2.522  0.0138  0.3290 -0.1456
20987W        W36118   2.125   5.827  13.380  0.1503 -0.0152  0.1450
20988W        W36119   8.278   6.751   1.298  0.0078 -0.1371  0.2224
20989W        W36120   4.551   9.074   4.745 -0.0774 -0.0747  0.1378
20990W        W36121  13.220  10.794  14.168 -0.0700 -0.2355 -0.0108
20991W        W36122   5.335  18.308   0.240 -0.1741 -0.2354 -0.0877
20992W        W36123   7.784   7.883   3.759 -0.0107  0.0681  0.3748
20993W        W36124   8.156   1.950   0.662  0.1774  0.1656  0.2419
20994W        W36125   6.953  13.384  10.791  0.1435 -0.1341  0.1565
20995W        W36126   9.472   9.020  12.819 -0.1041 -0.1638  0.1167
20996W        W36127  18.180   9.167   1.678 -0.1740 -0.1076 -0.2578
20997W        W36128   3.957   9.247  11.676 -0.2840 -0.2647 -0.0943
20998W        W36129  17.677   7.296   1.761  0.5295  0.0310 -0.0620
20999W        W36130   7.210   8.527  12.036  0.2994  0.4162  0.1899
21000W        W36131  15.655  16.111  14.516 -0.1882 -0.3851  0.0493
21001W        W36132   6.934   6.498  13.667  0.2414 -0.2196 -0.0716
21002W        W36133  11.204   1.382   1.303  0.0654  0.1297 -0.0612
21003W        W36134  17.717  17.447   0.405 -0.1099  0.0761  0.0396
21004W        W36135  13.125   8.614   4.638  0.3718  0.2370 -0.0384
21005W        W36136   0.133  15.538  11.853  0.0839 -0.0882 -0.0849
21006W        W36137   2.929   1.517  15.226 -0.2667 -0.2046 -0.0846
21007W        W36138   8.536  10.739  15.586 -0.1187  0.0833 -0.0159
21008W        W36139   7.848   4.389  11.293  0.1821 -0.1667 -0.2551
21009W        W36140   6.504   7.971   2.447  0.2421 -0.1738 -0.0941
21010W        W36141   0.948   5.555   1.405 -0.0999 -0.1415  0.2009
21011W        W36142   9.264  12.001  14.593 -0.0509  0.0457  0.3619
21012W        W36143  15.630  18.386  13.737  0.1670 -0.0335 -0.0928
21013W        W36144  11.114  12.741  12.483 -0.2480  0.0358 -0.1100
21014W        W36145  13.681   2.882  12.049 -0.2551  0.2134  0.2084
21015W        W36146   7.393   2.769   0.559  0.2661  0.3580 -0.1029
21016W        W36147  17.811   3.022   2.897  0.0728 -0.2608  0.1855
21017W        W36148  15.418  10.678  14.355  0.2243  0.2831 -0.0448
21018W        W36149   6.304  14.286  12.708  0.0187  0.3527  0.1041
21019W        W36150  10.246   2.380  11.956 -0.1725  0.2129  0.1487
21020W        W36151   9.924   7.025   5.115  0.0432 -0.0655  0.1115
21021W        W36152  12.338  12.291   4.169 -0.0553  0.0589  0.0006
21022W        W36153  12.752  16.231  11.056  0.1644 -0.1009 -0.0975
21023W        W36154   6.335  13.083   2.495 -0.0054 -0.1514 -0.0144
21024W        W36155   8.156   5.218   1.386  0.2203  0.0305  0.0914
21025W        W36156  15.482  16.464   4.489 -0.0843 -0.0219 -0.1442
21026W        W36157   9.037  18.021   2.990  0.0346  0.0041  0.1383
21027W        W36158  18.182  16.708  12.526  0.0800  0.2050  0.0136
21028W        W36159   3.701  16.903   4.684 -0.0263 -0.0258 -0.3098
21029W        W36160   5.987  13.196  15.637 -0.0104 -0.3511 -0.2417
21030W        W36161   6.885  11.403  10.550  0.0118 -0.0651 -0.2747
21031W        W36162   3.605  16.468   2.285 -0.1095 -0.1638  0.2206
21032W        W36163   8.310   0.120  12.092 -0.0620  0.3017  0.0954
21033W        W36164  17.815   9.412  12.922  0.0014  0.3951  0.0008
21034W        W36165   0.583   2.756  15.166 -0.1173  0.0316 -0.0441
21035W        W36166   5.319   3.196   0.097  0.1778 -0.1521 -0.3611
21036W        W36167   9.225  13.904  10.468 -0.1740 -0.2833 -0.2129
21037W        W36168   8.634   7.839  11.270  0.0102  0.1395 -0.0896
21038W        W36169   2.607   2.025  12.181 -0.2700  0.1044  0.0956
21039W        W36170   2.204   1.996   0.807 -0.1376  0.0961  0.2201
21040W        W36171  15.334  11.914   2.419  0.0615  0.1032 -0.0026
21041W        W36172  14.249   1.706  13.708 -0.0405  0.1888 -0.0517
21042W        W36173  15.226   2.084  13.614  0.0631  0.1644  0.0075
21043W        W36174   4.746   5.688  15.057  0.0233 -0.0492  0.1326
21044W        W36175   6.761   8.632  10.603 -0.4521  0.2759 -0.1530
21045W        W36176   9.556   0.951   1.921  0.3531  0.0751 -0.0867
21046W        W36177   2.635  10.874   2.359  0.3006 -0.2738 -0.2484
21047W        W36178  18.099   5.029  13.118 -0.2387 -0.0459  0.3717
21048W        W36179  16.186   9.568  14.306 -0.2617 -0.0329  0.1024
21049W        W36180   5.269   0.759  14.262  0.0350  0.1875 -0.4646
21050W        W36181  14.168  10.542  12.510  0.0577 -0.0642  0.0714
21051W        W36182   9.499   5.664   2.926  0.1023 -0.0397  0.2285
21052W        W36183   6.357  15.100  13.711  0.1222 -0.1732 -0.1190
21053W        W36184   6.019  16.251  15.705  0.1554 -0.0980  0.0321
21054W        W36185  15.560  17.646   6.022 -0.3443 -0.0601 -0.3536
21055W        W36186  11.689  16.279  14.437 -0.0666 -0.0927  0.0302
21056W        W36187   7.866  13.094  12.776 -0.0382 -0.2545  0.1780
21057W        W36188  15.650   5.833  13.321 -0.0558 -0.2444 -0.0063
21058W        W36189   7.788   7.554  14.215  0.4090  0.2327 -0.2251
21059W        W36190   7.576   3.032  10.231  0.0858 -0.0324 -0.3642
21060W        W36191   6.788  12.488  10.132  0.0167  0.0527  0.2411
21061W        W36192  10.515   1.019   0.033 -0.3673 -0.1929  0.0540
21062W        W36193  16.628  18.114  14.715  0.1017  0.4449 -0.4020
21063W        W36194  18.265  16.244  12.760 -0.1623  0.1180  0.1078
21064W        W36195   4.904  10.773  13.306  0.0034 -0.0264  0.1935
21065W        W36196  12.475  15.188   5.332  0.1116  0.1249  0.1463
21066W        W36197   3.003   4.881   4.639 -0.0437  0.1990 -0.3704
21067W        W36198  15.412   4.745   0.115  0.1236 -0.1161 -0.3080
21068W        W36199   3.843   3.498  13.513  0.1306  0.0144  0.3939
21069W        W36200  14.645   1.173  14.450 -0.2468  0.1545  0.0066
21070W        W36201  13.093   3.794  13.439  0.3850 -0.2400 -0.0091
21071W        W36202   2.719  12.434   3.781  0.0179  0.1940  0.3628
21072W        W36203   1.076  12.349   2.574  0.0928  0.6022  0.0708
21073W        W36204   7.746  13.256  13.229 -0.2115  0.0174 -0.3010
21074W        W36205   5.979  12.732   3.673  0.2157  0.1041  0.1133
21075W        W36206  11.963   3.367  15.229 -0.0729 -0.1138 -0.1270
21076W        W36207   4.819  17.042   3.630  0.0856  0.1396 -0.2263
21077W        W36208  17.798   0.912   3.026 -0.1651 -0.0337 -0.1481
21078W        W36209   5.004   2.740  14.991  0.1491  0.2561 -0.1543
21079W        W36210   4.293   7.811  10.497  0.1943  0.1023  0.1059
21080W        W36211   8.933   3.180   4.587  0.1168 -0.2412 -0.1013
21081W        W36212   5.582   4.325  11.498 -0.1234 -0.4512  0.1143
21082W        W36213  11.498  11.607  13.371  0.1726 -0.0303 -0.0406
21083W        W36214  13.796  11.802  13.373 -0.1911 -0.0769 -0.0607
21084W        W36215   5.730   4.124   1.297  0.1987  0.1653 -0.0242
21085W        W36216  10.127  16.161   1.299  0.4168  0.1586 -0.0483
21086W        W36217   3.095   4.962   2.595  0.0746 -0.3723  0.0661
21087W        W36218  15.569   1.196   0.944 -0.3756  0.3852 -0.0251
21088W        W36219  13.652  16.722  11.227  0.2207 -0.1119 -0.3385
21089W        W36220   0.569   2.366  11.930 -0.1393 -0.0552  0.2790
21090W        W36221   4.297   4.861  11.391  0.1070  0.2655  0.1618
21091W        W36222   4.960  16.703   4.576  0.1733 -0.0178  0.2428
21092W        W36223   3.209  17.518  13.582 -0.1125  0.1975 -0.3340
21093W        W36224   4.261   0.927  12.857 -0.0228 -0.3390  0.0909
21094W        W36225   3.992  13.226   1.607 -0.0591  0.3701 -0.1570
21095W        W36226   0.816   9.555  12.728 -0.0445  0.0347  0.0277
21096W        W36227  14.394  13.855  13.848  0.1513 -0.4649  0.1937
21097W        W36228  16.468  13.191  13.676  0.1558  0.3138 -0.1909
21098W        W36229   7.051   9.195  15.000  0.2717 -0.1397 -0.0699
21099W        W36230  17.112   1.431  13.704  0.1285  0.0175  0.0831
21100W        W36231   0.504  10.825  11.552 -0.1888  0.0383  0.0519
21101W        W36232   1.815  17.833  14.549  0.1473 -0.2321  0.0593
21102W        W36233   1.228   1.403   0.044 -0.0547  0.0000  0.0624
21103W        W36234   5.564  15.867  14.897  0.1269 -0.1795 -0.1519
21104W        W36235   4.801   1.751  12.935 -0.1131  0.1645  0.0309
21105W        W36236   6.550   5.826   2.062  0.3142  0.1063 -0.1021
21106W        W36237   5.578   7.959  14.913 -0.2230  0.0514  0.2931
21107W        W36238   1.375  11.213   1.223 -0.0930 -0.1737 -0.2291
21108W        W36239  13.213  11.100   2.284  0.0370 -0.2285  0.1314
21109W        W36240  16.835   8.163  11.521  0.0113  0.0995 -0.1345
21110W        W36241   3.682   7.387   3.467 -0.1609  0.1539  0.0057
21111W        W36242   2.701  16.272   4.569 -0.0909  0.0001 -0.1208
21112W        W36243   6.422  13.039  10.663 -0.3042  0.0715 -0.4085
21113W        W36244   2.386  17.601   5.189  0.1094  0.2794  0.2280
21114W        W36245  15.377   8.530  14.530  0.1174  0.1439  0.0019
21115W        W36246   5.860  17.810  15.511  0.1713 -0.1452 -0.3232
21116W        W36247   2.217  10.317   6.209  0.0574 -0.1510 -0.0246
21117W        W36248  15.520   4.033  11.537  0.0220 -0.1340 -0.2222
21118W        W36249   7.102   6.073   0.738 -0.2077 -0.0378 -0.1593
21119W        W36250  13.376  11.527  12.936 -0.1343 -0.0778  0.1364
21120W        W36251  10.965  16.754   1.729  0.1310  0.0130  0.1828
21121W        W36252  11.012   4.066  12.330  0.4593  0.3114  0.2968
21122W        W36253  18.124   7.360  11.245  0.0245  0.0602 -0.1537
21123W        W36254  15.384   7.857   0.300 -0.3121  0.0089 -0.0863
21124W        W36255  13.868  16.312  10.237 -0.0316  0.0129 -0.0967
21125W        W36256   7.223  10.885  15.724  0.0873  0.0745  0.1040
21126W        W36257  15.717  13.821  13.999 -0.1178 -0.0849 -0.2629
21127W        W36258  10.065   9.763  10.713 -0.1144 -0.0060 -0.3535
21128W        W36259   7.238  12.728  10.179  0.2775 -0.1470 -0.2047
21129W        W36260  12.601  13.534   3.015  0.0521  0.0815  0.1350
21130W        W36261   3.896   5.549   3.593 -0.0049 -0.1178 -0.0973
21131W        W36262  15.990   8.482  14.888 -0.2486 -0.0898 -0.0264
21132W        W36263   7.501   7.051  13.159 -0.1329 -0.0089 -0.0854
21133W        W36264  18.224   9.283   4.956  0.1121 -0.0805  0.0330
21134W        W36265   7.551   4.619   5.373 -0.1079  0.0322  0.1107
21135W        W36266   7.053  16.270  15.673  0.1261 -0.2259  0.0515
21136W        W36267  15.162   4.411   3.951 -0.1261 -0.5372  0.3520
21137W        W36268   8.343  16.067  15.884 -0.1673 -0.1107 -0.0892
21138W        W36269   6.173   4.789  10.088  0.2695 -0.3830  0.1744
21139W        W36270  14.671  10.557   0.551  0.0743  0.0226 -0.3511
21140W        W36271  16.416   4.990  15.285 -0.1409 -0.2204 -0.0077
21141W        W36272  11.980   1.470   0.146 -0.2375  0.2504 -0.1628
21142W        W36273   4.560   7.967   5.144 -0.0363 -0.5277  0.1987
21143W        W36274   5.704   9.974  11.471 -0.0565 -0.1432 -0.3269
21144W        W36275  18.154   3.984  12.682  0.1333 -0.0039  0.0415
21145W        W36276   9.012   0.533   4.350  0.1316 -0.2495 -0.1443
21146W        W36277  12.717   9.722  10.743  0.1191  0.3436  0.2150
21147W        W36278  13.114   5.048   3.435 -0.1033 -0.0249  0.0816
21148W        W36279  17.103   8.460   4.737 -0.0071 -0.0490 -0.1872
21149W        W36280  16.959   6.483  12.197  0.1396 -0.2052 -0.1341
21150W        W36281  11.364  10.450  13.475 -0.0022 -0.1227  0.2613
21151W        W36282   3.535  12.865  10.078  0.1121 -0.2146  0.0658
21152W        W36283  14.627  16.740  13.756  0.2734 -0.0787 -0.1184
21153W        W36284  16.527  12.556  14.881  0.2317  0.0972  0.1333
21154W        W36285   0.947   4.164  13.645 -0.2470 -0.0255 -0.3244
21155W        W36286   2.598  15.889  15.118 -0.1360 -0.0130  0.2602
21156W        W36287   4.768   4.139  12.646 -0.0805  0.1947 -0.0773
21157W        W36288  14.892   0.271  14.640  0.0956  0.0159 -0.0430
21158W        W36289   3.178  14.504   2.005 -0.1389 -0.1256  0.0631
21159W        W36290   1.950   6.213  12.445 -0.0865 -0.3436  0.1048
21160W        W36291  14.628   6.579   0.002 -0.1091  0.2102 -0.0112
21161W        W36292  17.467  15.787   9.836 -0.2871 -0.1691 -0.0021
21162W        W36293   1.054  16.151   0.386  0.0914 -0.0232  0.0403
21163W        W36294   7.033  16.670   4.231  0.0426  0.0575  0.1007
21164W        W36295   8.298   8.211  13.847  0.1096 -0.0371 -0.1527
21165W        W36296   9.014   1.091  10.824  0.1436 -0.0445 -0.0124
21166W        W36297   4.077   4.390   0.778  0.2282  0.0106  0.0909
21167W        W36298   8.798   2.615  12.266 -0.2595 -0.2115  0.1607
21168W        W36299   2.443   3.084  14.638 -0.1551 -0.0087  0.0756
21169W        W36300  17.650  10.323   0.709 -0.1248 -0.0085 -0.0652
21170W        W36301   4.511   3.938  11.496  0.2853 -0.2962  0.0365
21171W        W36302   2.774  11.184  15.835  0.0483 -0.4012 -0.1276
21172W        W36303  16.755  10.700  14.439  0.0310 -0.0530  0.0312
21173W        W36304   0.090   3.788  11.340 -0.2293 -0.0186 -0.1659
21174W        W36305   2.314   1.901   3.751 -0.0750  0.2804 -0.0075
21175W        W36306   2.394   1.705   0.206 -0.1409  0.1431 -0.0596
21176W        W36307   2.930  11.894  12.247 -0.3192 -0.0019  0.3894
21177W        W36308   7.564   7.435   1.943 -0.0904 -0.0493 -0.2851
21178W        W36309   0.167   0.824   3.359  0.3052  0.1987  0.0350
21179W        W36310   8.142   9.923   3.574 -0.0984 -0.1132  0.1595
21180W        W36311  15.885   6.264  14.820 -0.2360  0.1759 -0.2690
21181W        W36312  16.762   4.613   2.889 -0.2359 -0.2917  0.0527
21182W        W36313   8.779   6.703   1.467 -0.4514  0.0332 -0.2128
21183W        W36314  15.324   7.971  12.426  0.3181  0.0445 -0.2699
21184W        W36315  10.088   7.410   3.604 -0.2768  0.1286  0.0979
21185W        W36316   1.575   1.065  15.725  0.0646 -0.1411 -0.1689
21186W        W36317  11.320   8.769  15.670 -0.1033 -0.0403  0.3204
21187W        W36318  17.232  14.760  12.114  0.4100 -0.1304  0.1432
21188W        W36319  16.563   9.371   0.669  0.3038  0.0062  0.0010
21189W        W36320   0.034   2.866  13.753  0.0210  0.1115 -0.1718
21190W        W36321   6.731  14.351   0.039 -0.0426 -0.0197  0.3000
21191W        W36322  17.442  15.165   3.132 -0.2061 -0.2907 -0.1016
21192W        W36323  13.935  16.545   1.474 -0.2863  0.3634  0.0094
21193W        W36324   3.730   8.831   0.524 -0.0265  0.0560 -0.0749
21194W        W36325  11.586   8.683   4.362  0.0344  0.0510 -0.1730
21195W        W36326   4.994  15.607  11.855  0.1447  0.0362  0.0546
21196W        W36327  14.981   5.710   0.527  0.2846  0.1098  0.1171
21197W        W36328   7.939  13.434  13.637 -0.4452 -0.0526 -0.1242
21198W        W36329  18.221  10.137   5.080 -0.0774 -0.1320 -0.0833
21199W        W36330  16.963   4.163  10.984  0.2629  0.1387 -0.1864
21200W        W36331   0.251   1.291   0.790  0.0830 -0.3025  0.2192
21201W        W36332  11.830   0.195   3.180  0.0504  0.3203  0.0955
21202W        W36333  12.485   0.391   1.474 -0.3270  0.2853 -0.0518
21203W        W36334   0.347   0.603   2.060 -0.0311  0.3802 -0.1184
21204W        W36335  16.184  13.866  13.895  0.2899  0.4226 -0.2072
21205W        W36336  14.982   4.626   4.949  0.4501 -0.4055 -0.1816
21206W        W36337   1.245   6.640  14.045  0.0054  0.0425 -0.1519
21207W        W36338   6.315   1.536  15.472  0.4007 -0.2422  0.2468
21208W        W36339   9.720   4.250   0.254  0.0633 -0.0962  0.0186
21209W        W36340  10.734   8.404   5.371  0.1537 -0.1411  0.1392
21210W        W36341  12.518   2.513  12.958 -0.1057  0.0843 -0.0724
21211W        W36342  10.436   4.146  15.873  0.3676  0.0878  0.1948
21212W        W36343  15.579   1.683  12.473  0.2663  0.1842 -0.1829
21213W        W36344   2.239  17.636   0.067 -0.6780 -0.0385 -0.1990
21214W        W36345   4.646   2.578  14.699  0.0663  0.1675  0.0862
21215W        W36346   4.671  17.605   3.129 -0.0382  0.1020  0.2936
21216W        W36347   1.353  10.997  12.475 -0.1339  0.0214  0.0242
21217W        W36348  17.241   6.245   0.551  0.1537  0.0601 -0.0685
21218W        W36349  13.725   4.742   5.011  0.2805 -0.1576 -0.1379
21219W        W36350   6.810   3.193  11.516 -0.0957  0.1580 -0.3289
21220W        W36351   7.429   2.437   5.967  0.2002  0.1339  0.0565
21221W        W36352   6.073  16.131  15.062  0.0203  0.3149 -0.1035
21222W        W36353  16.735  16.661  14.766 -0.1446 -0.2434  0.0442
21223W        W36354  17.560  18.046   9.804  0.3209  0.0888  0.3471
21224W        W36355   5.009  14.573  12.109  0.0635  0.0074 -0.1383
21225W        W36356  14.224   3.964  14.395 -0.1933 -0.1342  0.1116
21226W        W36357   0.676  14.771  10.027 -0.0830 -0.2311 -0.2226
21227W        W36358   7.999   2.248   1.045  0.0135 -0.1877  0.2075
21228W        W36359   1.097  10.267  15.071  0.0861  0.1585  0.0935
21229W        W36360  11.456  17.354  10.350 -0.1746  0.2652  0.0384
21230W        W36361   8.296   3.500   1.192  0.0200  0.1458 -0.3059
21231W        W36362  12.148   3.377  13.394  0.0962  0.0132 -0.1440
21232W        W36363   3.644  12.442  15.634 -0.2597  0.3280  0.0515
21233W        W36364  15.871  10.413   0.577 -0.0970 -0.0058  0.2107
21234W        W36365   0.771   6.380   2.578 -0.1927  0.2109  0.2433
21235W        W36366   1.644   7.027  15.164  0.2289 -0.0746 -0.3089
21236W        W36367  11.801  13.804  11.082  0.0610  0.2389  0.0849
21237W        W36368   0.983   8.767   1.675 -0.2479  0.3873  0.2869
21238W        W36369  13.717   9.789  13.746  0.0541  0.1988  0.1794
21239W        W36370   3.077   8.229   4.858 -0.0902 -0.1797  0.0132
21240W        W36371  14.233   8.706   0.917 -0.0476  0.0612 -0.0986
21241W        W36372   3.851   3.009  10.648 -0.0509 -0.1230  0.0066
21242W        W36373  13.207  12.195   3.065  0.1274 -0.1025  0.0852
21243W        W36374  12.248  15.519  10.795  0.2551  0.2353  0.0726
21244W        W36375  13.297   8.756   0.717  0.0619 -0.0642  0.2395
21245W        W36376   9.599  10.765   2.977  0.1343  0.2291 -0.1465
21246W        W36377   5.190  10.721   3.681 -0.1482 -0.1207  0.0543
21247W        W36378   0.528   7.170  14.044 -0.3078 -0.1541 -0.1481
21248W        W36379   8.035  16.782   0.288  0.1496  0.0497 -0.2498
21249W        W36380   7.318  17.379  15.314 -0.0637  0.0686  0.3073
21250W        W36381  11.383   5.549   2.150 -0.0901  0.2767  0.0204
21251W        W36382   1.611   6.855  11.376 -0.2363  0.1405 -0.1410
21252W        W36383  12.020   0.240   3.650 -0.1654 -0.0883 -0.0078
21253W        W36384  15.280   7.204  10.885 -0.1714 -0.0365  0.0353
21254W        W36385   2.543   1.653   2.408  0.0232  0.1043  0.0569
21255W        W36386  14.107   7.894  11.233 -0.0013 -0.1310 -0.2715
21256W        W36387   6.998   6.839  14.093 -0.3743 -0.0766  0.1516
21257W        W36388   1.775   5.422  13.475 -0.1190 -0.1136 -0.1346
21258W        W36389  15.129  12.410   4.383  0.1246  0.1844  0.4169
21259W        W36390  12.553   5.689  10.488 -0.2297  0.0645 -0.2378
21260W        W36391   3.388  17.653   3.515 -0.1364  0.1157 -0.0663
21261W        W36392  10.128   7.123  13.500 -0.3802 -0.1454  0.2179
21262W        W36393   9.861   9.675   3.012  0.5032  0.1479  0.0131
21263W        W36394  13.384  12.582   3.313  0.0196 -0.2431 -0.1680
21264W        W36395  13.714   8.178   3.956  0.1594  0.1639 -0.0813
21265W        W36396   5.758   4.238  10.976  0.0433 -0.0986 -0.3354
21266W        W36397   0.858   4.273   1.962  0.3367  0.0291  0.0490
21267W        W36398   2.771   7.062  12.576  0.1823  0.1376 -0.1725
21268W        W36399  13.788   9.005   2.891  0.0194  0.4411 -0.2418
21269W        W36400  14.910  18.097  10.462 -0.2394 -0.0552  0.1656
21270W        W36401  12.542  13.128  12.745 -0.0944 -0.1369 -0.3182
21271W        W36402   3.145   8.336  12.019 -0.2859 -0.1168 -0.0996
21272W        W36403  17.320   1.044  12.598  0.1992 -0.1998  0.2899
21273W        W36404   7.287  13.663  15.789  0.1877  0.1625 -0.1881
21274W        W36405   5.101   1.292   3.001  0.2362  0.1300 -0.0960
21275W        W36406   6.042   6.146   1.194  0.1357  0.5023 -0.0133
21276W        W36407   5.669   4.314   3.252  0.0868  0.0153 -0.3058
21277W        W36408  14.412   2.365  13.024 -0.2354 -0.2066  0.3958
21278W        W36409  17.966  16.863  12.953 -0.1294  0.1738  0.1752
21279W        W36410   9.706  14.813   0.881  0.0250  0.0318 -0.0062
21280W        W36411  15.441  11.716  12.204  0.1621 -0.4059 -0.0049
21281W        W36412   4.806  14.752  13.878  0.2540 -0.0025  0.0798
21282W        W36413  12.800   6.977   3.259  0.2509 -0.0827  0.0266
21283W        W36414  18.068   0.463  15.085 -0.1477 -0.1286 -0.0613
21284W        W36415   4.657  15.274  12.080  0.0521  0.0649 -0.0817
21285W        W36416  18.197  14.631   0.160 -0.0864 -0.0487  0.1747
21286W        W36417   0.177  11.022   1.883 -0.0395  0.0424  0.1435
21287W        W36418  16.301   1.884  11.702  0.2384 -0.0789  0.1205
21288W        W36419   6.259  15.305  14.298  0.0172  0.1475 -0.0974
21289W        W36420   9.213   1.915   1.763  0.1151  0.2579  0.1365
21290W        W36421  11.187   7.416   2.026 -0.1389 -0.1051 -0.2400
21291W        W36422   9.549  18.396   5.460  0.1230 -0.0785 -0.1877
21292W        W36423  11.189  10.701   1.123  0.1265  0.0745 -0.1003
21293W        W36424   3.960  14.007  15.869  0.2159 -0.1788 -0.1744
21294W        W36425  12.630   9.210   1.220 -0.0057  0.1532 -0.1087
21295W        W36426  10.387  18.057   0.015  0.1670 -0.2768 -0.3127
21296W        W36427  10.834   9.276   2.735  0.0833  0.0159  0.1348
21297W        W36428   5.289  10.258   3.785  0.0364 -0.2102 -0.1551
21298W        W36429   9.783   3.428  13.404  0.0350 -0.0482 -0.0068
21299W        W36430   0.415   4.370   4.014 -0.0541  0.0708 -0.1919
21300W        W36431   6.912  10.974   6.045 -0.2540 -0.0087 -0.1018
21301W        W36432   9.246  13.503   1.362  0.0087  0.4321  0.2331
21302W        W36433   3.569  12.292   0.678 -0.2643 -0.0344 -0.3099
21303W        W36434   8.577  10.222   1.127 -0.1434  0.0359  0.1422
21304W        W36435  15.846  15.806  11.428  0.1214  0.0513 -0.0636
21305W        W36436  12.479   1.705  13.146  0.2543 -0.2748 -0.0104
21306W        W36437  14.660   8.858   4.553  0.2901 -0.1307 -0.0072
21307W        W36438  13.439  14.062  14.200  0.1933  0.0113 -0.2512
21308W        W36439   9.276  16.024   1.749  0.1563 -0.3786  0.0503
21309W        W36440   6.573   1.035  14.421  0.1074  0.2274 -0.0588
21310W        W36441  10.881  10.077   3.134  0.0049  0.0860  0.0795
21311W        W36442  12.477   5.869   5.206  0.1852  0.2829 -0.2310
21312W        W36443  14.089   7.077   1.245 -0.0672  0.0616  0.1554
21313W        W36444  11.121  12.389   2.263  0.1949 -0.0865  0.1014
21314W        W36445  17.686   3.938  12.572  0.0594 -0.0716 -0.0711
21315W        W36446  10.550   7.872   1.550  0.0834  0.0410  0.0997
21316W        W36447  17.702  11.037  12.275  0.0074  0.2774 -0.2793
21317W        W36448   2.073   0.214  15.572 -0.1276  0.1507  0.0091
21318W        W36449   9.845  10.391   0.918  0.1607  0.1523  0.1374
21319W        W36450   3.191  15.381   3.793 -0.1293  0.0501  0.0826
21320W        W36451   0.481  17.606   4.940  0.1358  0.0229 -0.1251
21321W        W36452  10.444  13.154   2.206 -0.2121 -0.0470  0.0562
21322W        W36453   9.339  17.495  12.689  0.0768  0.2658  0.0310
21323W        W36454   6.181   0.068   1.212 -0.4984 -0.1212  0.0470
21324W        W36455   5.240   9.307  15.377  0.1585  0.1152  0.0225
21325W        W36456   5.054  11.870  13.475  0.1303  0.1442  0.3199
21326W        W36457   1.992   2.439  15.688 -0.1023 -0.0178 -0.2706
21327W        W36458   0.944   9.181  13.083  0.0331 -0.1094  0.1576
21328W        W36459  13.075  11.353  11.216  0.2631 -0.0551 -0.0600
21329W        W36460  16.134   8.591  11.948 -0.1112 -0.0723 -0.3372
21330W        W36461   1.939  12.380   3.527  0.0297 -0.0783  0.0110
21331W        W36462   5.922   9.807  11.984  0.0062 -0.1606  0.1955
21332W        W36463  14.748  12.932  14.701  0.2730  0.1271 -0.1005
21333W        W36464   3.950   8.365   2.568  0.1043  0.1954  0.0360
21334W        W36465   9.530   0.812  13.561 -0.0299 -0.3646 -0.2511
21335W        W36466   7.545   7.457   4.093  0.0844 -0.0613  0.1773
21336W        W36467  10.936   2.332  12.546 -0.4989  0.0197 -0.0240
21337W        W36468   2.772   2.049   0.714 -0.2344  0.3013  0.0236
21338W        W36469   1.250  11.997   5.635 -0.1003 -0.1162  0.3401
21339W        W36470  15.225   3.304   2.950  0.1133 -0.0436 -0.0716
21340W        W36471   4.980  12.775   1.965  0.1468 -0.1409  0.0167
21341W        W36472  10.569  17.372  12.794  0.3343  0.0986  0.0017
21342W        W36473   6.253   9.939  11.567  0.0532 -0.1668  0.1818
21343W        W36474  18.437  10.559  15.269 -0.3378 -0.1542  0.0666
21344W        W36475   3.657  13.797   0.579  0.2642 -0.2110 -0.2674
21345W        W36476   6.658   4.752  13.460  0.1415  0.0581  0.3019
21346W        W36477   3.212   9.500   4.022  0.1469 -0.2071 -0.2531
21347W        W36478   5.428   9.061  15.844  0.2168  0.0593 -0.0683
21348W        W36479   0.989   9.029   4.114  0.1969  0.1484 -0.2000
21349W        W36480   2.277  15.122  13.395  0.1544 -0.1202 -0.1369
21350W        W36481   1.786   8.245  13.186 -0.2389 -0.0730 -0.1008
21351W        W36482  10.434   7.936   3.678  0.1648  0.1909  0.3043
21352W        W36483   5.295   4.805  12.794 -0.0258 -0.1199 -0.0584
21353W        W36484   9.933   3.760   0.359  0.1364 -0.0796  0.0610
21354W        W36485  10.574  17.994  11.239 -0.0073 -0.0571 -0.0671
21355W        W36486  12.967   9.771  12.026 -0.2115 -0.2785 -0.3021
21356W        W36487   7.516   3.751  11.871 -0.3934 -0.2442  0.0262
21357W        W36488  13.531  12.158   1.000 -0.2128 -0.1650 -0.1153
21358W        W36489  13.035   9.493   0.324 -0.0063  0.4092 -0.3150
21359W        W36490   3.935  17.905   1.509 -0.0553 -0.0558 -0.0580
21360W        W36491   1.273  13.647   4.201 -0.2321 -0.1182 -0.1320
21361W        W36492   9.264  13.794   0.140  0.0259 -0.1388 -0.1801
21362W        W36493   3.535  15.585  15.717  0.2980 -0.0298 -0.3109
21363W        W36494   3.967  11.229   5.333  0.1999  0.1778 -0.1911
21364W        W36495  12.273  13.347  11.845 -0.1184 -0.0642  0.3673
21365W        W36496  10.262   5.105  11.200  0.2068  0.0653  0.0071
21366W        W36497  10.990   2.144   1.566  0.1196 -0.3237  0.0676
21367W        W36498   3.223  14.462   0.220 -0.1806  0.0223  0.0937
21368W        W36499   8.488  12.251   2.407  0.0887 -0.1171 -0.1539
21369W        W36500  13.678  16.067  12.323  0.0008 -0.0070  0.3649
21370W        W36501   3.027   7.132   3.554 -0.2660 -0.0691  0.1643
21371W        W36502  18.282   5.504  14.715 -0.1102  0.2411  0.3368
21372W        W36503  13.946  13.279  12.179 -0.0942 -0.1492 -0.0907
21373W        W36504  10.499  15.427   4.593  0.0710  0.2614 -0.0820
21374W        W36505  11.846   0.104  13.196 -0.3593 -0.1198  0.1442
21375W        W36506   6.062   3.957  13.290 -0.0007  0.2282 -0.2949
21376W        W36507   9.479  13.198   5.237 -0.0477 -0.0416  0.0912
21377W        W36508  15.505  14.334  13.353 -0.0102 -0.0240 -0.1957
21378W        W36509  11.555   5.304  12.450  0.0208  0.0327 -0.2962
21379W        W36510   6.531   2.729  11.624  0.1308 -0.0348  0.3097
21380W        W36511   0.997   3.575   4.154  0.0587 -0.2436 -0.1042
21381W        W36512  15.945  13.064   1.724 -0.0311 -0.2210  0.0229
21382W        W36513  16.143   0.513   2.218 -0.1794 -0.2838 -0.2542
21383W        W36514  16.704  11.730  11.765  0.0814  0.3060 -0.0809
21384W        W36515   1.710   6.043  10.677 -0.2605 -0.0188 -0.0523
21385W        W36516  16.795  17.910  15.666 -0.0555  0.0577  0.0811
21386W        W36517  11.317  12.632  13.458 -0.2923  0.0613 -0.2832
21387W        W36518  14.462   0.493  11.483  0.0502  0.1503  0.0521
21388W        W36519   0.671  10.428   1.207 -0.0166 -0.0007 -0.1269
21389W        W36520  12.936   0.108  15.186 -0.0553 -0.1476  0.2379
21390W        W36521   0.644  10.509  14.858  0.0216  0.0153  0.3378
21391W        W36522   3.058   7.171   5.308  0.1908  0.0187  0.0592
21392W        W36523  15.082   3.934   0.392 -0.1890 -0.2090  0.2629
21393W        W36524  14.310   5.948  12.529  0.0647  0.0387  0.1771
21394W        W36525   3.482  16.281  13.930  0.0346  0.2111 -0.2417
21395W        W36526  14.710   0.090   0.795  0.1679 -0.1334 -0.2464
21396W        W36527  17.446   6.595   4.575 -0.1825 -0.0807  0.1453
21397W        W36528  14.368   3.597   0.787 -0.0176  0.0776 -0.0467
21398W        W36529   6.777   5.118   2.850  0.2016  0.3405  0.1178
21399W        W36530  12.709  13.953   5.587 -0.1867 -0.0467  0.1309
21400W        W36531   3.604  15.254   5.274 -0.0266 -0.0371  0.1433
21401W        W36532  11.773  13.219  14.476 -0.0169  0.0938  0.0800
21402W        W36533   1.919  16.744   0.155  0.3332  0.1346  0.0767
21403W        W36534  12.164   0.929  11.744 -0.4813  0.1838 -0.0681
21404W        W36535   9.956   0.425  11.770 -0.0546  0.0566 -0.2075
21405W        W36536  14.313  16.148  10.074 -0.1494 -0.0046 -0.1994
21406W        W36537  17.929  12.426   5.698  0.2519 -0.2442  0.1525
21407W        W36538   6.068   5.125  11.393  0.0566  0.1700  0.3134
21408W        W36539  15.958   2.605   5.380 -0.3429  0.2097  0.1158
21409W        W36540  13.113  16.498  10.807 -0.1563  0.2415 -0.1807
21410W        W36541   4.749   6.886  13.189  0.0099  0.2048  0.1461
21411W        W36542  16.212  12.900   0.022  0.0264  0.0916 -0.3768
21412W        W36543   9.619  15.655  10.938  0.2139  0.0480 -0.1576
21413W        W36544   0.266  10.905  12.034  0.0708  0.2429  0.0149
21414W        W36545  11.784   6.090   1.688  0.2475 -0.2814  0.0028
21415W        W36546   8.543   4.800   1.430 -0.0609  0.0263  0.0835
21416W        W36547  14.082   4.679  11.281 -0.0360 -0.1524 -0.2106
21417W        W36548   7.051  14.303   1.927 -0.1014  0.2511 -0.2004
21418W        W36549  11.716  10.210   5.061  0.0629 -0.1583 -0.1309
21419W        W36550   2.147   6.482  15.329  0.1582  0.2415  0.0142
21420W        W36551   3.884   4.654   5.704  0.1399  0.1280 -0.1462
21421W        W36552  17.562  12.166   3.818 -0.1911 -0.0512 -0.2001
21422W        W36553   6.255  15.524   4.871 -0.1173  0.0715  0.0598
21423W        W36554  18.442   0.024  11.836 -0.1255  0.0120 -0.0184
21424W        W36555   8.301   1.803  13.463 -0.0302  0.0021  0.0845
21425W        W36556   1.550   0.398   4.626 -0.0734  0.1428 -0.1209
21426W        W36557   7.397   0.528   0.563 -0.3221 -0.0598 -0.0477
21427W        W36558   2.910  18.289   9.861 -0.1763  0.0916 -0.1130
21428W        W36559  14.299   4.184   3.083 -0.2563 -0.0497 -0.0467
21429W        W36560  12.471  12.236  15.495 -0.1468  0.2029  0.0305
21430W        W36561   7.066  11.405   1.952  0.1755 -0.1519 -0.0206
21431W        W36562  12.269  11.840   3.685 -0.0265  0.2234  0.1600
21432W        W36563  16.130  10.116   5.444  0.2324 -0.0325 -0.0967
21433W        W36564   0.128   4.575   5.252  0.0613 -0.0319  0.0008
21434W        W36565   9.061  17.618   0.034 -0.0600  0.0300 -0.2512
21435W        W36566   0.675   9.795   2.999 -0.1118  0.0110 -0.0127
21436W        W36567  12.813   0.260   1.891  0.2122  0.1797 -0.0408
21437W        W36568  16.190   6.625   2.523  0.1805 -0.0827 -0.2240
21438W        W36569   4.391  13.895  12.935  0.1494  0.0673 -0.0085
21439W        W36570  18.036   6.271   1.375  0.2375  0.2154  0.0086
21440W        W36571  17.660  13.910   4.395 -0.1224 -0.2306 -0.1776
21441W        W36572   8.021  15.208   4.079  0.2887  0.0876  0.1307
21442W        W36573  12.352  15.036   3.435  0.2943 -0.0058 -0.1076
21443W        W36574   9.853   2.322   4.970  0.0659 -0.2580  0.0976
21444W        W36575  12.649   7.591  12.668  0.1387  0.1997  0.0637
21445W        W36576  11.720  14.588  12.242  0.1958  0.0383 -0.1367
21446W        W36577   9.715  17.581  10.949  0.2597 -0.0211 -0.0400
21447W        W36578  15.175  10.695   4.203  0.1476  0.0662 -0.2157
21448W        W36579   3.395  12.208   2.844 -0.0927 -0.0072 -0.1912
21449W        W36580   4.379   1.687  14.954 -0.1400  0.0038 -0.1769
21450W        W36581  16.800   6.640  14.731  0.1417  0.1819  0.4890
21451W        W36582  14.028   5.952   0.307 -0.3386  0.0736  0.2972
21452W        W36583   2.270  13.971  11.545 -0.2353 -0.1672  0.3109
21453W        W36584  15.376  11.665  14.246  0.1349 -0.0467  0.1467
21454W        W36585  15.257  13.289   4.086 -0.0490  0.3777  0.1934
21455W        W36586  16.601  13.695  15.676  0.1445 -0.0120 -0.3167
21456W        W36587  17.926   0.634  13.274 -0.0448  0.1200  0.2851
21457W        W36588   3.850   8.233   0.406  0.0118  0.0620 -0.4475
21458W        W36589   1.752  11.212   0.752  0.0298 -0.1186 -0.1786
21459W        W36590  12.059  17.078   9.786  0.0126 -0.0288 -0.0719
21460W        W36591   5.062  17.354   2.873  0.1255 -0.2594 -0.1476
21461W        W36592  10.877  15.570  11.586  0.2461 -0.0252 -0.1605
21462W        W36593   6.356   4.652  13.839  0.0653 -0.0773 -0.1944
21463W        W36594  14.329   4.420  10.863  0.0011  0.0998  0.0846
21464W        W36595  12.192  13.428  12.400 -0.1885 -0.0664 -0.0866
21465W        W36596  11.162  14.056  13.203 -0.4250 -0.3768  0.0088
21466W        W36597  13.726  13.467  11.737  0.2647  0.1301  0.2386
21467W        W36598  13.909  14.955   4.328 -0.0937 -0.0743  0.1028
21468W        W36599   5.684   3.522  14.076  0.0035  0.1393 -0.0817
21469W        W36600  10.774   3.776  15.698  0.2914 -0.2002 -0.2063
21470W        W36601  15.649  17.036  10.874 -0.2184 -0.1196  0.1993
21471W        W36602  13.278   5.730   5.761  0.1510 -0.1549  0.1851
21472W        W36603  16.982  14.162   3.847  0.0144 -0.3973  0.0422
21473W        W36604   7.150   3.220  10.474 -0.0685  0.0159 -0.0544
21474W        W36605  15.680   0.844   5.732 -0.0331  0.2227 -0.0157
21475W        W36606  11.319  15.245  11.700  0.0148  0.1557  0.2022
21476W        W36607   9.278   0.249   5.188  0.0041  0.0412 -0.0823
21477W        W36608   8.783   6.992   1.880 -0.0889  0.0089  0.2715
21478W        W36609   6.173  16.741   0.016 -0.2601  0.1378  0.2619
21479W        W36610  13.344  10.519  10.750 -0.1516  0.1880  0.3287
21480W        W36611  14.390  13.530   3.686  0.0714  0.0916  0.0385
21481W        W36612   8.193  16.951  10.910 -0.3469 -0.0331  0.3237
21482W        W36613   5.937  17.239  11.977  0.0542  0.0780  0.0198
21483W        W36614   3.150   8.705  13.752  0.1170  0.0199 -0.2157
21484W        W36615  12.359   3.429  10.684  0.0936 -0.1450  0.0199
21485W        W36616  18.440   1.426   0.339 -0.0385 -0.0381  0.0432
21486W        W36617   8.212   8.206   4.539 -0.0530 -0.2202  0.2106
21487W        W36618  12.626   1.483   2.827 -0.0638 -0.1962  0.0883
21488W        W36619   4.016  11.187   4.341 -0.3530  0.1683  0.0145
21489W        W36620  16.983  16.105   9.594  0.0274  0.0388  0.1264
21490W        W36621  15.780  11.817   5.017 -0.0411 -0.1127 -0.2619
21491W        W36622  12.106   7.744  12.955  0.0052 -0.0102 -0.2236
21492W        W36623   9.411   4.551   0.014 -0.2524 -0.0010  0.0176
21493W        W36624  17.774   7.815  13.108  0.4671 -0.1373  0.0157
21494W        W36625  12.658  12.298   1.034  0.1608 -0.0137 -0.2111
21495W        W36626   4.423  16.173   1.406  0.1355  0.1604  0.1699
21496W        W36627   5.632   3.624   1.049  0.0529 -0.0590 -0.0047
21497W        W36628   2.654  18.129   4.467 -0.2367  0.0980  0.0571
21498W        W36629   6.929  11.620  14.132 -0.1518  0.0068 -0.0854
21499W        W36630   4.181  14.933  11.994 -0.2658  0.1699  0.1721
21500W        W36631   2.217  12.021  11.772 -0.2593 -0.1082 -0.0989
21501W        W36632   4.551   4.859   2.382 -0.1008  0.3907 -0.0875
21502W        W36633   7.605   3.562  14.682 -0.0634 -0.0607 -0.0978
21503W        W36634  15.736  17.560   3.316 -0.0801 -0.0416 -0.1352
21504W        W36635   8.715  15.290   3.213  0.2047 -0.2408  0.2138
21505W        W36636   3.519  17.633  12.234 -0.3244  0.3150 -0.0204
21506W        W36637   3.863   7.317   0.870 -0.1168 -0.2071  0.2305
21507W        W36638   1.785   2.187   4.249 -0.2151  0.1426 -0.0546
21508W        W36639   6.523   1.884   2.347 -0.0360  0.1248 -0.0281
21509W        W36640   0.536   5.393  11.966  0.0889  0.3817 -0.2988
21510W        W36641  13.197   6.795  11.654 -0.0941  0.2880  0.2599
21511W        W36642  12.149  18.251   3.933 -0.1259 -0.0087 -0.1837
21512W        W36643   5.928  10.667   4.870  0.0275 -0.2696  0.1476
21513W        W36644   2.344  15.139   1.850 -0.1022  0.0915 -0.1724
21514W        W36645   5.345   7.864   4.059  0.1050  0.1152  0.1070
21515W        W36646  18.392   9.127  15.019  0.1003 -0.1199  0.1472
21516W        W36647   8.853   0.483  10.759 -0.2190 -0.0052 -0.1296
21517W        W36648  18.357  16.227  11.276  0.4525 -0.1552 -0.0943
21518W        W36649   9.803   4.009   0.778 -0.3691 -0.2186 -0.0232
21519W        W36650   5.874   8.740  10.323 -0.0053 -0.0390 -0.1852
21520W        W36651   6.891   2.947   5.411 -0.1558 -0.1236  0.0785
21521W        W36652  16.913   5.732   4.727  0.1343 -0.0346 -0.3276
21522W        W36653  12.640  14.266   4.372  0.1425  0.2490 -0.0698
21523W        W36654   6.987   4.456  15.213  0.0022  0.0699 -0.0936
21524W        W36655  16.920   0.796   4.728  0.0903 -0.0639  0.0389
21525W        W36656   3.956   6.489   4.668  0.0818  0.0549 -0.0195
21526W        W36657   8.140   4.505   0.550 -0.0634  0.2545 -0.1713
21527W        W36658   8.872  18.522   5.358  0.0282  0.0178  0.0273
21528W        W36659  10.583   0.474   1.256  0.0561  0.1230 -0.0176
21529W        W36660  11.119   3.907   3.869  0.1089  0.3846 -0.1783
21530W        W36661  16.982   7.775   0.858 -0.4060 -0.1061  0.0830
21531W        W36662   5.203   3.260   4.344 -0.0566 -0.1114 -0.0411
21532W        W36663   2.399  12.959  15.226 -0.0669  0.3140  0.2961
21533W        W36664   5.249   3.084   2.743  0.2365 -0.0090  0.1169
21534W        W36665  12.854   2.008  13.322  0.2100  0.0549  0.2778
21535W        W36666  14.970  17.471  11.327  0.1187 -0.1410  0.5308
21536W        W36667   6.542  18.397  10.982 -0.2128 -0.0918  0.0384
21537W        W36668  14.247   1.570   2.232  0.1372  0.0623 -0.0489
21538W        W36669  12.543  12.241   1.943  0.0095  0.2098  0.1665
21539W        W36670   7.996  12.215   0.582  0.3591  0.1248  0.0498
21540W        W36671  10.591   3.495   6.053 -0.5164  0.2431 -0.1080
21541W        W36672  16.861   8.173   1.910 -0.1117 -0.3839 -0.1394
21542W        W36673   2.313   4.593   1.480 -0.0326 -0.0792 -0.0329
21543W        W36674  16.455   6.467  12.352  0.3193  0.0172  0.1330
21544W        W36675  15.915   5.758   0.448  0.1498 -0.2674  0.3252
21545W        W36676   6.153   7.589  13.287  0.2459 -0.0423 -0.0072
21546W        W36677   4.190   6.051   0.284 -0.2440 -0.1719 -0.3291
21547W        W36678   6.990  10.474   1.650  0.1366  0.3313 -0.1669
21548W        W36679  13.317   5.141  10.230  0.2032 -0.0459  0.0696
21549W        W36680   4.503  15.761  12.129  0.3805 -0.0264 -0.0310
21550W        W36681  10.963  17.402  14.266  0.3346 -0.1988 -0.2883
21551W        W36682  10.834  16.196   3.815  0.2548 -0.2064 -0.0315
21552W        W36683  18.325   4.226  13.465 -0.1170 -0.2429  0.0340
21553W        W36684   2.359  17.197  12.371  0.1792 -0.1863  0.1897
21554W        W36685   2.229  17.043  13.256 -0.2128  0.0573  0.5625
21555W        W36686   1.279   8.043  14.067  0.0281 -0.2437  0.0402
21556W        W36687  11.357   5.055   5.419  0.1469 -0.0749  0.1609
21557W        W36688  17.268   8.717  12.603  0.2769 -0.2038  0.2004
21558W        W36689   1.264   1.362   2.438  0.2030 -0.0057  0.0257
21559W        W36690  10.354   3.470  10.808  0.2397 -0.3637  0.4766
21560W        W36691  11.324   2.447   6.021  0.2018 -0.1847  0.1201
21561W        W36692   5.030   5.262   1.470  0.0016 -0.1732  0.2196
21562W        W36693  13.027  17.317  11.448  0.0750 -0.0158  0.0548
21563W        W36694   6.073  11.242  12.895  0.3104 -0.3336  0.1310
21564W        W36695   4.863  15.594   0.442 -0.0972 -0.1782  0.0424
21565W        W36696  11.342  18.381  15.002  0.0557 -0.0664 -0.0307
21566W        W36697  10.913  16.939  13.389  0.2038 -0.1334 -0.0801
21567W        W36698  16.841  10.702   4.256 -0.0674  0.2507  0.1499
21568W        W36699   5.852   4.527  14.120  0.2998 -0.0704 -0.1868
21569W        W36700   8.305  14.173  15.197 -0.0904  0.0519  0.0040
21570W        W36701  18.219   4.491   4.439 -0.4764  0.0050 -0.3075
21571W        W36702   7.470   7.713   4.967 -0.0795  0.2065  0.0327
21572W        W36703   4.064  14.499   2.217  0.2115 -0.1400  0.0633
21573W        W36704   9.816   9.567  11.125  0.1783 -0.1118 -0.0291
21574W        W36705  11.160   9.452   4.578 -0.0553 -0.0031  0.1545
21575W        W36706   2.856   5.775   2.299 -0.0511 -0.0917 -0.2684
21576W        W36707  15.658   2.457  12.677  0.1981 -0.0286  0.1516
21577W        W36708  10.594   7.931   2.062  0.1191  0.0876 -0.1351
21578W        W36709  16.055   5.819   3.230 -0.2198  0.2536  0.0566
21579W        W36710   4.284  10.622   4.383  0.0912 -0.1189  0.1571
21580W        W36711   3.600   7.268  10.938 -0.1999  0.0336 -0.2589
21581W        W36712   7.100   2.153   2.351  0.0274 -0.2472 -0.0837
21582W        W36713  13.746  14.335   3.411 -0.1631 -0.1597  0.2039
21583W        W36714  18.005  11.440  11.112 -0.0556 -0.4929 -0.1230
21584W        W36715   8.356   2.064   1.989  0.0561 -0.0056 -0.0683
21585W        W36716  10.713  12.677   3.025 -0.2659  0.2516  0.0041
21586W        W36717   8.150   3.899   5.562  0.1963  0.0655 -0.2703
21587W        W36718   0.545   4.059  11.214 -0.0146  0.3631  0.1555
21588W        W36719   7.653   9.961   1.405 -0.2828  0.0026  0.0245
21589W        W36720   0.769   1.305   2.484 -0.3145 -0.1370  0.0458
21590W        W36721  11.524   9.142   4.362  0.0094 -0.0661  0.1185
21591W        W36722   6.456  18.088  15.124  0.2171 -0.1367 -0.0828
21592W        W36723  14.090  17.025  11.072  0.0625 -0.1594  0.1879
21593W        W36724   2.809   1.036  15.174 -0.2914  0.4857 -0.2953
21594W        W36725  13.103   5.066   4.211 -0.1832  0.1588 -0.1823
21595W        W36726   9.726   6.823  13.346  0.1486  0.1933  0.2130
21596W        W36727   2.051   9.847  13.144  0.0287  0.2356  0.1840
21597W        W36728  12.915   5.092   4.730  0.0560 -0.0986 -0.1092
21598W        W36729  16.313  15.581  13.634 -0.3612 -0.2427  0.1588
21599W        W36730  12.916   6.622   1.626 -0.1956  0.0217 -0.0172
21600W        W36731  11.490  13.995   2.543  0.2978 -0.2053  0.1840
21601W        W36732  15.337  13.922  13.050  0.2829 -0.1209 -0.2488
21602W        W36733  16.842  15.529   0.452 -0.1273 -0.1535 -0.0343
21603W        W36734   5.921  16.979   2.760 -0.0653  0.1261 -0.1672
21604W        W36735  15.616  17.084   1.394  0.1482 -0.2703  0.1449
21605W        W36736   7.954  13.672   1.496 -0.3458  0.0067 -0.0294
21606W        W36737  12.596  13.255   5.289 -0.0553 -0.0295 -0.1856
21607W        W36738   1.618  11.449   3.940 -0.0881  0.1728  0.0452
21608W        W36739   9.019  14.946  10.443 -0.1020 -0.0572 -0.0802
21609W        W36740  12.768   0.041   3.426 -0.2981  0.1098 -0.1787
21610W        W36741  16.194  14.834  10.320 -0.2217  0.2258  0.0009
21611W        W36742  13.901  13.514   1.814  0.3334  0.0035 -0.0141
21612W        W36743   3.359   3.203   2.939  0.6354  0.1968 -0.1696
21613W        W36744  12.926   2.520   1.862  0.1294  0.1722  0.1488
21614W        W36745  15.098   4.000   1.819 -0.4799 -0.2140  0.0138
21615W        W36746   7.952  11.976  15.508 -0.3218  0.0258  0.1625
21616W        W36747   3.119   4.271   1.398  0.0913 -0.1721 -0.3782
21617W        W36748   5.185  16.712   3.875  0.1405 -0.1501  0.1917
21618W        W36749  14.907  10.969  12.077 -0.0261  0.0999 -0.1483
21619W        W36750  13.948   1.313  12.779  0.2343 -0.0538  0.2166
21620W        W36751  18.474   0.493  13.858  0.1063 -0.1855  0.4301
21621W        W36752  11.992  10.969   2.544 -0.0127 -0.1533  0.2873
21622W        W36753   9.113  10.279  11.981  0.1608 -0.0218 -0.1032
21623W        W36754   3.469   3.444  11.369 -0.3162  0.1706 -0.1164
21624W        W36755  14.295  16.459   2.220  0.0935 -0.0439 -0.0912
21625W        W36756   2.541   7.040   2.896  0.0775 -0.0312 -0.0163
21626W        W36757   4.042   4.895  12.401  0.2541 -0.2089  0.3309
21627W        W36758  12.977  10.558   4.958 -0.0088  0.2916 -0.0477
21628W        W36759   9.590   8.465  11.908  0.0739  0.2105 -0.2132
21629W        W36760   3.901   2.916   2.724 -0.2393 -0.0767 -0.3244
21630W        W36761   0.438  10.182   4.062 -0.3368 -0.0281  0.0765
21631W        W36762   9.866   2.604  13.998 -0.2406  0.1353 -0.0581
21632W        W36763   6.189  16.110  14.002 -0.1908 -0.0114 -0.1640
21633W        W36764  13.187  11.286  15.515  0.1157  0.2280 -0.0704
21634W        W36765  10.650   1.903  15.477 -0.2414  0.0821  0.0575
21635W        W36766  16.939   1.468   1.451 -0.2341  0.2253 -0.0911
21636W        W36767   5.317   5.405   6.194  0.0420 -0.1838 -0.0711
21637W        W36768   0.078   1.374  15.204 -0.1492  0.2968 -0.1050
21638W        W36769  16.565  13.710  13.525 -0.1409 -0.3020 -0.0362
21639W        W36770  14.561  16.280  11.514 -0.1355  0.0545  0.0293
21640W        W36771   5.528  17.563   0.762  0.3069  0.0779 -0.2619
21641W        W36772   8.486  16.931  14.559 -0.1936  0.0803 -0.2351
21642W        W36773   9.092  16.776  13.929  0.0442 -0.0298  0.0572
21643W        W36774  15.819   7.076  12.062  0.0524 -0.0916  0.0804
21644W        W36775  13.964  17.072  14.341  0.0339 -0.1573 -0.1825
21645W        W36776   7.527  10.091   4.780  0.2208 -0.0245 -0.0239
21646W        W36777   2.371  14.360   3.731  0.1128 -0.0980 -0.0896
21647W        W36778  14.067  10.509   1.288 -0.3432 -0.1313  0.0063
21648W        W36779   6.494   4.589  15.358 -0.1045  0.0168 -0.1387
21649W        W36780  14.159  11.061  11.687 -0.0830  0.1273  0.3971
21650W        W36781   2.700  15.915   1.281  0.1637  0.1065 -0.0912
21651W        W36782  17.615  17.128   0.786  0.0463  0.2430  0.2517
21652W        W36783  11.782   2.343  13.798 -0.3596  0.1871  0.1192
21653W        W36784   0.399  15.030  10.813 -0.1478  0.0499  0.2679
21654W        W36785  16.518   9.565   1.694  0.2660 -0.0084 -0.1058
21655W        W36786  17.371   7.064  11.484 -0.0195  0.3854 -0.0976
21656W        W36787   0.392  11.304  11.760  0.2692 -0.2510 -0.1801
21657W        W36788  10.132   2.687  15.399 -0.1242 -0.0314 -0.0132
21658W        W36789  15.029  10.555  11.144 -0.1928 -0.1309  0.2406
21659W        W36790   6.317   4.748  13.007 -0.0563  0.0393 -0.1769
21660W        W36791  17.879  17.215  14.675  0.1471 -0.0732  0.1750
21661W        W36792  16.509  17.627  14.959 -0.3352  0.2358  0.1714
21662W        W36793  16.660  13.280   5.030  0.1301 -0.2760  0.0713
21663W        W36794   6.839   0.813   0.581  0.2733  0.2951 -0.2169
21664W        W36795  13.212  18.411  12.328 -0.0908  0.0589  0.4697
21665W        W36796   2.050   3.625  13.062 -0.0514 -0.0578  0.2374
21666W        W36797   9.936   4.867   2.430 -0.0679 -0.1019  0.1506
21667W        W36798   0.758  10.618   5.608 -0.1362  0.0722  0.2633
21668W        W36799  15.341  11.615   0.652  0.1012 -0.2310 -0.2130
21669W        W36800  14.980   9.731   4.213 -0.0623 -0.1204  0.0855
21670W        W36801   9.613  17.028   3.353 -0.2205  0.1583 -0.0088
21671W        W36802   5.832  14.245  13.570 -0.0140 -0.1115  0.1808
21672W        W36803   2.813   0.627   4.217  0.3079  0.3194  0.1306
21673W        W36804  13.590   6.417  11.698 -0.1388 -0.2054 -0.0485
21674W        W36805   9.977   0.749   3.532 -0.2585  0.3977 -0.1482
21675W        W36806  17.955  14.905  10.767 -0.1855 -0.0979  0.0304
21676W        W36807   6.142  17.119   9.685 -0.3639  0.0570  0.0051
21677W        W36808   0.043  11.270  11.260  0.2742  0.1028  0.1408
21678W        W36809  17.554  11.113   4.489 -0.0446  0.3004  0.1133
21679W        W36810   6.161  12.437  11.876 -0.0683 -0.1014  0.0778
21680W        W36811  14.187  14.186  12.361  0.0384  0.1934  0.0492
21681W        W36812   8.575   5.282  13.995  0.0706 -0.0700 -0.3144
21682W        W36813  17.352   7.582   4.908 -0.0216  0.0748 -0.0067
21683W        W36814   7.959   6.483  15.767 -0.0877  0.2968 -0.0968
21684W        W36815  12.623   3.929   3.822 -0.0853  0.0756  0.0357
21685W        W36816  12.771   5.573  14.830 -0.0267  0.1807 -0.0147
21686W        W36817  13.389   8.068   2.400  0.1222 -0.1931  0.0738
21687W        W36818   9.674  13.577   4.038  0.0983  0.0680  0.1577
21688W        W36819   0.701  16.937  11.355 -0.1180  0.3841 -0.0133
21689W        W36820   0.629   7.111   0.844 -0.1022 -0.1694 -0.1654
21690W        W36821   9.276  15.905  14.751  0.2117 -0.1765  0.0634
21691W        W36822   7.060  13.842  14.029  0.3725  0.0184  0.3690
21692W        W36823   9.799   8.926   2.316  0.3766 -0.0121  0.2231
21693W        W36824   4.117   5.852   4.598  0.0169  0.1358  0.2193
21694W        W36825  13.438   3.965  12.145  0.1201  0.1013  0.1675
21695W        W36826   5.716  10.839   1.921 -0.0096 -0.0189 -0.1302
21696W        W36827   8.101   4.801  11.347  0.0206  0.1363  0.0239
21697W        W36828  13.124   4.505  14.955  0.1904  0.1418 -0.2574
21698W        W36829   8.288   8.679   2.602 -0.0125  0.0500  0.0388
21699W        W36830   7.825  16.539  10.561 -0.0683  0.1017 -0.1735
21700W        W36831   4.979   6.389  15.745 -0.1764  0.0837  0.1823
21701W        W36832  16.479  12.592   0.441 -0.2775 -0.2990 -0.0198
21702W        W36833   9.634  15.977  10.515 -0.2531 -0.3146  0.0723
21703W        W36834  17.535   3.145  14.565 -0.0851 -0.0477  0.3713
21704W        W36835   8.996  17.685  15.430 -0.1871 -0.0400 -0.1256
21705W        W36836  12.167   3.120   4.803 -0.1549  0.0931 -0.2582
21706W        W36837  18.299   4.180   5.440 -0.0823  0.4147 -0.3891
21707W        W36838   8.394  16.574  12.541 -0.0843  0.0896  0.2743
21708W        W36839   4.473  11.209   4.018  0.1683  0.3221 -0.4436
21709W        W36840   1.500   2.581  12.659 -0.0827  0.2607 -0.1566
21710W        W36841   0.810   6.610  12.230 -0.2175  0.0698  0.1834
21711W        W36842  14.234  11.930   0.146 -0.0039 -0.4078 -0.1373
21712W        W36843  17.012  17.755   2.299 -0.1718  0.1191  0.0417
21713W        W36844   5.170  15.629   2.982  0.2615  0.1188  0.0396
21714W        W36845  12.881  12.642  14.275 -0.4117 -0.3376  0.0970
21715W        W36846   2.585   0.327   4.588 -0.3077 -0.1260  0.3444
21716W        W36847   2.650  11.611  15.639 -0.1249 -0.3237  0.2461
21717W        W36848  14.988  15.954   2.905 -0.1261  0.0069 -0.0440
21718W        W36849   7.558   7.734  10.718  0.1465  0.0469  0.4877
21719W        W36850   8.288  17.396  13.136 -0.0223 -0.2861  0.3028
21720W        W36851  10.162   0.942  13.619  0.2138 -0.0978  0.1820
21721W        W36852   8.609   7.480   2.257 -0.2581  0.0737  0.1155
21722W        W36853   6.070   7.796   4.642  0.1686 -0.1686 -0.0328
21723W        W36854   9.209  18.230   3.930  0.0552  0.0317 -0.2645
21724W        W36855   0.561   0.844  12.536  0.0222 -0.2460 -0.3491
21725W        W36856   7.480  14.486  15.848  0.1482  0.2762  0.0070
21726W        W36857  18.220   0.869   2.592  0.2274  0.0697 -0.0541
21727W        W36858  17.546   1.687   5.590  0.0355 -0.1596  0.3438
21728W        W36859  14.131   2.339  11.465  0.0768 -0.0210  0.1937
21729W        W36860  11.862  11.852  14.456  0.3268 -0.3597 -0.3755
21730W        W36861  18.115  17.540  10.714  0.2595 -0.1744 -0.0790
21731W        W36862  15.303  10.331  12.649  0.1054  0.0493 -0.0100
21732W        W36863   3.432   4.754  14.081  0.2804 -0.1451  0.2219
21733W        W36864   0.959   4.556   1.576  0.4021 -0.3453 -0.2816
21734W        W36865   6.057  13.752  15.436 -0.0356 -0.0816  0.1372
21735W        W36866   3.836   7.289   2.100 -0.1618 -0.1662 -0.0986
21736W        W36867   4.347  11.591  14.473 -0.0005  0.0476 -0.0372
21737W        W36868  12.489   5.299   0.808 -0.1593  0.3111 -0.0007
21738W        W36869   5.514  11.853   2.822 -0.0022  0.0000 -0.0933
21739W        W36870  15.871  14.670  11.651  0.0983 -0.0289 -0.2029
21740W        W36871   9.510  13.536  13.979  0.0494 -0.1299 -0.1203
21741W        W36872  14.877   0.713  11.650 -0.0182 -0.3910 -0.2388
21742W        W36873  17.801   1.847  12.105 -0.1336  0.2163 -0.2318
21743W        W36874   9.475   9.448   4.312  0.5803 -0.0676 -0.2837
21744W        W36875  10.966   0.971  10.170  0.3596 -0.1120  0.2398
21745W        W36876  14.673  18.273  12.179  0.1032  0.1442 -0.0037
21746W        W36877   4.026  18.399  10.165  0.0719  0.0098 -0.1288
21747W        W36878   7.571  12.885   3.864 -0.0837  0.0182 -0.0247
21748W        W36879   7.820   3.623   2.922 -0.1488 -0.2855 -0.0519
21749W        W36880   2.219   3.951  11.894  0.2243 -0.0998  0.1986
21750W        W36881  12.993   8.298  14.019  0.0123 -0.0579 -0.0708
21751W        W36882   6.646  13.265   1.582 -0.0323  0.0399  0.1315
21752W        W36883  13.421   9.353   1.355 -0.0007 -0.0374  0.2853
21753W        W36884   6.603  11.211   1.697  0.1358 -0.1443 -0.4635
21754W        W36885   9.277   9.969  15.497 -0.0347 -0.3808  0.0039
21755W        W36886  11.466   1.223   0.003  0.0484 -0.1439  0.4056
21756W        W36887   6.388   9.890  11.081  0.1504 -0.2105  0.0301
21757W        W36888   5.753  17.151   1.660 -0.0588 -0.0688 -0.2661
21758W        W36889  17.301   4.620   1.549  0.0581 -0.1129  0.1170
21759W        W36890  18.076   7.682   6.142  0.1265  0.1730 -0.2820
21760W        W36891   6.138  10.549   4.002 -0.1241  0.2492 -0.1376
21761W        W36892  13.988  17.168   3.589 -0.3473  0.1888  0.0895
21762W        W36893   8.933  11.455   0.352 -0.1373 -0.2874  0.0398
21763W        W36894   7.171   9.232  13.579  0.1539 -0.1083 -0.0309
21764W        W36895  14.909   9.582  13.040 -0.2609  0.1757  0.0353
21765W        W36896  12.425  15.410  13.655 -0.0023 -0.1190 -0.1445
21766W        W36897   5.944   9.874  15.558  0.0643 -0.1943 -0.0131
21767W        W36898   1.375  17.626  11.580  0.1718  0.0116 -0.0694
21768W        W36899  11.546   0.027   4.942 -0.0738  0.4042 -0.0507
21769W        W36900  17.244   1.283  14.151 -0.0743  0.2261  0.2633
21770W        W36901   7.511   0.043   4.997 -0.0845 -0.0409 -0.2679
21771W        W36902   3.319  10.648   2.811 -0.0082  0.0732 -0.0322
21772W        W36903   2.240   6.914  12.824 -0.0266  0.0814 -0.1348
21773W        W36904  16.890   6.017   5.593  0.0688 -0.0416 -0.1330
21774W        W36905   3.757  16.575  10.599  0.0506 -0.0148 -0.0026
21775W        W36906   8.085   9.223  14.025  0.0459  0.3867  0.2548
21776W        W36907  11.387   3.525   2.922 -0.0376 -0.0821  0.2735
21777W        W36908   6.824  17.043   4.546 -0.2544  0.1735 -0.0862
21778W        W36909   0.149   0.224  10.580 -0.2605  0.0465 -0.0000
21779W        W36910   6.655  17.432   2.516  0.0715 -0.2834 -0.3300
21780W        W36911  16.389  18.519  14.447 -0.2423 -0.1881 -0.2741
21781W        W36912   3.309  15.907   4.569  0.0648  0.0021  0.0020
21782W        W36913   8.712  12.020   3.913 -0.0585  0.0898 -0.1657
21783W        W36914  17.365  13.515   1.886 -0.1178 -0.2380 -0.0325
21784W        W36915   6.838   4.574   2.599  0.0465 -0.4231  0.0779
21785W        W36916   9.108  18.453   0.575 -0.0627 -0.0993 -0.2111
21786W        W36917   7.753  13.872  14.589 -0.0789 -0.0337 -0.3414
21787W        W36918   5.079  17.266  13.902  0.1110 -0.3849  0.0779
21788W        W36919  17.225   3.413  15.318 -0.2129  0.1858 -0.0506
21789W        W36920   1.285  10.469   4.972 -0.2581  0.3625 -0.0938
21790W        W36921   2.995   6.563  15.234 -0.0196  0.2813 -0.1681
21791W        W36922   2.816  16.160  12.466  0.0332 -0.0344 -0.0183
21792W        W36923  16.170  10.380  15.226 -0.3056 -0.1141 -0.0447
21793W        W36924   3.109  18.075   0.231 -0.0202 -0.1670 -0.1147
21794W        W36925  13.562   0.735  13.368 -0.1662 -0.1413  0.2790
21795W        W36926  11.820   4.200  13.276  0.1581  0.1792  0.1129
21796W        W36927  12.570  10.500  15.345  0.1357  0.0587 -0.0090
21797W        W36928   9.199   7.503   0.047 -0.2013 -0.3088 -0.3365
21798W        W36929   2.927   8.500  15.237 -0.1409 -0.3373 -0.3677
21799W        W36930   4.335  17.234  12.665 -0.5200  0.1924 -0.0403
21800W        W36931   2.975  15.571  12.404  0.2478  0.1702 -0.1960
21801W        W36932   4.099  16.424  14.009 -0.1825  0.2034  0.1162
21802W        W36933   9.839  14.746   3.740  0.0965  0.1635  0.1295
21803W        W36934  13.996  14.991  10.536 -0.0138 -0.2752 -0.0440
21804W        W36935   2.726   9.929   2.477 -0.3145  0.0771  0.1084
21805W        W36936  14.677   3.499   3.340 -0.1186  0.1074 -0.1104
21806W        W36937  14.188   3.794   3.380  0.0469  0.0278  0.1718
21807W        W36938  15.570   0.295  11.920  0.2091 -0.1768  0.2111
21808W        W36939  17.216  13.029   3.243  0.0565  0.1013  0.1342
21809W        W36940  11.112  10.177  11.114 -0.0890 -0.3423 -0.2371
21810W        W36941   3.243   2.657   4.378 -0.0300 -0.0330  0.1786
21811W        W36942  12.871  14.770   9.498  0.2705  0.2038 -0.2231
21812W        W36943   3.250   8.005   3.022 -0.0333 -0.1989  0.1643
21813W        W36944   0.984  13.187  13.527  0.2342 -0.3486 -0.1022
21814W        W36945   9.234   4.488  14.932  0.0744 -0.3317  0.1933
21815W        W36946   2.960  11.397  14.012 -0.1018  0.0356  0.3818
21816W        W36947   2.755   0.284  15.800  0.2279  0.1152 -0.4005
21817W        W36948  13.529   4.679  14.285 -0.3710  0.1174 -0.1050
21818W        W36949   7.933  12.138   5.113  0.2113 -0.4134  0.0360
21819W        W36950   2.474   0.784  13.557  0.0107  0.2416  0.0024
21820W        W36951  17.540  16.559   4.492  0.1794 -0.1616 -0.0609
21821W        W36952   6.947   1.132  14.105  0.0284 -0.1052  0.0659
21822W        W36953  11.273   3.815   0.609  0.0535 -0.0992  0.0796
21823W        W36954  13.299   3.909  15.601  0.2246 -0.0453 -0.2208
21824W        W36955  11.777   5.505  14.222 -0.1092 -0.3128 -0.2707
21825W        W36956   1.711   3.835  15.766  0.2733 -0.2376 -0.0445
21826W        W36957   8.149   3.964  14.059  0.0368 -0.1028 -0.0467
21827W        W36958   6.053  13.695  14.927 -0.1218  0.0450  0.2449
21828W        W36959  10.238  12.841   0.497 -0.2435  0.0571 -0.1597
21829W        W36960   0.978  11.556  10.601  0.0117  0.0958  0.0143
21830W        W36961   4.349  15.073   4.199  0.3497  0.2330  0.2297
21831W        W36962   5.745   0.223   1.301  0.0750  0.1073 -0.3277
21832W        W36963  10.809   5.880  12.368 -0.3120 -0.2206 -0.2340
21833W        W36964   8.223   0.006   3.958  0.2436 -0.3035 -0.1237
21834W        W36965   7.860   0.641   0.795 -0.2166 -0.1242 -0.2462
21835W        W36966   1.543  18.030  11.988  0.4040 -0.1132  0.0152
21836W        W36967   3.601   7.079   1.281  0.0364 -0.1715 -0.3103
21837W        W36968  11.050   2.279   0.581  0.0148 -0.0949  0.1607
21838W        W36969   8.791  11.783  10.452 -0.1168  0.1047  0.2941
21839W        W36970   6.333   5.035  15.687 -0.1739  0.1806  0.2068
21840W        W36971   8.700   1.105  13.046  0.1525  0.0330 -0.1127
21841W        W36972   8.399  17.860  14.818 -0.1467  0.1205  0.2067
21842W        W36973  11.478   4.252  10.224  0.4811  0.2346 -0.2264
21843W        W36974   0.181  12.733  11.942 -0.0488  0.1435 -0.0281
21844W        W36975   3.524  18.466  10.915  0.1058 -0.1690  0.0267
21845W        W36976  14.435  16.436  15.649 -0.2390  0.1675  0.1047
21846W        W36977   1.114   7.190   2.076  0.1561  0.0161  0.2407
21847W        W36978  13.853   9.424  10.943  0.5451  0.2855  0.0108
21848W        W36979  18.502  11.399  12.050 -0.4016  0.2605  0.1568
21849W        W36980   5.077  14.806   4.665  0.0519  0.0542 -0.1703
21850W        W36981   4.767  17.477  10.670 -0.0978 -0.0215 -0.0046
21851W        W36982  13.218   7.446  14.870 -0.0070 -0.1270 -0.1666
21852W        W36983  16.395   8.666   0.389 -0.2034  0.2877  0.1954
21853W        W36984   1.089   8.299   3.797 -0.2015  0.1615  0.0154
21854W        W36985  17.930  10.852  15.007 -0.3523 -0.0780  0.1607
21855W        W36986   6.709   7.176  11.849 -0.2937 -0.0818 -0.0086
21856W        W36987  10.698  10.478   2.906 -0.0025 -0.2142  0.0063
21857W        W36988   5.657  15.554   4.805 -0.0708 -0.1234  0.0826
21858W        W36989  16.248   9.781  11.207  0.0688  0.3784 -0.2053
21859W        W36990   8.720   6.351   1.109 -0.2170  0.0324  0.3971
21860W        W36991  14.545   4.091   1.983  0.0600 -0.1392  0.3742
21861W        W36992  10.857   4.000  10.975  0.0588 -0.0419  0.1775
21862W        W36993  12.737  12.678  12.999 -0.0693 -0.0755 -0.2148
21863W        W36994  13.376   9.606  10.970 -0.1690  0.1057 -0.3473
21864W        W36995   6.015   8.468  15.469  0.0994 -0.2005  0.1169
21865W        W36996   1.522   7.206   1.142  0.1388 -0.0772  0.0061
21866W        W36997   4.369  15.370  12.452  0.1448 -0.2312  0.0696
21867W        W36998   4.294  17.924  13.717  0.2795  0.1396 -0.3407
21868W        W36999  17.215   8.534  14.045 -0.2024  0.0630  0.3214
21869W        W37000   1.473   1.888   2.255 -0.3748  0.1991  0.0666
21870W        W37001  13.655  14.185  11.087 -0.1925 -0.0125 -0.2648
21871W        W37002   6.669   0.982  14.987  0.5678  0.1426 -0.0954
21872W        W37003   9.535   1.679  14.642  0.1932 -0.2636 -0.0645
21873W        W37004  16.850  15.322   1.404 -0.0462 -0.2788  0.1061
21874W        W37005   4.117  16.498   1.161 -0.1752  0.1578 -0.3890
21875W        W37006   0.466  11.930  15.539 -0.0771 -0.0345  0.0944
21876W        W37007  16.284   9.803   0.767  0.0591  0.1102  0.1090
21877W        W37008   8.153   5.710  13.486 -0.1340 -0.0546  0.1835
21878W        W37009   6.140  15.696  10.599 -0.1621  0.1465  0.2525
21879W        W37010   7.309  13.331  13.604 -0.1286  0.0172  0.2284
21880W        W37011   0.627   8.078  15.165  0.1636  0.0572  0.0057
21881W        W37012  16.751  10.210  15.898  0.0424  0.0335  0.1148
21882W        W37013  12.492   9.375   2.519  0.2876 -0.1292 -0.1311
21883W        W37014   2.700  10.032   1.350  0.0498 -0.0743 -0.4158
21884W        W37015  14.279   9.338   5.362 -0.0750  0.0529 -0.1521
21885W        W37016  12.050  13.405   3.225 -0.0986  0.0463 -0.0407
21886W        W37017   9.717  10.710  12.398 -0.3407 -0.0035  0.3779
21887W        W37018  18.489  16.308  13.942  0.0210 -0.0325  0.0432
21888W        W37019   5.274   9.571  14.920  0.1529 -0.0069  0.0929
21889W        W37020   6.152   4.636  12.565  0.2995  0.1348  0.1577
21890W        W37021  15.467   1.425  12.979  0.0250  0.4194 -0.0146
21891W        W37022  15.827  13.886  15.106 -0.3385 -0.0641 -0.1281
21892W        W37023  14.831  17.754  12.370  0.0284 -0.1175  0.0522
21893W        W37024   1.475  11.673   4.375  0.0593  0.0053 -0.3008
21894W        W37025  17.189   6.086  12.290 -0.2597 -0.0922 -0.1509
21895W        W37026  17.316   6.862  12.141  0.5463  0.4494  0.0575
21896W        W37027   1.611   5.812  14.188 -0.0746  0.0677 -0.0344
21897W        W37028  10.390   2.681  14.969  0.0792 -0.1195  0.1344
21898W        W37029   5.183   7.471  12.920 -0.3141 -0.0641  0.0435
21899W        W37030  14.803  12.564   4.042  0.3532  0.0572 -0.2810
21900W        W37031  10.363   5.750   9.958  0.0078  0.0548  0.1164
21901W        W37032   8.295  17.442   1.638 -0.0176 -0.0356  0.1239
21902W        W37033   8.140   5.672   2.020 -0.1574 -0.1144 -0.0413
21903W        W37034  12.116   1.058  13.479 -0.0251 -0.0059 -0.0591
21904W        W37035   5.758   6.987   5.080 -0.1609 -0.0284 -0.0698
21905W        W37036   2.276   4.213   2.426 -0.1679  0.2076 -0.4638
21906W        W37037  16.246   8.971  15.023 -0.2614 -0.2297 -0.0205
21907W        W37038  13.426  17.123   5.232 -0.2616  0.1972 -0.0043
21908W        W37039  11.487   0.801  14.718  0.0390 -0.0248 -0.0080
21909W        W37040   8.185   7.773  14.066  0.1104 -0.1060 -0.0828
21910W        W37041  15.117   7.981   1.999 -0.0012  0.0069 -0.2580
21911W        W37042  10.911   2.959   5.316  0.0846  0.0385  0.0233
21912W        W37043  12.748   1.948   1.275 -0.4237  0.2921  0.3896
21913W        W37044   9.324  14.824   1.275  0.0326  0.1257  0.1064
21914W        W37045  13.709  13.119  13.957 -0.1615 -0.0629  0.1789
21915W        W37046   8.571  12.800   0.760 -0.1259  0.0709 -0.0602
21916W        W37047   0.718  11.420   2.490 -0.3494  0.0758  0.1212
21917W        W37048   0.913   5.705   2.283  0.0747 -0.1037  0.0142
21918W        W37049  10.028  13.637  14.774 -0.0563  0.2246 -0.1626
21919W        W37050  18.223  13.073  13.380  0.1798 -0.0216 -0.0729
21920W        W37051   7.501   9.876  12.425  0.2260  0.2763  0.1235
21921W        W37052  14.555  13.903   5.301 -0.1749 -0.4031  0.1177
21922W        W37053  10.098  11.234  13.656  0.0499 -0.1155 -0.0186
21923W        W37054   4.553  15.741   1.648  0.2313 -0.0443  0.0737
21924W        W37055   1.131   1.890   4.785 -0.3808  0.0927 -0.3522
21925W        W37056  13.895  14.932   3.793  0.2626  0.0958  0.0795
21926W        W37057  17.672   0.388  14.360 -0.0385 -0.1130 -0.0034
21927W        W37058   8.077   6.961  10.421  0.2340  0.1432 -0.4288
21928W        W37059   0.897  11.127  11.797  0.0365  0.2493 -0.3294
21929W        W37060   7.427   0.611   1.338 -0.0015  0.0831  0.3610
21930W        W37061   5.774   2.177  10.629  0.0011  0.2703 -0.0754
21931W        W37062   8.857  18.011   4.997  0.5372 -0.3270 -0.2126
21932W        W37063   5.493  15.774   1.670 -0.0867  0.1350  0.2184
21933W        W37064  12.416   4.563   2.504 -0.0907  0.2264  0.0696
21934W        W37065  10.575  10.626  12.431  0.5214 -0.2332 -0.0482
21935W        W37066  15.293   7.577   3.282 -0.3835 -0.1936 -0.2038
21936W        W37067  12.926   8.744  10.851  0.0053 -0.1374  0.1700
21937W        W37068   7.872   0.744  12.534  0.0992 -0.1507  0.3790
21938W        W37069  14.937   4.336   3.521 -0.0631 -0.1009  0.2989
21939W        W37070   4.597   0.830   3.704 -0.2343  0.0755  0.0307
21940W        W37071   8.819   8.975   5.662  0.1644 -0.1470  0.3412
21941W        W37072  11.233   3.778   2.396  0.4830 -0.0387  0.0948
21942W        W37073  12.259  13.366   4.740  0.1530  0.0171 -0.2402
21943W        W37074  16.545  13.010   3.858 -0.1587 -0.0301  0.2349
21944W        W37075   5.403   2.885  15.281 -0.2849 -0.2658  0.2692
21945W        W37076  13.900   6.060  15.773  0.2214  0.2162 -0.1585
21946W        W37077   9.212   5.941   4.796  0.0994 -0.2477 -0.0131
21947W        W37078   0.080  18.468   6.306  0.2041 -0.3569  0.1330
21948W        W37079   8.814  18.042  11.498  0.0987 -0.0634  0.1558
21949W        W37080   9.745   8.593  11.444 -0.6313 -0.2117  0.1142
21950W        W37081  13.346  11.047  11.875  0.0825 -0.1663 -0.0441
21951W        W37082  16.200   0.887   5.077 -0.0356  0.1477  0.2435
21952W        W37083   0.565  15.622   4.556 -0.0509 -0.1653  0.0189
21953W        W37084  12.505   6.213   3.701 -0.2536  0.2189 -0.0883
21954W        W37085   2.418   9.831  13.531 -0.1788  0.0127 -0.0716
21955W        W37086   5.031   9.213  11.614 -0.0252 -0.0474  0.0877
21956W        W37087   4.863   8.220  10.986  0.2922  0.1663  0.1085
21957W        W37088   7.742   7.193  12.683 -0.1133  0.1204 -0.1005
21958W        W37089  10.286   7.198  12.556 -0.0127 -0.1318 -0.2124
21959W        W37090  17.474   9.900  10.863  0.1124  0.3031  0.0780
21960W        W37091  12.498   8.469  11.805 -0.1440 -0.2092 -0.1497
21961W        W37092  11.261  14.432  13.557 -0.0390 -0.3599  0.1002
21962W        W37093   9.525   3.185   2.580 -0.0474  0.4285  0.1739
21963W        W37094  15.557  14.780  12.553  0.3467 -0.1472 -0.0968
21964W        W37095  14.432  14.642   1.736 -0.1628 -0.1416 -0.2916
21965W        W37096  12.724   1.008   3.062 -0.1832  0.0515 -0.1516
21966W        W37097   5.439  12.805  10.896 -0.2026 -0.4301 -0.3417
21967W        W37098  14.422  14.072  15.330 -0.0557  0.3631 -0.2490
21968W        W37099  10.544   1.798   4.843  0.0703 -0.1676 -0.1759
21969W        W37100   0.442   2.578   1.535  0.0839 -0.1901  0.0014
21970W        W37101  16.130  10.986   3.142 -0.0522 -0.0679  0.2206
21971W        W37102   1.633  11.775   5.348  0.0163  0.1299  0.1449
21972W        W37103   4.914   2.649  14.051 -0.0567 -0.0291  0.2885
21973W        W37104   0.747   5.672   5.325 -0.1070 -0.1358 -0.3648
21974W        W37105   2.596   4.875   5.491  0.2412 -0.2305  0.0511
21975W        W37106   2.006  17.354   5.527 -0.0373 -0.2351 -0.1730
21976W        W37107  10.844  13.196   3.000 -0.0448  0.2547  0.1289
21977W        W37108   5.068   9.931   4.069  0.1715 -0.0846  0.3046
21978W        W37109   0.949   2.889   1.785 -0.3765  0.1433  0.1252
21979W        W37110   3.617   4.468  11.674 -0.1668 -0.2537 -0.3299
21980W        W37111   9.261   5.447  14.923  0.0883  0.0055  0.0086
21981W        W37112  12.440   6.567  15.627 -0.0713 -0.4947  0.0927
21982W        W37113   4.580   6.308   1.119 -0.3869 -0.0056  0.0708
21983W        W37114   7.879   4.994   5.309  0.0703 -0.4817  0.0362
21984W        W37115  10.192  15.101   4.417 -0.1736  0.2132 -0.0237
21985W        W37116   4.035   2.034  15.186  0.0504  0.2513  0.0468
21986W        W37117   1.805  11.915   3.938  0.0003  0.0438  0.3718
21987W        W37118   3.087   6.147   0.503  0.0652  0.0069 -0.0576
21988W        W37119  10.955   1.522   3.672 -0.1557  0.0995 -0.2888
21989W        W37120   7.759  18.217  10.647  0.0531  0.1482  0.1916
21990W        W37121   2.754   1.821   5.708  0.0871 -0.0255  0.4248
21991W        W37122  13.230   1.041   3.143 -0.0098  0.1723 -0.2040
21992W        W37123   6.054   4.605  11.479 -0.3010  0.0362  0.0682
21993W        W37124   3.166   4.219   0.861  0.1700  0.1268 -0.2888
21994W        W37125   9.270   1.306   4.734 -0.1172  0.2524 -0.0071
21995W        W37126   8.557  13.604  12.323 -0.0005 -0.3010 -0.0104
21996W        W37127   7.762  15.786  11.747 -0.2905  0.1734 -0.1114
21997W        W37128  11.220  10.406   3.322  0.3765  0.0272 -0.0989
21998W        W37129  13.250  10.311  14.096  0.1762 -0.1710 -0.1702
21999W        W37130  12.430   7.504   4.812 -0.2947  0.0980  0.0368
22000W        W37131  12.359   1.808   0.275  0.0720 -0.1289  0.0955
22001W        W37132   0.305   3.396   0.129  0.0561 -0.1308  0.0048
22002W        W37133  15.237  11.484  13.284  0.0649  0.1557  0.3663
22003W        W37134  13.162  13.133   1.300 -0.1104  0.1394 -0.3574
22004W        W37135  10.108   4.238   1.141 -0.0326 -0.1028 -0.0900
22005W        W37136  17.390  11.581   6.515  0.1911  0.1638  0.1577
22006W        W37137  12.298  10.186   0.163 -0.1597  0.0677  0.0382
22007W        W37138  13.759   3.286  10.078 -0.3410  0.2085 -0.1749
22008W        W37139   5.356  16.402   4.805  0.0003 -0.1523 -0.2434
22009W        W37140  17.077  16.242  10.636 -0.5431 -0.0476  0.2296
22010W        W37141  16.772   1.674   0.997  0.1008 -0.1669 -0.1784
22011W        W37142   0.098   5.090  12.147 -0.1805 -0.1935 -0.0943
22012W        W37143   2.233   1.323   2.191 -0.0101  0.3921 -0.0758
22013W        W37144  18.420  11.408   2.188 -0.3098 -0.0235  0.0007
22014W        W37145   2.594   2.108  15.747 -0.0620  0.1581  0.0933
22015W        W37146   6.147   6.381  14.736  0.0587 -0.0396 -0.0523
22016W        W37147  16.674  14.954  10.459  0.4480  0.1011  0.1187
22017W        W37148  11.933   8.581   0.201 -0.1912  0.1205 -0.1233
22018W        W37149   6.599   4.665  10.322 -0.3368  0.0497 -0.2092
22019W        W37150  16.473  13.879   1.692 -0.1521  0.0949  0.0827
22020W        W37151  12.057  12.229  11.715 -0.0861 -0.0768 -0.1205
22021W        W37152   7.694   2.849   2.488  0.1179 -0.1612 -0.1652
22022W        W37153  16.049  12.938  10.712 -0.1064 -0.2654  0.2336
22023W        W37154   8.221  11.945   3.796  0.0424  0.1289 -0.0403
22024W        W37155   4.779  10.508  14.177 -0.0967 -0.1182  0.1562
22025W        W37156   2.535  13.176   6.159  0.1342  0.0815  0.0939
22026W        W37157  18.417   0.040   4.070 -0.0860 -0.4256 -0.0235
22027W        W37158   3.354   2.189  13.272 -0.3910 -0.1095  0.2197
22028W        W37159  16.506  10.367  10.347  0.1962  0.3198 -0.2980
22029W        W37160  15.921   3.479  15.872 -0.1354 -0.0461 -0.0778
22030W        W37161   0.459  10.835   3.908 -0.4364  0.0155  0.0183
22031W        W37162   5.419  14.373   3.813 -0.0536 -0.1707  0.3170
22032W        W37163  13.096   3.728  12.967  0.1117  0.0427  0.1719
22033W        W37164   2.719   6.658  13.776  0.0431 -0.2466  0.1640
22034W        W37165   7.130   7.459   0.815 -0.2292  0.1151 -0.0280
22035W        W37166   4.867  14.814  14.677 -0.1305  0.1418 -0.0322
22036W        W37167  17.124  11.988   0.079 -0.1932 -0.2069  0.2332
22037W        W37168   9.516   7.945   3.124 -0.1863 -0.0681 -0.0159
22038W        W37169  10.512   1.185  11.927 -0.2868 -0.0670  0.0503
22039W        W37170  14.300   3.660  12.402 -0.0128  0.1487 -0.2960
22040W        W37171   4.113   1.553  14.636  0.0007  0.1473  0.1650
22041W        W37172   9.216  18.437  13.690  0.0724 -0.2004  0.1927
22042W        W37173  13.372   1.679  12.982  0.1097 -0.1391  0.0555
22043W        W37174  13.467  11.065  14.512 -0.2295 -0.0595  0.0996
22044W        W37175  10.035  13.695  12.368 -0.1782  0.3396 -0.2133
22045W        W37176  16.428   6.161  13.388  0.3469 -0.0401  0.1557
22046W        W37177   3.120   6.017  13.407 -0.1437  0.0607 -0.2212
22047W        W37178   4.724   7.526   0.428  0.1190 -0.1199 -0.1853
22048W        W37179   8.233  10.062  14.487  0.3839  0.1246 -0.0593
22049W        W37180  17.034  17.092   2.302 -0.1422 -0.0062 -0.3226
22050W        W37181  10.361  12.987   1.699  0.0365 -0.0502 -0.1576
22051W        W37182   2.724  13.166   3.046 -0.1649 -0.0857  0.0387
22052W        W37183  18.227   3.336   2.799 -0.2311 -0.5188  0.3119
22053W        W37184   6.155   8.197  14.440  0.0584  0.2188 -0.4707
22054W        W37185  17.802   0.093   2.530  0.1879  0.3221  0.1265
22055W        W37186  14.345   7.415  10.003 -0.0611 -0.4832 -0.2512
22056W        W37187   9.625  15.276  12.024  0.0033  0.0438 -0.2422
22057W        W37188  11.418  12.469  12.939 -0.0565  0.1392 -0.0460
22058W        W37189   6.828  15.032  13.280 -0.2851  0.2904 -0.2691
22059W        W37190   6.059  18.258   3.697 -0.2836  0.1646 -0.1680
22060W        W37191   7.611  10.828   3.540  0.2038 -0.2703 -0.0684
22061W        W37192  15.706   0.237  13.417  0.2430  0.1256  0.2167
22062W        W37193  15.348  10.901  15.325 -0.0298 -0.1293 -0.0657
22063W        W37194   8.077  11.018  10.820 -0.1291 -0.2756 -0.4113
22064W        W37195   6.140  14.497   4.522 -0.3368 -0.1734 -0.3118
22065W        W37196   3.092  11.400   0.350 -0.0877 -0.1641  0.2375
22066W        W37197   7.366   3.342  11.454  0.0657 -0.0155 -0.0573
22067W        W37198  11.382   1.364  12.290 -0.1072 -0.2751 -0.0040
22068W        W37199   9.757   2.076   3.949  0.2417  0.4774  0.0677
22069W        W37200  18.046  12.616  15.311 -0.2409 -0.3968 -0.0356
22070W        W37201  12.719  16.008   1.697  0.0044  0.3549 -0.1056
22071W        W37202   7.064  17.843  13.957  0.0378 -0.0822 -0.0965
22072W        W37203  12.195  13.970  15.342 -0.0027  0.3270  0.0310
22073W        W37204   7.078  14.482   4.588 -0.1491 -0.0152  0.2890
22074W        W37205  14.017   1.487   0.856  0.0776 -0.1852  0.0088
22075W        W37206  13.047   2.927  10.766 -0.0415  0.1728  0.0424
22076W        W37207  16.247   8.866  13.597 -0.2177  0.1667  0.1394
22077W        W37208   0.626  18.049   0.561 -0.2691 -0.2737  0.2121
22078W        W37209  12.627  10.137  12.254  0.2472 -0.2849  0.1544
22079W        W37210   0.461   8.843  12.408 -0.2030 -0.1774  0.1645
22080W        W37211   2.380  10.471   2.189 -0.0244 -0.0630  0.2707
22081W        W37212  16.776   4.392  11.373 -0.0975  0.3101 -0.1394
22082W        W37213   1.619   9.509   5.796 -0.0268 -0.0231 -0.0028
22083W        W37214   1.908   9.564  11.413  0.0486 -0.0258  0.0158
22084W        W37215  11.012   6.757   3.749 -0.1170  0.3436 -0.2616
22085W        W37216   3.453  17.829  13.289  0.3597  0.2532 -0.2813
22086W        W37217  15.742  15.041  10.567  0.2591 -0.0094  0.0137
22087W        W37218   3.069   5.041  14.701 -0.0523 -0.3030 -0.1175
22088W        W37219   0.156  17.535  12.921  0.3429 -0.1682 -0.2136
22089W        W37220   3.610   2.025   4.859  0.0801 -0.0734  0.2063
22090W        W37221   9.607  16.418  15.505  0.1209  0.2232  0.0344
22091W        W37222   3.226  17.358  13.073  0.0098  0.3582  0.1156
22092W        W37223  14.608   6.541  10.309  0.2882  0.1049  0.1935
22093W        W37224   7.106   3.686  12.990  0.0342 -0.0381 -0.1973
22094W        W37225   7.999  17.034   1.592  0.1648 -0.2667 -0.1525
22095W        W37226   8.140  11.641   2.681 -0.3991 -0.3220 -0.0676
22096W        W37227   2.889  10.943  12.857 -0.0375 -0.1181  0.1062
22097W        W37228   0.781   5.407  13.822  0.1811 -0.0390 -0.0429
22098W        W37229  18.228   1.725   5.100  0.1647 -0.0320  0.2799
22099W        W37230   9.793   6.017  11.462 -0.3049 -0.0824  0.1668
22100W        W37231  11.134  13.812   3.470  0.0324  0.2472  0.2746
22101W        W37232   7.974   7.497   3.945  0.0650 -0.1553  0.0927
22102W        W37233   1.034   8.277   2.535  0.2784 -0.0045 -0.0883
22103W        W37234   1.384   2.719   1.056 -0.0968  0.1657  0.1444
22104W        W37235  16.656  13.943   0.662 -0.0569 -0.0739 -0.0399
22105W        W37236   7.962   5.888   2.437  0.1527 -0.3195 -0.3054
22106W        W37237   9.284  15.990  12.553  0.0305 -0.1579 -0.2454
22107W        W37238   7.601   7.492  13.439  0.0620 -0.2379 -0.0970
22108W        W37239  10.688   2.550   1.553  0.1790 -0.1761  0.3677
22109W        W37240  11.857  17.264  14.588  0.1790  0.3569  0.2364
22110W        W37241  15.813  14.396   3.514 -0.3785  0.0228 -0.0156
22111W        W37242   9.149   9.925  12.306 -0.0741  0.1003  0.1395
22112W        W37243  18.190   3.178   4.111 -0.2502  0.0277 -0.3990
22113W        W37244   6.570   0.336   1.363 -0.1617  0.0502 -0.3203
22114W        W37245   8.494  15.394  11.585  0.1446  0.0198 -0.3950
22115W        W37246   4.427   0.769  14.280  0.1598 -0.1429  0.3287
22116W        W37247   1.383   7.543   3.928  0.1382  0.1422 -0.1418
22117W        W37248  14.118   5.270   1.608 -0.4022  0.1314 -0.0230
22118W        W37249   4.774  12.115   2.401 -0.2784  0.1401 -0.0270
22119W        W37250   7.077   0.307  10.261 -0.2912 -0.2601 -0.1183
22120W        W37251  15.897  17.071  11.403 -0.0063  0.0250  0.2207
22121W        W37252  17.969   8.621  11.325 -0.0989  0.4151  0.2132
22122W        W37253  13.807   0.645   4.266  0.3785 -0.0521  0.1990
22123W        W37254   9.831  10.365  12.963 -0.0247  0.0851 -0.0413
22124W        W37255   7.176  15.753  12.037 -0.0552 -0.1510 -0.0997
22125W        W37256  15.819   5.866  10.239 -0.3068 -0.0813 -0.0892
22126W        W37257   5.179  16.625  10.667 -0.0253 -0.1326 -0.0653
22127W        W37258   1.735  10.845  13.889 -0.0159  0.1495 -0.0654
22128W        W37259   5.113   0.050   4.352  0.2677  0.0169  0.0485
22129W        W37260   0.210  18.323  11.109 -0.2498  0.1404  0.2038
22130W        W37261  15.616   7.783   4.176 -0.0014 -0.2656 -0.2293
22131W        W37262  10.907   7.572  13.729  0.0574  0.0851  0.1109
22132W        W37263  10.255   0.983  14.671  0.0014 -0.3085  0.0166
22133W        W37264  17.229   2.712   0.033  0.0131 -0.1306 -0.2542
22134W        W37265   2.501  12.668   2.848  0.0285 -0.2326  0.0290
22135W        W37266  14.985  16.251  15.610 -0.2134 -0.0902 -0.0252
22136W        W37267   7.713  14.413  13.265 -0.0438  0.2169 -0.1224
22137W        W37268   0.310  12.316   0.745  0.0039  0.0542  0.3820
22138W        W37269   5.915  16.257  11.862 -0.1782  0.2372  0.0444
22139W        W37270  12.185   9.767   0.585 -0.2030  0.0185  0.0095
22140W        W37271   7.221  13.932  10.773 -0.0906 -0.2402 -0.0541
22141W        W37272  17.686   7.450  15.560  0.0747 -0.0935  0.3140
22142W        W37273   6.874   7.248   3.575  0.1493 -0.4462  0.1784
22143W        W37274   4.400  11.949  10.983 -0.0318  0.1453 -0.2895
22144W        W37275  18.385   9.555   4.492  0.0349 -0.2050  0.2723
22145W        W37276   1.060  11.161   1.711  0.1160 -0.2098  0.0303
22146W        W37277  11.333  14.548   1.349 -0.0408 -0.2422 -0.2635
22147W        W37278  16.780  16.748   3.156 -0.2882 -0.2342  0.3477
22148W        W37279   2.786   6.388  14.781  0.1896  0.1492 -0.1104
22149W        W37280  17.385   4.542  13.795 -0.0437  0.0273  0.0414
22150W        W37281   6.384   5.985  14.910 -0.2266  0.3341 -0.1255
22151W        W37282   4.316   9.545   2.209  0.1367 -0.0136  0.0525
22152W        W37283  18.258   7.089  15.883  0.3233 -0.1240 -0.2517
22153W        W37284   3.813   0.027  14.604 -0.0803 -0.2385  0.1583
22154W        W37285   4.754  16.504   3.593 -0.2645 -0.2393  0.2023
22155W        W37286   9.063  17.816   2.423 -0.3473  0.0756  0.0917
22156W        W37287   6.043   9.989   1.566 -0.1085  0.0286 -0.4666
22157W        W37288   1.256  14.480  13.341 -0.2963  0.1309  0.2038
22158W        W37289  11.886  11.834   4.583  0.0651  0.2147  0.3298
22159W        W37290  17.307   6.868  14.706 -0.1936  0.0242  0.1962
22160W        W37291  13.724   2.213  15.549 -0.3219  0.2041 -0.4108
22161W        W37292   4.066   5.690  10.751 -0.0087 -0.0072 -0.0122
22162W        W37293  11.920   4.946   0.434  0.0223  0.0844 -0.0237
22163W        W37294  12.068   9.223   1.237 -0.0825  0.0148  0.2259
22164W        W37295  14.227   4.578   4.876 -0.0518 -0.0847  0.4120
22165W        W37296  13.280   9.114  12.322  0.1209 -0.0461 -0.0856
22166W        W37297  15.848   0.093  15.115 -0.0963 -0.0441 -0.2868
22167W        W37298  12.716   1.579   4.808  0.2162 -0.0177 -0.1061
22168W        W37299   9.915  16.738   0.022  0.3841 -0.1858 -0.0487
22169W        W37300  13.213   5.516   4.048  0.0870 -0.0094 -0.0665
22170W        W37301  16.713   7.474  12.397 -0.0938  0.2032 -0.0796
22171W        W37302   4.212   8.330   2.063  0.0252 -0.2792  0.1119
22172W        W37303   5.657   4.662  15.067  0.4040  0.0120 -0.0258
22173W        W37304   2.714  15.407   5.740  0.1067 -0.2168 -0.0187
22174W        W37305   0.087   4.234  11.057  0.1279  0.2455 -0.2895
22175W        W37306  10.530  15.108   0.748  0.2057  0.0503  0.1389
22176W        W37307  11.377  10.094  10.387  0.1628  0.0519 -0.0216
22177W        W37308   1.891   6.668   1.113  0.1253 -0.1681 -0.0004
22178W        W37309  16.668  11.154  14.615  0.2273 -0.2539 -0.1218
22179W        W37310   6.427  11.653   5.590  0.1931 -0.2825 -0.2189
22180W        W37311  14.371  14.847   0.447 -0.0899 -0.3847  0.1487
22181W        W37312  10.786   6.801   4.200 -0.0559  0.0212 -0.1115
22182W        W37313   6.790  18.321  11.402  0.2762  0.0442 -0.0536
22183W        W37314  12.573  14.365  13.221  0.1864 -0.3458 -0.0721
22184W        W37315  11.214   5.088  11.552 -0.1022  0.2009  0.4361
22185W        W37316   5.843   6.934   1.971  0.0001  0.2734  0.0150
22186W        W37317   8.577   4.960  11.319 -0.1435  0.1415  0.1889
22187W        W37318   5.695   4.219  15.350  0.3025  0.3035  0.1639
22188W        W37319   5.630  11.548  15.028 -0.1028 -0.1552 -0.0515
22189W        W37320   7.118  14.978   0.706 -0.2150 -0.3130  0.0149
22190W        W37321  18.217  11.825   5.023  0.1289  0.2194 -0.0876
22191W        W37322  17.737  13.481   5.958  0.0403 -0.1052 -0.0628
22192W        W37323   7.478  13.842   2.325  0.2442 -0.1212 -0.2035
22193W        W37324   3.998   2.962  12.873 -0.3673 -0.0042 -0.3989
22194W        W37325  14.761  11.702  13.140  0.3713  0.1191 -0.0110
22195W        W37326   9.798   9.908  15.589  0.0093  0.0610 -0.1231
22196W        W37327   5.021  17.989   5.156 -0.0591  0.0285 -0.0434
22197W        W37328   1.325   8.629   4.087  0.4113  0.3501  0.0301
22198W        W37329  16.027  14.202  14.291 -0.2723 -0.0107  0.1121
22199W        W37330   2.161   7.975  14.792  0.1289  0.0822 -0.0390
22200W        W37331   8.151  13.725   2.810 -0.0317  0.1690 -0.0992
22201W        W37332   2.360   6.678  12.370  0.2237 -0.0563  0.2440
22202W        W37333   3.597   7.622  12.232 -0.1214 -0.0514  0.0186
22203W        W37334  15.783   1.065  15.717 -0.0969 -0.0023 -0.0570
22204W        W37335   5.213  16.995   4.849  0.1481 -0.1183 -0.0197
22205W        W37336   4.739  16.478   4.140 -0.0716  0.1687 -0.3617
22206W        W37337   5.910  18.326  12.910 -0.5231  0.0563  0.0255
22207W        W37338   8.016   9.218   3.442 -0.1981  0.2920  0.0790
22208W        W37339   0.219   7.232  10.705  0.2123  0.1426  0.1062
22209W        W37340  12.042   2.582   4.648  0.1751 -0.0745 -0.1830
22210W        W37341   8.208   6.248  14.945  0.2455  0.0707 -0.0560
22211W        W37342  13.495   1.607  11.581  0.3799  0.1784  0.0510
22212W        W37343  14.169   4.185  11.262 -0.0392  0.0047  0.0052
22213W        W37344   3.845   7.620  10.684 -0.2435  0.1250 -0.0273
22214W        W37345  11.908   6.511  11.982  0.0841  0.2996  0.3021
22215W        W37346  15.282   1.067   3.826  0.0513 -0.1363 -0.0405
22216W        W37347   1.078   5.947  11.402  0.2204 -0.0589  0.2616
22217W        W37348   9.892   3.519   2.704  0.2140 -0.0598  0.0216
22218W        W37349   8.930   6.905  14.964 -0.1422 -0.2970 -0.3023
22219W        W37350  11.004  12.315   4.746 -0.0022 -0.1162  0.1018
22220W        W37351  11.311  13.505   4.190  0.1675 -0.1240  0.0129
22221W        W37352  18.128   5.153   1.181  0.3371 -0.0559 -0.2569
22222W        W37353   7.616   4.884   4.848  0.0319 -0.1201  0.0935
22223W        W37354  17.629   3.423   3.737 -0.0234  0.1606  0.0222
22224W        W37355   4.224   2.951  14.938 -0.3763  0.3864  0.1415
22225W        W37356   7.397  14.713  11.727  0.0749  0.1680  0.4801
22226W        W37357   8.585   2.894   4.866  0.1535 -0.0862 -0.0561
22227W        W37358  11.143  17.805  12.088  0.1550 -0.1069  0.1189
22228W        W37359   6.269   9.509  14.681  0.0977  0.1302 -0.0851
22229W        W37360  11.231  17.405   3.920 -0.0550 -0.1240  0.0509
22230W        W37361  17.911  10.222   1.607 -0.1916  0.3262 -0.3036
22231W        W37362   6.004   2.740   4.492 -0.1510 -0.0585  0.0397
22232W        W37363   3.637   6.684   4.349 -0.1156 -0.2330 -0.2632
22233W        W37364   5.966   2.582  14.100  0.2503  0.3561 -0.0019
22234W        W37365   8.275   8.045   1.691 -0.0583 -0.0809 -0.2316
22235W        W37366  14.286  10.058  11.727  0.1043  0.1070 -0.0880
22236W        W37367  16.296  16.210  10.533 -0.3773 -0.1166 -0.1452
22237W        W37368   6.623   3.845   2.095 -0.0717  0.1842  0.2729
22238W        W37369  10.847   8.047  11.337  0.0354  0.1470 -0.1151
22239W        W37370  13.359  10.712   3.146  0.2903 -0.0093 -0.0672
22240W        W37371  10.447   3.175  11.231  0.1100 -0.3210  0.2198
22241W        W37372  16.479   0.944  13.091 -0.2034 -0.0724  0.3110
22242W        W37373   4.935   5.987  15.371  0.0082  0.1277 -0.2261
22243W        W37374  15.662  11.649   1.474 -0.4212  0.1624 -0.0956
22244W        W37375  18.519   6.481  12.401 -0.0910  0.2487 -0.0808
22245W        W37376   6.800   2.797   0.364  0.1619  0.0121  0.0188
22246W        W37377  15.247   0.408   1.134 -0.2558 -0.2887 -0.1922
22247W        W37378   0.842   0.558   5.967  0.0617 -0.1256 -0.0090
22248W        W37379   0.430   8.263   3.881  0.1478 -0.0804  0.1128
22249W        W37380   4.573  16.254  15.035  0.3114 -0.2140 -0.2692
22250W        W37381   8.800   4.974  13.661 -0.0279  0.1575 -0.2943
22251W        W37382   0.428   4.705   4.367  0.0716 -0.1361  0.3084
22252W        W37383   1.270   6.250   1.781 -0.0640 -0.0648 -0.0431
22253W        W37384  12.159  14.311   0.802  0.0087 -0.2539  0.0582
22254W        W37385   4.529  10.375   3.289  0.0741  0.2031  0.0843
22255W        W37386  13.411  10.845  15.368  0.2362 -0.0951 -0.1154
22256W        W37387  15.580   7.435  14.690 -0.2105 -0.1087 -0.0696
22257W        W37388  10.369   1.701   5.323  0.1280  0.0974  0.1546
22258W        W37389  12.652  11.915  13.229 -0.0834 -0.1331  0.1358
22259W        W37390  10.008  10.634   4.221 -0.0144 -0.1690  0.5653
22260W        W37391  18.444  11.778  14.451 -0.1395 -0.3405 -0.0310
22261W        W37392  11.407  16.582  12.614  0.0676  0.0103 -0.0059
22262W        W37393  16.423   3.878   5.654  0.0671  0.0401 -0.2476
22263W        W37394   7.187  16.316  14.508 -0.2718 -0.1151 -0.0198
22264W        W37395   9.981   5.682   2.088  0.1255  0.2960  0.4578
22265W        W37396  17.640  17.783   5.141  0.2187  0.1127  0.1016
22266W        W37397  13.279  11.613   2.508  0.0111  0.1046  0.1902
22267W        W37398  13.303   9.949  15.074 -0.1015  0.0639  0.1891
22268W        W37399  13.895   9.985   1.782 -0.0312  0.2353 -0.3204
22269W        W37400  17.815  15.225  10.477 -0.1402  0.0634 -0.0115
22270W        W37401   1.339   7.366  12.101  0.1633  0.2476 -0.0303
22271W        W37402   5.466  17.537  13.741  0.5492 -0.1242  0.2267
22272W        W37403   7.540   1.928   3.137  0.0341 -0.0173 -0.1949
22273W        W37404  16.134   3.183  10.995 -0.1365 -0.0626 -0.0388
22274W        W37405   8.282   8.568  11.635 -0.1109  0.1396  0.2666
22275W        W37406  13.134  13.022  13.960  0.2690  0.2387  0.0015
22276W        W37407  17.648  16.277  15.546  0.1251 -0.2468  0.0102
22277W        W37408  12.963   1.783  11.437  0.2267 -0.3477  0.0495
22278W        W37409  15.831   4.547  13.166 -0.0098  0.0830 -0.0109
22279W        W37410   4.206  17.695   3.806  0.4888 -0.1591  0.2501
22280W        W37411  16.886  10.816  11.524 -0.1641 -0.0181  0.0810
22281W        W37412  18.521   9.986   2.787 -0.3087  0.0420 -0.0648
22282W        W37413   7.929   9.317  13.226 -0.0580 -0.2785  0.0764
22283W        W37414   2.353  10.513  11.167 -0.2737  0.2834 -0.2439
22284W        W37415   2.342  18.310  15.403  0.0815 -0.0211 -0.1129
22285W        W37416  11.945   9.160  12.481  0.0314 -0.2098 -0.0383
22286W        W37417  10.707  10.683   1.034  0.4149  0.1690 -0.1790
22287W        W37418   1.433   5.351  11.857 -0.2823 -0.2292  0.4070
22288W        W37419  17.791   6.354   3.423 -0.0154 -0.1267  0.0309
22289W        W37420   1.109   5.646   4.326 -0.0840 -0.0874  0.2209
22290W        W37421   0.825   3.532  12.623 -0.0421  0.2089  0.0431
22291W        W37422   5.190   4.075  12.139 -0.3031  0.1546 -0.1270
22292W        W37423  15.702   1.025   4.956 -0.2246  0.2730 -0.0220
22293W        W37424  10.732   8.501   4.385  0.1607  0.0235  0.0169
22294W        W37425   6.730  10.278  11.809 -0.2972  0.4242 -0.0327
22295W        W37426   2.860   3.805  13.336 -0.2434 -0.0366 -0.1691
22296W        W37427  16.154   6.585  13.482  0.0276  0.3728 -0.0808
22297W        W37428  13.335   0.511  12.606  0.4643 -0.0913  0.3457
22298W        W37429  16.775   0.462   3.013  0.2025 -0.2117  0.1389
22299W        W37430  10.163   5.546   0.850 -0.0712  0.0189  0.2313
22300W        W37431   5.036  15.073  11.818 -0.0740 -0.3164  0.0343
22301W        W37432  16.622   3.051  11.930 -0.2518 -0.1733  0.0907
22302W        W37433   9.634   4.370  12.328  0.1233 -0.0667  0.3944
22303W        W37434   8.411   0.470   0.876  0.0036 -0.0372 -0.0152
22304W        W37435   4.416  11.791  15.685 -0.3553 -0.3385 -0.0793
22305W        W37436   1.428  17.380   3.368  0.3235 -0.1040  0.0104
22306W        W37437  10.997  17.922   5.446  0.1549  0.0566  0.0069
22307W        W37438  15.155   7.974   4.786  0.1972 -0.1277  0.0078
22308W        W37439   6.055  11.859  14.317  0.3503  0.2201 -0.0782
22309W        W37440  17.907  14.613   2.416 -0.0946  0.1452  0.1644
22310W        W37441  16.537   1.216  14.387  0.0785  0.0187  0.3431
22311W        W37442   1.571  16.072   1.990 -0.3895  0.1363  0.0505
22312W        W37443  17.432   1.660   5.083 -0.1329  0.1860 -0.2118
22313W        W37444   7.489   2.458   3.163 -0.0577 -0.5284  0.3845
22314W        W37445   1.584  16.949  11.076  0.1056  0.1167  0.0228
22315W        W37446   9.328   2.710   2.488 -0.0100 -0.2739  0.0964
22316W        W37447   8.338  12.913  15.683  0.2265 -0.0259 -0.1732
22317W        W37448   0.013  13.138  12.236  0.0787 -0.3926  0.0038
22318W        W37449   7.550  17.991  13.131 -0.0290  0.0984 -0.1040
22319W        W37450   8.819  16.828  12.629 -0.4045 -0.2395 -0.2033
22320W        W37451  17.372  10.052   1.713  0.0355 -0.1394  0.1195
22321W        W37452   0.786   1.517  14.355 -0.3893  0.0496  0.2710
22322W        W37453   9.660   6.558   2.679  0.0276 -0.0979 -0.0565
22323W        W37454   4.717   5.225  12.678 -0.2573 -0.4069  0.0374
22324W        W37455  14.357   2.975   1.362 -0.4235  0.0832  0.1052
22325W        W37456   4.921   6.353   1.989  0.1046 -0.0806  0.1884
22326W        W37457  18.095   8.112  14.859  0.0449 -0.1733  0.4084
22327W        W37458  18.033   8.951  13.052 -0.1840  0.0986  0.0637
22328W        W37459   4.648  12.446  10.811 -0.1261  0.1834  0.2011
22329W        W37460  10.169   5.291  14.238 -0.0453 -0.0336  0.0931
22330W        W37461   3.171  12.902   4.443 -0.0287  0.0858  0.1559
22331W        W37462   2.674  10.947   4.985 -0.0516 -0.0182 -0.0855
22332W        W37463   4.805   5.311   4.021  0.1375  0.3206 -0.2101
22333W        W37464   3.706  12.233   2.104  0.1457  0.2028  0.1020
22334W        W37465   3.981   3.753  13.911  0.1311 -0.2392  0.0013
22335W        W37466  18.072   0.273   2.119  0.2221  0.0951  0.0606
22336W        W37467   4.824  11.409   2.728 -0.3245 -0.0206 -0.1825
22337W        W37468   6.879   0.022  14.733 -0.1849  0.1052  0.0643
22338W        W37469   0.857  17.591   5.320 -0.0965 -0.0314  0.2602
22339W        W37470  13.706  11.067   3.454 -0.0032  0.0680 -0.3197
22340W        W37471   9.112   1.412   2.545 -0.1822  0.2042 -0.0086
22341W        W37472  13.250  15.259  10.337  0.0603 -0.0895 -0.1254
22342W        W37473  14.514  16.262   4.576 -0.2647  0.3589 -0.2017
22343W        W37474  15.374  17.440  10.969  0.1618  0.2472  0.0004
22344W        W37475   8.651   3.841   3.903  0.0225  0.2480  0.0550
22345W        W37476   7.367  17.270   1.573 -0.1636 -0.0779  0.3219
22346W        W37477   0.530  16.944   3.234  0.0574 -0.3742  0.0215
22347W        W37478   4.953  10.550   2.137  0.0477 -0.0270  0.0462
22348W        W37479  15.635  18.269   0.651 -0.2260  0.0797  0.1081
22349W        W37480   8.495  10.263  15.691  0.0511  0.3420 -0.1347
22350W        W37481  10.774   7.657   0.330 -0.1724 -0.0296 -0.2401
22351W        W37482   6.510   8.263  14.850  0.2196 -0.2694 -0.1305
22352W        W37483  12.605   9.650   4.577 -0.1419  0.0185  0.0613
22353W        W37484  13.996   1.519  13.280  0.2180  0.0797  0.0406
22354W        W37485  12.317   2.379   0.068  0.1771  0.1933 -0.2595
22355W        W37486   1.699  18.466   4.317  0.1238  0.2031  0.1164
22356W        W37487   1.360   8.485  11.636 -0.0556  0.1789  0.1274
22357W        W37488  13.107  16.043  14.919  0.2356  0.0870  0.0081
22358W        W37489  12.975   7.375   4.758  0.2640  0.3054  0.0018
22359W        W37490  12.359   5.227  11.817 -0.2319  0.1717  0.3003
22360W        W37491   6.580   0.046  11.859  0.0198 -0.0235 -0.0000
22361W        W37492   3.974   4.696   2.563 -0.2020  0.0956 -0.3314
22362W        W37493   7.212  18.333   2.967 -0.3608 -0.0388  0.0948
22363W        W37494  14.608   0.353  15.133  0.2542  0.0642 -0.0445
22364W        W37495  15.739   8.381  11.710 -0.2167 -0.5286 -0.2228
22365W        W37496  10.942   5.803   0.039  0.0821  0.0479  0.0715
22366W        W37497  12.366   6.965  13.817  0.1893  0.2720  0.3963
22367W        W37498   9.585  15.632   4.152  0.2236  0.0588 -0.2181
22368W        W37499   1.086   3.782   2.038  0.3780 -0.0074  0.3352
22369W        W37500   4.235   4.761  15.244  0.0066 -0.0346  0.1893
22370W        W37501   6.222  13.855  15.870  0.0481 -0.3069  0.0534
22371W        W37502   4.732  17.242   5.413 -0.2818 -0.0065  0.0330
22372W        W37503   2.285   5.423   4.635  0.1795 -0.3630 -0.2349
22373W        W37504   5.814   9.140   2.922  0.0708  0.0238  0.3288
22374W        W37505  18.474   0.076   5.839 -0.3177  0.2503  0.1359
22375W        W37506   6.503   2.409  10.094  0.0250  0.1257 -0.3373
22376W        W37507  17.295  12.042  13.487 -0.2140  0.0989  0.1625
22377W        W37508  10.912  17.124   0.909 -0.3230 -0.1267 -0.2011
22378W        W37509  16.495  18.025   2.382  0.1182  0.0755  0.2979
22379W        W37510  16.579   7.472  11.938  0.0777 -0.2502 -0.0013
22380W        W37511  11.513   1.387  14.715  0.0127  0.3961  0.1472
22381W        W37512  14.795  14.415  10.781  0.0375  0.3153 -0.1237
22382W        W37513  11.549   2.854  15.796  0.1366  0.0360  0.2364
22383W        W37514   3.134  13.508   2.165  0.1532  0.3507  0.2256
22384W        W37515  14.489   3.129   3.817 -0.2029  0.0831 -0.2105
22385W        W37516   0.242  16.327  12.362  0.4586  0.4830  0.0940
22386W        W37517   7.241   2.612   1.437 -0.1972  0.1040  0.0743
22387W        W37518   4.457   6.673   2.348  0.0032  0.2510 -0.0401
22388W        W37519  17.464  10.961   1.463  0.2140 -0.1913 -0.1367
22389W        W37520  18.184  17.210   0.440 -0.2548 -0.2285 -0.2495
22390W        W37521   8.350   3.596  13.689  0.0313 -0.1653  0.1589
22391W        W37522   8.652   4.270  15.183  0.0846  0.0522 -0.1049
22392W        W37523   6.359   7.015  15.895  0.2437  0.2198  0.0228
22393W        W37524   8.388   4.952   4.168 -0.1299  0.1546  0.1517
22394W        W37525  15.973   3.301  10.553 -0.1773  0.2603  0.4332
22395W        W37526   1.591   9.380  12.150  0.1855  0.0189  0.0891
22396W        W37527   4.762  16.534   3.010  0.1298  0.0553  0.3184
22397W        W37528  18.393  18.047  10.799 -0.1103 -0.1076 -0.0760
22398W        W37529   0.555   0.332  12.143 -0.1301 -0.0064 -0.1969
22399W        W37530  17.164   6.208  11.044  0.1982 -0.3353  0.0376
22400W        W37531  18.445   5.069  13.672 -0.2260 -0.0192 -0.1521
22401W        W37532  17.233  13.506  14.147  0.2816  0.2064 -0.0779
22402W        W37533   0.276   9.987  12.572 -0.1052  0.0591 -0.3514
22403W        W37534   1.874   6.484  11.170  0.0015 -0.2381 -0.0968
22404W        W37535   1.912  13.626   4.090 -0.0054 -0.0455 -0.1707
22405W        W37536  15.495  13.132   2.175 -0.2853  0.1698  0.3686
22406W        W37537  11.558  18.060  15.752 -0.2680 -0.2900  0.0852
22407W        W37538   0.590   3.056  11.223  0.1069 -0.0725 -0.3656
22408W        W37539   2.781  13.703  11.776  0.0227 -0.1516  0.1139
22409W        W37540   3.589  18.471  15.045  0.0121 -0.1465  0.0087
22410W        W37541  17.827  17.950   0.636  0.1573 -0.2127  0.0557
22411W        W37542   8.234   3.689  15.760 -0.0675  0.2863 -0.1141
22412W        W37543  15.920   3.416   1.815  0.1434 -0.0420 -0.0438
22413W        W37544   9.536   2.264   0.768 -0.1593  0.1861  0.0809
22414W        W37545   5.889  10.188   3.054  0.0010  0.1838  0.2102
22415W        W37546  15.980   5.408   1.434 -0.1259  0.3953  0.1285
22416W        W37547   4.013   3.276  12.128 -0.0538 -0.0882  0.0876
22417W        W37548  12.210   9.001   3.317  0.2128  0.0144  0.3087
22418W        W37549   4.285   8.677   2.432  0.0293 -0.0949 -0.0381
22419W        W37550  18.295   3.414  14.361 -0.0286 -0.0489 -0.2395
22420W        W37551   6.579   2.264   5.517 -0.0575 -0.2547  0.0105
22421W        W37552  18.460   9.761   2.306  0.1074  0.1318 -0.3922
22422W        W37553   7.073  15.375   0.189 -0.1806  0.2761  0.1488
22423W        W37554   7.590  17.399  14.407 -0.0605  0.0301  0.1305
22424W        W37555  10.407  12.362  13.012 -0.0213 -0.2450 -0.2268
22425W        W37556   3.772   3.470   4.965  0.2738  0.3848 -0.0840
22426W        W37557  10.563   5.866  10.712 -0.1092 -0.1146 -0.1333
22427W        W37558   6.576   8.965  12.352 -0.1499 -0.1072 -0.3655
22428W        W37559   5.434   2.445  14.075 -0.1771  0.0306  0.2337
22429W        W37560   5.266  15.070  15.385  0.3435  0.4384  0.0977
22430W        W37561  16.407   6.680  11.265 -0.0248  0.0772  0.0211
22431W        W37562   1.883  11.983   4.416  0.1131  0.3529 -0.1736
22432W        W37563  13.281  14.894  13.255 -0.1994  0.2134  0.3473
22433W        W37564  10.665   0.384  15.381  0.0626  0.2742 -0.0161
22434W        W37565   4.814   5.372   2.270  0.0777  0.2505 -0.1686
22435W        W37566  13.313  13.981   1.596 -0.3526 -0.0305 -0.1606
22436W        W37567  11.875  16.921  10.533 -0.1264  0.0606 -0.1515
22437W        W37568   0.611   0.684   3.113  0.2638 -0.0814  0.1550
22438W        W37569   2.148   5.335  14.844 -0.1855 -0.1279 -0.0024
22439W        W37570  15.097   1.595   0.339  0.2087 -0.4187 -0.0027
22440W        W37571   7.601   5.881  14.826  0.0698  0.1455  0.2078
22441W        W37572   6.213  15.060  12.279  0.1774 -0.0340 -0.1436
22442W        W37573  17.584  12.227   0.208  0.0215 -0.0087 -0.0207
22443W        W37574  17.573  13.711   4.868 -0.0067  0.0582 -0.2084
22444W        W37575   7.589  16.706   1.440  0.0690 -0.1938 -0.1549
22445W        W37576   4.354  18.196  13.251  0.1766 -0.4603  0.1603
22446W        W37577  15.914  15.030  15.334 -0.0240 -0.3178 -0.1204
22447W        W37578   8.492   0.171   1.739  0.1748 -0.2019  0.1359
22448W        W37579  16.897   5.935  14.807 -0.1262  0.2140 -0.2539
22449W        W37580   7.066  11.274  11.021 -0.2858  0.2263  0.0911
22450W        W37581   6.983   5.013   2.365  0.2294  0.1540 -0.1151
22451W        W37582   1.913  10.584  11.432 -0.0705  0.1289 -0.4531
22452W        W37583  14.657   3.216  12.235  0.2211 -0.0017 -0.2082
22453W        W37584  10.356   0.007   0.826  0.2337 -0.1432  0.0114
22454W        W37585  14.979   5.759   2.817 -0.0289  0.0028 -0.1849
22455W        W37586  12.388   0.872   0.713  0.0027 -0.2988 -0.1001
22456W        W37587   3.374  13.003   4.934  0.1062  0.1783  0.3362
22457W        W37588  11.813   0.678   2.174 -0.1337 -0.2817  0.2443
22458W        W37589   0.281  18.134  13.017 -0.0271 -0.2255  0.1571
22459W        W37590  14.976  11.048   1.648 -0.0692  0.0327  0.0087
22460W        W37591   0.962  16.204  13.358 -0.2423  0.1283  0.0062
22461W        W37592   0.865   6.885   1.815  0.1268  0.1951  0.0391
22462W        W37593   9.784   7.739   3.890  0.2263 -0.2404  0.2641
22463W        W37594   8.965  13.177   2.866  0.1197 -0.1325  0.0283
22464W        W37595  13.056   9.505   2.905  0.0329  0.0671  0.2324
22465W        W37596  15.665   1.353   1.385 -0.1287  0.2882 -0.1365
22466W        W37597  11.278  16.981   2.346  0.1660 -0.0712  0.0167
22467W        W37598   7.211   4.601   1.814 -0.0006  0.1461 -0.2891
22468W        W37599   0.475  15.000  15.758  0.7509  0.3023  0.1511
22469W        W37600   3.289  12.161  13.841 -0.1583  0.0770  0.0929
22470W        W37601  16.497  16.204   1.077 -0.2887 -0.1745  0.0338
22471W        W37602  12.013   7.148  14.227 -0.1678  0.1874  0.0432
22472W        W37603  13.745   3.319   0.966  0.0382  0.0210 -0.0992
22473W        W37604   2.758  15.569  10.147 -0.0639  0.0291 -0.0822
22474W        W37605   1.766   5.673  14.836  0.2234  0.2458  0.2956
22475W        W37606  11.812   1.560   1.412 -0.0431  0.0855  0.3163
22476W        W37607  11.384  16.337   0.505  0.2531 -0.1516 -0.1295
22477W        W37608   0.471  10.533  12.884  0.0433  0.0386 -0.0319
22478W        W37609   4.042   9.117  14.369 -0.2076 -0.0421 -0.2593
22479W        W37610  15.985  13.782  11.184  0.1564 -0.0987  0.4211
22480W        W37611  11.756   3.479  12.411 -0.1042  0.0798 -0.0740
22481W        W37612   5.835   1.949   4.904 -0.1108  0.0642 -0.0223
22482W        W37613   9.342  10.103  10.421 -0.1059 -0.1378 -0.2478
22483W        W37614  14.379  17.830  10.597 -0.1994  0.2505  0.3346
22484W        W37615   0.224   5.858   5.941  0.2071  0.1333 -0.0750
22485W        W37616  17.216   4.876   5.233  0.2842  0.1973  0.2362
22486W        W37617   3.503   5.859   3.886 -0.1903  0.0768 -0.0947
22487W        W37618   1.413   7.624  13.792  0.0347 -0.2494 -0.1913
22488W        W37619   7.374   3.482   3.264  0.1212  0.1977  0.4618
22489W        W37620  16.436   1.823   4.852  0.4687  0.0126  0.0107
22490W        W37621  10.595  11.622   0.828 -0.2230 -0.0604  0.2307
22491W        W37622   2.870  12.362  12.469 -0.3236  0.2486 -0.3113
22492W        W37623  10.813   6.968   4.727  0.3191 -0.0026  0.0313
22493W        W37624  18.409   3.214   1.596 -0.2098 -0.2143  0.4035
22494W        W37625   4.721  17.396   0.471  0.0135  0.1733 -0.0301
22495W        W37626   9.496  16.258   2.966 -0.4542 -0.0943  0.0613
22496W        W37627  12.435  14.089   4.796  0.2411 -0.0560  0.0585
22497W        W37628  13.414  12.902   0.393  0.0735  0.1289  0.1016
22498W        W37629   0.666   6.117   5.654 -0.1625  0.2336  0.1638
22499W        W37630  14.304  12.609  13.447 -0.2505 -0.1694 -0.4319
22500W        W37631   8.299  18.387  14.645 -0.1987 -0.2182  0.0491
22501W        W37632  10.315   2.457   1.178 -0.3256  0.3819  0.3584
22502W        W37633  11.842   8.754   5.712  0.2971  0.2586  0.0082
22503W        W37634  18.047   7.317   4.130  0.0602 -0.2587  0.1679
22504W        W37635  16.177   2.329   4.627  0.0135 -0.1498  0.0179
22505W        W37636   8.225   4.839   0.922  0.2267 -0.1779  0.5798
22506W        W37637   9.892  17.234  15.869 -0.1873  0.0531  0.4472
22507W        W37638   2.972   7.745  12.807 -0.2258 -0.0385  0.1366
22508W        W37639   8.066  12.846   3.966 -0.2346  0.1490  0.3079
22509W        W37640   8.855   4.933   3.934 -0.0757 -0.1420  0.1696
22510W        W37641   8.886  15.701   2.452  0.0832  0.1953 -0.0511
22511W        W37642   2.927  17.939  13.213  0.0827 -0.3675 -0.0091
22512W        W37643   5.806   7.401  12.249 -0.0713 -0.0705 -0.1166
22513W        W37644  11.824  16.397  12.386  0.1347 -0.1208 -0.3998
22514W        W37645  10.230  14.232  11.594 -0.2100  0.0499 -0.2139
22515W        W37646   0.462  17.102   1.888 -0.2348 -0.0946  0.5364
22516W        W37647  13.327   6.646   3.300  0.0357 -0.0147 -0.3073
22517W        W37648  17.692  12.905  12.465  0.0162 -0.0549  0.3506
22518W        W37649  14.075   8.542   3.807 -0.1862  0.0272 -0.3675
22519W        W37650  11.029   1.924   0.063  0.0236 -0.3033  0.2152
22520W        W37651  14.829  18.116   3.020 -0.0424 -0.0003 -0.0412
22521W        W37652   5.396   2.459  11.082 -0.3263 -0.3604 -0.1876
22522W        W37653  14.476   7.267   3.339  0.3208 -0.2209  0.0610
22523W        W37654  14.616  14.926  15.824  0.0924  0.0796  0.2403
22524W        W37655   8.696   9.212  13.936  0.0744 -0.0040 -0.6040
22525W        W37656  16.221  15.866  13.194  0.4695  0.0314 -0.0250
22526W        W37657  14.353  16.004   2.395  0.2348 -0.0702 -0.4463
22527W        W37658   7.421  17.347  13.053  0.1239  0.0814 -0.0357
22528W        W37659  13.701  10.807  12.356 -0.0423 -0.0976 -0.0577
22529W        W37660   8.489  12.263   5.252 -0.3026 -0.2284  0.1620
22530W        W37661   5.807   1.777   0.122  0.1182  0.1698  0.3875
22531W        W37662   1.030   1.191  12.600  0.1284 -0.1952  0.0036
22532W        W37663  16.728   4.245   5.831 -0.0864  0.0225  0.1651
22533W        W37664   4.293   3.416   3.157 -0.3194  0.1925  0.0055
22534W        W37665  14.190   0.675  12.161 -0.3337 -0.0735  0.0526
22535W        W37666  14.304   9.107  15.364 -0.1017  0.0822 -0.0287
22536W        W37667  13.278   7.449   1.139 -0.0147 -0.3824  0.1505
22537W        W37668   1.779  13.334   2.313 -0.1079 -0.2132 -0.3316
22538W        W37669  17.424   4.430  12.686 -0.0566  0.0689 -0.1211
22539W        W37670   1.182   5.884   3.599 -0.0254  0.2448  0.0259
22540W        W37671   1.817  16.189  14.011  0.0263  0.3151  0.0454
22541W        W37672  12.693   4.485  12.781 -0.0337  0.1670 -0.3379
22542W        W37673  16.311   0.907   1.933 -0.5517  0.2442  0.5081
22543W        W37674   2.682  14.984  10.905 -0.0327  0.2400 -0.1817
22544W        W37675   6.255  10.348  10.018 -0.1901  0.1526 -0.1800
22545W        W37676   7.082   1.378   1.937 -0.0076  0.3055 -0.0135
22546W        W37677   3.274   4.790  11.046  0.3440 -0.1118 -0.0558
22547W        W37678   1.789   0.903  14.895 -0.2087 -0.5920 -0.1180
22548W        W37679  17.831  10.607   4.467 -0.0905 -0.0241 -0.2457
22549W        W37680  17.348   9.149  12.857 -0.2298  0.1526  0.0275
22550W        W37681   6.168   5.497  14.892  0.1108  0.0407 -0.2175
22551W        W37682  11.129   5.120   0.920 -0.3223  0.0728 -0.3579
22552W        W37683   0.522  12.920   0.296 -0.2026  0.0774  0.3951
22553W        W37684  13.660  14.794  12.902  0.1424 -0.2054  0.1661
22554W        W37685   1.504  17.468   0.320 -0.1212  0.1047  0.3695
22555W        W37686  14.978   5.646  14.784  0.4247  0.1757 -0.0563
22556W        W37687   6.217  18.046   1.879  0.1775  0.1519 -0.3471
22557W        W37688   1.613   5.751  15.516 -0.0616  0.0877 -0.1821
22558W        W37689   6.483  16.610   1.691  0.4194 -0.0869 -0.2364
22559W        W37690  17.471  15.906   2.807 -0.0807  0.2671 -0.1606
22560W        W37691  16.779   9.254  13.480  0.1274 -0.1805 -0.3106
22561W        W37692  15.570  16.722   2.641  0.0615 -0.2378  0.1304
22562W        W37693  16.797   2.164  15.428  0.1860 -0.1966  0.0019
22563W        W37694  13.020  12.839  15.173  0.3150 -0.2275 -0.3066
22564W        W37695   9.019   3.085   2.778 -0.0196 -0.1548  0.1027
22565W        W37696   5.501  17.913   2.621  0.1116  0.0695  0.1645
22566W        W37697   3.403  18.475   4.671 -0.3328 -0.0468 -0.1159
22567W        W37698  13.282   5.571  14.159  0.0025 -0.2111 -0.1650
22568W        W37699   9.230   9.666   2.283  0.3690 -0.0320  0.1896
22569W        W37700   4.725   1.668   0.441 -0.0457 -0.0674  0.0342
22570W        W37701   9.870   8.247   5.575 -0.4202  0.1786  0.2299
22571W        W37702  11.516  17.668  11.743  0.2884  0.3445  0.0696
22572W        W37703  16.906   3.760  14.989 -0.2091  0.0172 -0.3037
22573W        W37704  17.636  13.327   5.182 -0.0160  0.2262  0.0055
22574W        W37705  10.850   2.395  12.058 -0.2927 -0.1334 -0.0817
22575W        W37706   1.103   8.171  11.328 -0.2507  0.0037 -0.0190
22576W        W37707  17.675  11.377  10.765 -0.0398 -0.2600 -0.2202
22577W        W37708   8.966   0.198  12.794 -0.3272 -0.2887 -0.0587
22578W        W37709   3.933  13.654   1.003  0.0575 -0.0119  0.4348
22579W        W37710  10.627   7.354  14.088  0.3448  0.0223  0.2288
22580W        W37711  11.227  16.994   4.953 -0.2383 -0.2591 -0.0028
22581W        W37712  11.332  12.063  10.649  0.2173 -0.2218 -0.2484
22582W        W37713   4.711  13.649   1.606  0.1885  0.2145  0.1388
22583W        W37714  13.074   7.457   3.304 -0.0100 -0.1258 -0.0092
22584W        W37715   5.412  10.478   1.844 -0.1639  0.1804  0.1943
22585W        W37716   3.185  16.533   2.048 -0.3264  0.0799  0.1049
22586W        W37717  12.241   3.224   9.659 -0.1289 -0.2234  0.2400
22587W        W37718  12.522   5.279  12.332 -0.1487  0.0530  0.2450
22588W        W37719  17.578   2.398   0.303 -0.2385 -0.0864 -0.0612
22589W        W37720  14.763  14.080   2.938 -0.2214  0.0755  0.1868
22590W        W37721   1.571   5.292   1.850  0.0498  0.4720  0.0643
22591W        W37722   5.708   7.820   2.255  0.0127 -0.4025  0.1553
22592W        W37723  14.182  16.717   4.808  0.1520 -0.1223 -0.0542
22593W        W37724   5.201   9.940   5.140 -0.2030 -0.0480 -0.2336
22594W        W37725  14.983  11.130   3.390 -0.1674 -0.1994  0.3516
22595W        W37726   6.648  15.971   3.603  0.0370 -0.0700  0.3447
22596W        W37727   4.026  15.816  15.743  0.2334 -0.1926 -0.4252
22597W        W37728   4.991   1.688  14.140 -0.0764  0.1777  0.3600
22598W        W37729  17.279   6.407   5.503 -0.3775  0.2044 -0.0194
22599W        W37730  11.909  16.403  15.266  0.0803 -0.2763 -0.1727
22600W        W37731   0.487   2.904  10.293 -0.1502  0.1294 -0.0055
22601W        W37732  18.090   7.939  10.115 -0.1302  0.1554  0.1025
22602W        W37733   0.281  10.010   1.963  0.1925 -0.2550 -0.2822
22603W        W37734   7.680   9.957   0.172  0.2727 -0.1112  0.0600
22604W        W37735  13.282   5.846   2.529 -0.3793  0.0804  0.2682
22605W        W37736  18.389   5.121   2.222  0.3421  0.1936  0.4092
22606W        W37737   0.747   4.197   5.347 -0.2451  0.0964 -0.3406
22607W        W37738  17.110  17.405   4.910  0.3592 -0.0820  0.2486
22608W        W37739   8.370   7.798  12.931  0.1649  0.1743 -0.1314
22609W        W37740   1.659  12.897  13.058  0.1640 -0.0413  0.2610
22610W        W37741   6.718   8.303  13.402 -0.0444  0.1977 -0.0168
22611W        W37742  14.976  13.850   2.507  0.0470 -0.0062 -0.4953
22612W        W37743   1.238   3.149   1.227  0.1246 -0.0342  0.0364
22613W        W37744   8.139   5.496   4.066 -0.2854 -0.2678  0.2114
22614W        W37745  13.261  11.152   0.121 -0.1547  0.1037  0.0349
22615W        W37746   0.904  15.992  11.739  0.2315  0.0862  0.3679
22616W        W37747   3.058   2.278  11.897  0.0717  0.4807 -0.1448
22617W        W37748   6.713  18.154  15.722  0.1077  0.2774  0.1528
22618W        W37749   4.800  15.646  14.960  0.0637  0.0945  0.0821
22619W        W37750   1.597  15.080  15.192 -0.2070  0.5352  0.2843
22620W        W37751  18.376   9.178  15.522  0.0493 -0.1833  0.4089
22621W        W37752   3.004   0.021  13.410  0.0167  0.0128 -0.2548
22622W        W37753   8.500  10.929  14.670  0.1128 -0.3121 -0.1617
22623W        W37754   6.040   7.587  13.801  0.4551  0.0955 -0.0550
22624W        W37755  13.391  12.595  14.303  0.0634 -0.2807 -0.0785
22625W        W37756   0.624   4.078  14.407 -0.1263 -0.1225 -0.0066
22626W        W37757   5.253  17.805  11.248  0.3040 -0.2950 -0.1319
22627W        W37758  16.197   3.405  14.696 -0.1616  0.2221  0.0462
22628W        W37759  16.838  15.596  15.844  0.2136 -0.0874  0.0505
22629W        W37760   1.544   6.667   2.487  0.0474  0.1098  0.1984
22630W        W37761  13.313  14.626   0.997  0.0681 -0.2408  0.2140
22631W        W37762   3.304  12.139  11.552 -0.1367  0.1277  0.1471
22632W        W37763   7.100   8.224  12.487  0.5261 -0.3380  0.1610
22633W        W37764  10.483   7.144  15.466  0.1342 -0.0776 -0.2234
22634W        W37765  18.470  10.045   0.817 -0.0878 -0.0084  0.0894
22635W        W37766  12.189  13.681   0.282 -0.1970 -0.2016 -0.2902
22636W        W37767  13.377  17.710  11.383 -0.2642 -0.2253  0.1320
22637W        W37768  13.134  14.971  11.908  0.2250  0.1878  0.2375
22638W        W37769  10.742   6.375  14.403 -0.1668  0.1870  0.2804
22639W        W37770   6.464   6.873   4.616 -0.1181 -0.0670  0.1041
22640W        W37771   2.329  10.291   3.528  0.1278  0.0050 -0.1769
22641W        W37772  13.205   6.495  14.903  0.1085 -0.2811  0.0982
22642W        W37773   1.223   7.697  15.218  0.3822  0.0055 -0.1518
22643W        W37774  16.401   9.514  11.698  0.1599  0.2954 -0.0785
22644W        W37775  15.800   3.062  13.115 -0.0478 -0.0664 -0.0888
22645W        W37776  15.356  15.079  11.731  0.1934  0.0747 -0.0014
22646W        W37777   5.026  18.446   5.335 -0.1588 -0.3602  0.1831
22647W        W37778   9.766  13.344   1.082 -0.0513 -0.1933  0.0845
22648W        W37779   8.686   7.474   3.421  0.0134  0.3328 -0.0350
22649W        W37780  10.337   9.647   0.462  0.4255 -0.2341 -0.0586
22650W        W37781   1.030   8.103  15.526 -0.0110 -0.1914  0.2450
22651W        W37782  11.940  13.385  10.623  0.0028  0.0593 -0.3515
22652W        W37783  14.084   3.570   0.017 -0.0116 -0.1352 -0.0361
22653W        W37784   4.272  10.025   3.492  0.2223  0.1891  0.1089
22654W        W37785  18.125   5.504  10.741 -0.1682  0.0253  0.0152
22655W        W37786  12.111  10.968  14.800 -0.1507  0.0299  0.1723
22656W        W37787   0.924  16.750  13.064 -0.0450 -0.1209 -0.0003
22657W        W37788   9.765  18.357  15.513 -0.1254  0.0424 -0.2371
22658W        W37789   4.503   9.115   3.842  0.0368  0.0254  0.3313
22659W        W37790   5.494   9.464  14.251 -0.2883  0.4040  0.0530
22660W        W37791  15.323  16.731  15.112 -0.4447  0.2409  0.1170
22661W        W37792   6.883   4.285  13.457 -0.2591  0.2161 -0.1855
22662W        W37793   6.868   3.525  12.509  0.1767 -0.0196 -0.2448
22663W        W37794  12.380   1.243  11.198  0.2266 -0.0506  0.0475
22664W        W37795   8.734  18.046   0.392  0.2667  0.1334 -0.1429
22665W        W37796  11.407   9.389  11.029  0.1145  0.0660  0.0009
22666W        W37797   1.475   1.009   0.707 -0.0234 -0.0317 -0.0031
22667W        W37798  10.050   6.158   5.293 -0.0609  0.0177 -0.0886
22668W        W37799  14.647  12.239  13.783  0.0843  0.1471  0.2527
22669W        W37800   2.177   0.154  15.090 -0.3318  0.1097  0.0399
22670W        W37801  17.258  16.897   3.402  0.0748 -0.0172  0.1347
22671W        W37802  12.977  17.928   1.129  0.0813  0.2579 -0.2145
22672W        W37803  16.878   7.942  14.700 -0.0804 -0.1963  0.1927
22673W        W37804   2.055  16.627  14.215  0.0276  0.1469 -0.0945
22674W        W37805  17.990   9.085  11.169  0.4805 -0.1989  0.1011
22675W        W37806   9.850   7.838  13.482 -0.0047  0.2582  0.2084
22676W        W37807  14.798  17.083   2.548  0.0176  0.0942 -0.0407
22677W        W37808  10.046  16.288   2.272 -0.0024 -0.0762  0.0665
22678W        W37809   2.942   3.244   2.604 -0.1536  0.0563 -0.1066
22679W        W37810   9.681  10.435   2.640  0.1452 -0.2219  0.0327
22680W        W37811  10.634  12.186  14.789 -0.2095 -0.3227 -0.1996
22681W        W37812   7.616   7.721  11.603 -0.2069  0.1033  0.3048
22682W        W37813  14.087  12.533   2.205  0.1762  0.1777  0.3114
22683W        W37814   9.174   7.798   0.433  0.1456 -0.0817 -0.0864
22684W        W37815  18.100  11.656  15.743 -0.0212  0.1915  0.3843
22685W        W37816  15.639  13.408  13.171  0.1707  0.0913 -0.2356
22686W        W37817   2.352  11.068   1.384 -0.3464  0.4188 -0.0318
22687W        W37818  13.163  10.159   0.269  0.0874 -0.2760  0.0142
22688W        W37819   3.851  10.534  14.700  0.0240  0.2037 -0.2274
22689W        W37820   1.714   3.077  11.661 -0.2185  0.2560  0.1441
22690W        W37821   7.507   4.817  11.463  0.1899  0.3994  0.0321
22691W        W37822  15.940   0.458  12.244 -0.0027 -0.0332 -0.1171
22692W        W37823   6.821   3.577  13.901  0.1471 -0.1152  0.2141
22693W        W37824  16.657   5.662  13.708  0.0567  0.1007 -0.0478
22694W        W37825  10.637  10.610   1.648  0.1155  0.0763 -0.2224
22695W        W37826   6.591   2.881  10.193 -0.1482 -0.2697  0.4031
22696W        W37827   7.461  11.156   2.128  0.0896 -0.0447 -0.2211
22697W        W37828  11.057   4.435   1.158  0.1486 -0.1225 -0.1970
22698W        W37829   2.423   4.766  13.743  0.3143  0.1598 -0.0737
22699W        W37830  12.247   4.122  11.417  0.1406  0.0807 -0.0107
22700W        W37831   3.826  18.504  12.458  0.1655 -0.0792  0.0462
22701W        W37832  17.511   4.992   4.247 -0.0318 -0.1442  0.0645
22702W        W37833  12.586  16.952   4.192 -0.1031 -0.2419 -0.2917
22703W        W37834   9.674   7.670   5.663  0.2019 -0.3716 -0.2903
22704W        W37835   2.840  12.307   2.991  0.2319 -0.0430 -0.2421
22705W        W37836   0.999  10.800   3.920  0.0708 -0.2054  0.2300
22706W        W37837   4.931   5.368  14.621  0.1533  0.3349 -0.4287
22707W        W37838  16.181   3.211  13.452  0.0991 -0.0460 -0.2646
22708W        W37839  11.290  11.075   4.012 -0.0009 -0.3406 -0.4497
22709W        W37840   7.169  17.566  14.775  0.3087  0.0617 -0.1575
22710W        W37841   1.873   7.457  13.574  0.0231 -0.0885 -0.0548
22711W        W37842  13.390  14.066   3.658 -0.3092  0.1608 -0.0041
22712W        W37843   1.466   5.111   4.219 -0.0560  0.1413  0.1352
22713W        W37844  11.805   4.376  12.723 -0.0638 -0.0316 -0.2580
22714W        W37845   7.353   0.542  13.405 -0.0869 -0.0414 -0.0938
22715W        W37846  13.453   4.051   1.121  0.1247 -0.0183  0.1357
22716W        W37847   5.745  17.516  11.580  0.0988 -0.2177  0.1921
22717W        W37848  13.098   6.920   1.260  0.1226  0.2066  0.1107
22718W        W37849   3.346   2.653  11.677  0.0336  0.4290 -0.2524
22719W        W37850  13.959   7.345  12.720  0.0567 -0.0893 -0.0124
22720W        W37851   2.030   1.785   2.406  0.1494  0.1292 -0.0413
22721W        W37852   2.200  10.429  11.828  0.0168  0.0389 -0.0529
22722W        W37853  11.639   5.810  11.416  0.1664  0.0459  0.0567
22723W        W37854   1.660  14.989  12.755 -0.1221 -0.1127  0.1906
22724W        W37855   5.935  11.143  10.376  0.1788 -0.1109 -0.0759
22725W        W37856   5.666  10.679   4.355 -0.0620 -0.0120 -0.0937
22726W        W37857   1.741   8.693   5.122 -0.0042 -0.0024  0.1795
22727W        W37858  17.869   4.951  14.171 -0.1027  0.2163  0.0588
22728W        W37859  11.454   4.383  15.743  0.1982  0.4433 -0.0637
22729W        W37860   8.319   4.143   6.075 -0.0815 -0.1787  0.0046
22730W        W37861  16.929  12.137   4.447 -0.0428 -0.2276  0.0964
22731W        W37862   7.864   2.545  14.218  0.0770 -0.1001  0.0213
22732W        W37863  13.932  17.868  15.063  0.1446 -0.0169  0.1310
22733W        W37864  17.078   0.694   5.382  0.3146  0.1338  0.0761
22734W        W37865  16.069  11.552  12.811  0.1521 -0.0173  0.1653
22735W        W37866   4.229   1.626   2.689  0.4063 -0.1387 -0.1637
22736W        W37867   1.897  14.834  11.059  0.0022  0.0866 -0.2311
22737W        W37868   6.174   1.025   0.372 -0.1985  0.0209 -0.1521
22738W        W37869   0.231  12.268  12.279  0.2490 -0.2211  0.1334
22739W        W37870  14.859  13.310   2.067 -0.2488  0.1391  0.1653
22740W        W37871   4.838  13.961   2.650  0.2793  0.0891 -0.1173
22741W        W37872   0.327   0.529  15.670  0.0530  0.0996  0.1978
22742W        W37873   7.625  14.137   9.914 -0.0433 -0.1867  0.2203
22743W        W37874   3.058  16.032  14.030  0.4161 -0.2413 -0.3767
22744W        W37875   2.381  12.047   1.758 -0.1684 -0.2857 -0.2730
22745W        W37876   5.774   1.457   0.968  0.0359 -0.2399 -0.1439
22746W        W37877   9.829   6.981  12.546  0.0013 -0.1762 -0.3015
22747W        W37878  14.300  11.748  14.623 -0.0965  0.0586  0.0528
22748W        W37879  14.195   3.102  13.749 -0.0579  0.0607 -0.3370
22749W        W37880  18.096   2.295   5.475  0.2987  0.0644 -0.2053
22750W        W37881   5.743   1.911   0.728 -0.2491 -0.3767 -0.3010
22751W        W37882  11.820  14.668   0.571 -0.4687 -0.0863  0.0130
22752W        W37883   9.834   4.801   0.242  0.3079 -0.0439  0.0578
22753W        W37884   8.488  14.366   1.214 -0.1183 -0.0410 -0.0616
22754W        W37885  11.503  15.842   3.228  0.2466 -0.0662  0.0035
22755W        W37886   5.576   1.586   2.574 -0.0169  0.2834 -0.0450
22756W        W37887   9.074   2.474  13.249  0.1777  0.2104  0.2678
22757W        W37888  14.753  15.206   3.293  0.1431  0.1436  0.1180
22758W        W37889   9.418  13.681   4.450 -0.2540 -0.1789  0.2074
22759W        W37890   5.586  18.417  14.258  0.3322  0.1537  0.0938
22760W        W37891  12.804  14.882   0.266  0.1180 -0.3718  0.1545
22761W        W37892  15.672   1.640   4.148 -0.0729 -0.1532 -0.0925
22762W        W37893   6.110   0.260   1.699  0.0983 -0.1079 -0.2606
22763W        W37894  18.285  18.181  13.612 -0.2417 -0.0276  0.0016
22764W        W37895   2.071  11.504   1.086 -0.0494  0.2007 -0.1841
22765W        W37896   1.670  16.430   4.124  0.0016  0.2080  0.0057
22766W        W37897  10.904  13.882  12.172  0.0320  0.1721 -0.3121
22767W        W37898   0.523   1.261   4.596 -0.0312  0.0738 -0.1734
22768W        W37899  11.606  13.094   2.777 -0.1419 -0.1092  0.1537
22769W        W37900  10.582   7.698  11.656  0.1516 -0.3160 -0.1521
22770W        W37901   0.603  10.895  13.664  0.1137 -0.0522 -0.1476
22771W        W37902   7.149   7.534   4.397 -0.4998 -0.1461  0.0639
22772W        W37903   5.423   6.481  11.558 -0.0458  0.1309  0.0833
22773W        W37904   7.251   2.206   0.338  0.2692  0.1565 -0.1486
22774W        W37905   1.788   7.115  12.380 -0.0318 -0.0464 -0.0065
22775W        W37906  15.163  17.414   0.408 -0.3949  0.0697 -0.2428
22776W        W37907  16.593   5.050   2.658 -0.1291 -0.1601  0.1310
22777W        W37908  13.254  12.799  11.709 -0.0321 -0.0579 -0.0268
22778W        W37909   8.991  15.385   0.031  0.0187 -0.1346 -0.0419
22779W        W37910   7.418   6.650   1.540 -0.0747  0.1823  0.0471
22780W        W37911  17.689  14.746  15.197  0.3927  0.0294  0.1334
22781W        W37912   0.331  17.770   0.892  0.0936  0.1204  0.1025
22782W        W37913   0.418   6.692   4.899  0.2581 -0.0960 -0.2747
22783W        W37914  15.157   9.961  11.788  0.1244 -0.2716  0.0837
22784W        W37915   1.642   1.447  13.711  0.1645 -0.3503 -0.1306
22785W        W37916   2.578  14.620   4.678 -0.2550 -0.0248  0.0205
22786W        W37917   7.732  11.559   2.277 -0.3551  0.1314 -0.1275
22787W        W37918  16.839   0.693  13.409 -0.0484  0.0597  0.2341
22788W        W37919   8.166   0.490   4.181 -0.1586 -0.2054  0.1282
22789W        W37920   1.877  16.860   4.548  0.0793  0.4143  0.0736
22790W        W37921   2.740   6.403   2.884  0.0528  0.2122 -0.2850
22791W        W37922  16.913  13.538  11.456 -0.2422 -0.3197 -0.2866
22792W        W37923   8.375  10.407   3.351 -0.0306  0.0864 -0.0751
22793W        W37924   4.890  10.906   4.976 -0.0578  0.0586 -0.0269
22794W        W37925  16.561  18.343  15.768 -0.1478 -0.1156 -0.0873
22795W        W37926  12.996  18.312   2.924 -0.0818 -0.1555  0.1373
22796W        W37927   8.622  17.092   2.696  0.0627 -0.0364  0.2153
22797W        W37928  14.619   7.355   5.986 -0.1834 -0.0091 -0.1759
22798W        W37929  16.343   4.331  13.003 -0.2193 -0.1255 -0.1687
22799W        W37930  17.459   0.409   3.892  0.0690  0.2948 -0.0972
22800W        W37931   2.832  16.402  15.393  0.0926  0.0357 -0.0525
22801W        W37932   2.887   6.377   2.105  0.1502  0.3555 -0.0893
22802W        W37933   7.508   7.176  11.615 -0.0630  0.0707 -0.1414
22803W        W37934  17.046   9.961  14.673  0.0615  0.1481 -0.4585
22804W        W37935   7.822   6.880   1.200 -0.1329 -0.2499 -0.2004
22805W        W37936  12.822   9.387  14.533  0.2462 -0.2931  0.1071
22806W        W37937   9.385  11.080   2.070  0.0055 -0.1826 -0.0963
22807W        W37938   1.758   3.834  12.163 -0.4551  0.2715  0.4098
22808W        W37939   9.856   8.554   3.274  0.1785  0.0174  0.2802
22809W        W37940   6.495   4.255  11.900  0.0133 -0.2161 -0.0743
22810W        W37941  14.428   9.250  13.759 -0.3813 -0.1427  0.1759
22811W        W37942  15.980  10.441  10.735  0.3031  0.0529  0.1453
22812W        W37943   4.317   6.537  12.402 -0.1274  0.1928  0.1376
22813W        W37944  11.788   8.550  15.506  0.2436  0.0229  0.0712
22814W        W37945   7.071   0.775  14.733 -0.3628  0.3764  0.1738
22815W        W37946  15.478  16.631   5.274 -0.0443 -0.1750 -0.1488
22816W        W37947   6.989   7.324  13.305  0.0724  0.3649 -0.5201
22817W        W37948   6.348  10.557  10.871 -0.0457  0.1538  0.1354
22818W        W37949  12.516  14.904  13.725 -0.3026  0.2947  0.0994
22819W        W37950   0.521   9.604   2.235 -0.1002  0.1812 -0.4707
22820W        W37951   1.019  16.781  11.801  0.1718 -0.1997 -0.1617
22821W        W37952   6.806   5.386  14.816  0.3417  0.1496 -0.1343
22822W        W37953  18.106   5.348  12.355 -0.1790 -0.0405 -0.0228
22823W        W37954  17.183   1.384  15.275  0.1507  0.0384  0.0463
22824W        W37955  12.273   0.444   5.574  0.3520  0.0134  0.2693
22825W        W37956  10.109   0.028  15.889  0.1684 -0.4022 -0.0607
22826W        W37957  15.303   9.279  15.305 -0.2944  0.0721  0.1123
22827W        W37958   1.829   4.147   0.357 -0.1072 -0.3828  0.0660
22828W        W37959   4.436   1.594  15.892 -0.0228  0.0825  0.1707
22829W        W37960  14.091  16.057   1.987  0.0147  0.5586  0.0942
22830W        W37961  11.291   2.082   4.428 -0.0315 -0.2142  0.0884
22831W        W37962   9.511   8.680   3.622 -0.2152 -0.2683  0.0681
22832W        W37963   2.444   7.616   2.983 -0.1892  0.0403  0.0173
22833W        W37964  14.442  16.443  15.179 -0.3336  0.3071  0.2147
22834W        W37965   7.279  10.333  15.673 -0.3563  0.1783  0.4008
22835W        W37966  11.648   7.243  11.690  0.1079 -0.2017 -0.1585
22836W        W37967  10.457   6.864  11.658  0.4065 -0.1405 -0.2640
22837W        W37968   3.116   4.714   6.090  0.0233 -0.1004  0.2116
22838W        W37969  10.528  16.644  15.888 -0.2527  0.2936  0.0850
22839W        W37970   5.468   3.474  11.415 -0.1332 -0.1631  0.0393
22840W        W37971   1.056   9.841   6.086 -0.1115 -0.4011 -0.0679
22841W        W37972  17.257  15.343  13.778 -0.1541 -0.0682 -0.1897
22842W        W37973  10.635  10.243  11.320 -0.1907  0.2961  0.3149
22843W        W37974   5.919  16.765  14.248 -0.1635 -0.1625 -0.0204
22844W        W37975  11.505   6.928  14.592  0.3023  0.0835 -0.1827
22845W        W37976  16.048   8.944   3.410  0.0064 -0.1234 -0.5071
22846W        W37977   3.163  17.493  14.540 -0.0048  0.0565 -0.0956
22847W        W37978  17.215   2.477  12.540 -0.0352 -0.1959  0.1250
22848W        W37979   6.626  14.667  13.710  0.0974 -0.0212 -0.0349
22849W        W37980   0.947  17.349   4.154 -0.0177 -0.4057  0.1819
22850W        W37981  13.597  17.451  14.190 -0.0245  0.0873 -0.2934
22851W        W37982   9.449  15.544   4.901  0.1656 -0.0951 -0.3465
22852W        W37983  17.473  12.354  12.274 -0.0623  0.2038 -0.1813
22853W        W37984  15.662   4.710  11.966  0.0906  0.1411 -0.3271
22854W        W37985   2.603  17.764  15.616  0.1608 -0.1595  0.1176
22855W        W37986   7.349   8.554   3.572  0.0245  0.0528 -0.0621
22856W        W37987  17.111  13.360   0.209  0.0437 -0.0688 -0.0522
22857W        W37988  13.018   5.476  13.744 -0.1223 -0.0987 -0.1082
22858W        W37989   9.506   9.998   0.807 -0.0537  0.1851 -0.1569
22859W        W37990   1.770   7.904   2.263 -0.2011  0.0808 -0.0471
22860W        W37991   9.278   3.887  12.744  0.1198 -0.1095 -0.1773
22861W        W37992  10.695   4.643   2.985 -0.0260  0.1894  0.1140
22862W        W37993   4.853   9.191   1.327  0.0902  0.2238  0.2039
22863W        W37994  17.451   7.619   2.064  0.1594  0.2741  0.1087
22864W        W37995  10.623   9.112   1.073 -0.1001  0.1773 -0.3254
22865W        W37996  10.784   4.630  14.028 -0.1607 -0.0985  0.1097
22866W        W37997  11.604  14.724  15.457  0.1456 -0.0922 -0.1107
22867W        W37998   8.546   5.570  11.336 -0.1874 -0.1644  0.1419
22868W        W37999   5.370  10.338   4.583  0.0483  0.2512  0.3104
22869W        W38000  17.652   3.739  13.565 -0.2623  0.2530  0.1695
22870W        W38001   6.396   6.050  11.253  0.2182  0.1289  0.0123
22871W        W38002  17.508   8.183  11.693 -0.1046 -0.1276  0.1464
22872W        W38003   3.686   0.090   2.362 -0.0287  0.3247  0.0709
22873W        W38004   6.692   7.746   1.644  0.4189 -0.1038 -0.0065
22874W        W38005   1.643   3.187   1.689 -0.3878  0.0414  0.2411
22875W        W38006   5.638  17.424   1.273  0.0325 -0.1384 -0.3983
22876W        W38007  16.206   8.419   0.885  0.0620 -0.2764 -0.1890
22877W        W38008  14.266  11.427  11.986  0.0255 -0.1536  0.2012
22878W        W38009   2.843  11.277   2.118 -0.0392  0.3517  0.0409
22879W        W38010  17.478  12.404   1.932  0.1563  0.1064 -0.1272
22880W        W38011   6.096  18.265  13.330  0.3264  0.2539 -0.0593
22881W        W38012   8.290  15.378  13.425 -0.0968  0.1121 -0.0417
22882W        W38013   7.272   6.876  11.244  0.0291 -0.2661  0.1375
22883W        W38014  10.171   0.196  10.647  0.1355 -0.0372  0.1035
22884W        W38015   3.603  14.444   5.061  0.1915  0.2759  0.1459
22885W        W38016   2.649  14.552   0.285 -0.1875  0.5576 -0.0892
22886W        W38017   5.948   0.803   2.717  0.1014 -0.1665  0.0975
22887W        W38018  14.880  15.465   4.693  0.0503  0.4561  0.0156
22888W        W38019  10.385  10.284  10.793 -0.0696 -0.5407 -0.1988
22889W        W38020  14.490  17.786  15.637 -0.0022 -0.1028 -0.1684
22890W        W38021   2.639   7.515  10.751  0.0396 -0.1767 -0.0006
22891W        W38022  15.262   3.616  15.374 -0.0892 -0.0964  0.1345
22892W        W38023   8.839  17.770   4.152 -0.1540 -0.2315 -0.2213
22893W        W38024  13.820   8.109  10.718 -0.1955  0.1570  0.3123
22894W        W38025   3.899  18.212  13.502  0.0038  0.3074 -0.0776
22895W        W38026  17.834   7.493  12.734 -0.1591 -0.1550  0.4391
22896W        W38027  14.690  11.661  10.535 -0.1664 -0.3463  0.2002
22897W        W38028   5.996  13.904  11.783  0.2612 -0.2384 -0.3421
22898W        W38029  14.196   9.681  11.270  0.1160 -0.2184 -0.0216
22899W        W38030  15.979  12.598  14.434 -0.2754  0.1462 -0.0436
22900W        W38031  16.663  10.047   1.664  0.0879 -0.1186  0.0393
22901W        W38032   2.668  16.980  11.405  0.1709  0.0527 -0.0093
22902W        W38033   4.189   7.126   2.556  0.2220  0.1867  0.3251
22903W        W38034   1.146  17.693  14.201  0.0064 -0.0656  0.2008
22904W        W38035   6.185   4.186  12.783 -0.1094 -0.0647 -0.0149
22905W        W38036  12.926  11.418   5.338  0.1643 -0.1109 -0.3190
22906W        W38037   1.539  15.104  12.265 -0.0120  0.0508  0.0597
22907W        W38038  16.444  16.142   4.018  0.2600  0.0382 -0.0973
22908W        W38039  15.433  15.400   1.743 -0.0969 -0.0314  0.0976
22909W        W38040   5.600   0.488   5.715 -0.3098 -0.0006  0.3703
22910W        W38041  10.784  10.651  10.993 -0.0764 -0.0046  0.0208
22911W        W38042   5.183  11.509   3.071 -0.3647  0.0099 -0.0295
22912W        W38043   1.188  13.211  14.514 -0.1403 -0.1963 -0.2875
22913W        W38044   1.660   5.721   3.418 -0.0418 -0.1645  0.1764
22914W        W38045  14.830  11.006  13.210  0.0425  0.0258  0.1643
22915W        W38046   3.671   5.654  11.074  0.0436  0.1820  0.0352
22916W        W38047   9.800   2.570   3.762 -0.0356 -0.2551 -0.1273
22917W        W38048   0.986  10.336  14.480 -0.1294  0.2195 -0.2399
22918W        W38049   6.368   8.952   1.229  0.1131 -0.4120 -0.0397
22919W        W38050   9.785  18.045   4.260 -0.4551  0.1681 -0.1382
22920W        W38051   3.810  17.515   5.888 -0.0106 -0.0658 -0.1873
22921W        W38052  10.295   6.843   4.423  0.0166 -0.2764  0.2124
22922W        W38053   3.751   7.704  14.394 -0.1349  0.1231  0.1041
22923W        W38054  15.726   5.280  11.407  0.1675 -0.4437  0.2938
22924W        W38055   4.263   0.848  11.733  0.2189 -0.1096  0.2787
22925W        W38056  15.827   0.580   5.306  0.2412 -0.1377  0.1217
22926W        W38057   0.733  10.564   4.885 -0.1255  0.0114 -0.2011
22927W        W38058  16.710  15.109   4.700 -0.0941  0.1179 -0.1068
22928W        W38059  17.902   6.355   1.888 -0.2168  0.2784 -0.0232
22929W        W38060   8.811   6.604   3.425 -0.2192  0.0407 -0.0836
22930W        W38061   8.423  13.067   0.354  0.2475 -0.1612  0.0053
22931W        W38062   9.951  11.718   2.999  0.0664 -0.1641 -0.0509
22932W        W38063  11.633   9.391  15.197  0.0142  0.3806 -0.0123
22933W        W38064   6.239  17.003   1.608 -0.3621 -0.0582 -0.0919
22934W        W38065   3.256   4.747  13.049  0.3615  0.0032  0.2302
22935W        W38066  17.147   7.517  10.432 -0.1982 -0.0773 -0.2378
22936W        W38067   7.386   0.403  10.717 -0.2310  0.0923  0.1783
22937W        W38068  12.407  15.551   1.821  0.1344 -0.2259 -0.2082
22938W        W38069   5.843  18.288   2.606  0.0378  0.2756 -0.2604
22939W        W38070   3.872  15.978  13.910 -0.0230 -0.2036 -0.1545
22940W        W38071  17.726   5.850   2.614  0.0379  0.0899  0.0247
22941W        W38072  15.477   2.138  12.076 -0.0020 -0.0693  0.0042
22942W        W38073  13.872   6.274  13.904  0.1634 -0.1342 -0.0966
22943W        W38074   4.230  12.128   2.331  0.1075 -0.0568  0.1533
22944W        W38075   6.391   1.879   1.773  0.3716 -0.2652  0.0628
22945W        W38076   3.532   0.749   3.643  0.2935  0.2361 -0.0677
22946W        W38077  15.805  12.848   3.721  0.0989  0.1887 -0.2899
22947W        W38078   7.641   6.093  11.594 -0.2117 -0.4006 -0.1358
22948W        W38079  15.302   1.433   5.368 -0.1201  0.2826 -0.0799
22949W        W38080  10.601  11.006  12.050 -0.2396  0.1135  0.1381
22950W        W38081  14.765   9.408  12.405 -0.5140 -0.3233  0.0350
22951W        W38082   5.505  10.962  12.397 -0.0464 -0.0867 -0.1147
22952W        W38083  11.105   3.998   2.868  0.0790  0.1076 -0.3939
22953W        W38084  12.310   8.893  11.397  0.1117 -0.3249  0.1903
22954W        W38085   2.484  14.913   0.773  0.0041 -0.0632  0.1609
22955W        W38086  18.070  13.633   0.292  0.2948  0.0915 -0.2003
22956W        W38087   4.070  12.778  11.754 -0.1231  0.4843 -0.0419
22957W        W38088  12.079  18.352  15.730 -0.2079 -0.0547 -0.0213
22958W        W38089  18.093   4.202   2.023  0.0771  0.3676 -0.1147
22959W        W38090  12.331   6.112  10.693  0.0191 -0.2609  0.1125
22960W        W38091   0.034  16.938  14.119  0.0897  0.0746  0.2452
22961W        W38092  15.403  16.220  12.534 -0.1461 -0.0715 -0.1124
22962W        W38093   2.064   2.001   4.985 -0.1276 -0.1500  0.1543
22963W        W38094   1.151  11.481   2.919 -0.0590 -0.2459  0.4233
22964W        W38095   7.132  14.926  13.792 -0.1728  0.2697  0.1675
22965W        W38096  11.332   1.008  12.681 -0.3899 -0.3262  0.2707
22966W        W38097   2.053   0.839  11.021  0.1168 -0.0343 -0.1574
22967W        W38098  11.609  17.997  13.077 -0.1657  0.2753 -0.1158
22968W        W38099  15.014  11.513  14.738  0.2763  0.1839 -0.0155
22969W        W38100  15.975  15.998   3.989 -0.2029  0.0287 -0.0744
22970W        W38101   4.802  11.828  11.392  0.0374  0.0646 -0.3117
22971W        W38102  17.531   9.773   3.869  0.1078  0.3024  0.3889
22972W        W38103   3.439  14.449  15.196 -0.0287  0.0071 -0.0070
22973W        W38104  16.385   0.790   3.087 -0.0502  0.0505  0.1778
22974W        W38105  10.614   4.743   5.242 -0.1858  0.0204 -0.0445
22975W        W38106  11.573   5.234   2.951 -0.0083  0.1581 -0.2799
22976W        W38107  15.418  14.768  10.847  0.1453  0.1369  0.0120
22977W        W38108   3.078   3.441  12.933 -0.0318 -0.0527 -0.0975
22978W        W38109   3.606  17.896   4.878 -0.2136 -0.1420  0.1676
22979W        W38110   2.552   7.042  10.883 -0.1032  0.1243  0.2160
22980W        W38111   2.259   5.037  14.422  0.0056 -0.0969 -0.0178
22981W        W38112   6.754  18.296   3.067  0.2137 -0.0379 -0.0251
22982W        W38113  16.001   7.580  12.949  0.0225  0.0069 -0.2253
22983W        W38114  16.675  13.458  15.169 -0.3529  0.0444  0.1492
22984W        W38115   5.782   5.813  11.553 -0.3687  0.0052 -0.1361
22985W        W38116  14.497   5.253  11.174 -0.0409 -0.0567 -0.3777
22986W        W38117  10.616  13.814  13.677  0.2322 -0.1239 -0.0729
22987W        W38118  17.782   7.593   3.767 -0.1482 -0.0806 -0.0037
22988W        W38119   3.649   9.576  15.607  0.0894  0.0108 -0.1783
22989W        W38120  17.186  14.561   5.549  0.1317  0.1077  0.2639
22990W        W38121   3.494   4.034   2.222 -0.1782 -0.0215 -0.1261
22991W        W38122  15.343   5.920  13.881 -0.0882  0.0541 -0.1471
22992W        W38123  15.234  11.015   2.560  0.1134 -0.2428  0.2147
22993W        W38124   0.010   8.997  12.942 -0.1427  0.3677 -0.0552
22994W        W38125  17.248   2.355  11.932 -0.1425  0.2775  0.0780
22995W        W38126  14.442   8.390   2.317 -0.0132 -0.1695  0.4030
22996W        W38127   5.712  16.655   4.505  0.1452 -0.1559  0.1406
22997W        W38128  13.279  13.939  10.800 -0.0351 -0.1880  0.1283
22998W        W38129  16.030  11.005   4.357  0.0758 -0.0798 -0.3632
22999W        W38130   1.655  14.460  11.890  0.1634 -0.1969 -0.0570
23000W        W38131   9.687   4.616  11.898 -0.0998 -0.3800  0.0732
23001W        W38132  16.470  17.508   3.011  0.2040  0.2223 -0.0486
23002W        W38133   6.804  14.153  13.655 -0.1166  0.1536  0.0879
23003W        W38134   5.380  18.040   0.732 -0.0663 -0.1211 -0.0993
23004W        W38135   6.979   6.120   4.753  0.2525 -0.0046  0.0198
23005W        W38136   3.273  13.643  12.152 -0.2112 -0.0054 -0.1630
23006W        W38137   9.729   2.042   1.176 -0.1059 -0.0891 -0.3359
23007W        W38138  16.203   2.490  15.769  0.0793 -0.1742 -0.2693
23008W        W38139  11.426  13.215   1.298  0.3117 -0.2533  0.0728
23009W        W38140   6.098  10.550  11.449  0.0457  0.2025 -0.2399
23010W        W38141  13.735  18.324   2.222 -0.1164  0.4943 -0.0018
23011W        W38142   7.847  17.412  11.857  0.1191 -0.1212  0.1296
23012W        W38143   9.032  13.246  12.992 -0.0768 -0.2394 -0.0289
23013W        W38144  15.401  13.566  15.289  0.1046 -0.0810  0.0410
23014W        W38145   6.789   6.888  14.833  0.2503 -0.2193  0.3713
23015W        W38146  17.087   8.367  13.496 -0.1200  0.0169 -0.3693
23016W        W38147   7.361  11.786  14.375  0.0400  0.0532 -0.0961
23017W        W38148  10.468  17.682  10.728 -0.1700  0.2202  0.0538
23018W        W38149   9.224  14.591  11.479  0.0654 -0.3018  0.0583
23019W        W38150  18.254   4.776  15.451  0.1214 -0.1786  0.0131
23020W        W38151   8.431   3.855  11.696  0.0764  0.0175  0.2191
23021W        W38152  16.589   5.588  13.172 -0.2433  0.3380 -0.1634
23022W        W38153  11.959  18.081   2.529 -0.1136 -0.0671  0.1803
23023W        W38154  15.173   2.810   2.475  0.0295 -0.0115 -0.2864
23024W        W38155  10.786  15.159   2.212  0.2761  0.3049  0.0256
23025W        W38156  14.617  17.208  11.047  0.0284 -0.0890  0.1775
23026W        W38157   6.831   4.905  15.027 -0.3575  0.1681 -0.1947
23027W        W38158  14.479  14.663   4.489  0.1097  0.0176  0.0259
23028W        W38159  17.373   0.956  14.557 -0.0302  0.0712 -0.0328
23029W        W38160   3.674   1.730  12.545  0.0149 -0.0767 -0.3088
23030W        W38161  18.035   0.640  13.765  0.1796  0.1844  0.1410
23031W        W38162  12.607   6.193  11.266 -0.0046  0.4090 -0.0254
23032W        W38163   3.237   7.546   5.636  0.2226  0.0750 -0.0691
23033W        W38164   1.338  11.889   3.253  0.4388 -0.0804  0.2091
23034W        W38165  16.691   2.804   4.183  0.1973 -0.0243  0.0681
23035W        W38166  12.335   7.299  13.371  0.1271  0.1018  0.0858
23036W        W38167   3.113  10.574  11.942  0.1110 -0.1144 -0.0083
23037W        W38168  12.911   0.904  14.745  0.1359  0.3703  0.0468
23038W        W38169   2.683   4.031   9.725  0.2831  0.0493  0.4066
23039W        W38170   3.901   9.366  12.505  0.1544 -0.1442  0.0750
23040W        W38171   2.602  11.359   1.694 -0.0989  0.1192 -0.0099
23041W        W38172  10.090  16.878   0.779 -0.0598 -0.1948 -0.0452
23042W        W38173   2.807  16.308  10.782  0.2715  0.2235 -0.0615
23043W        W38174   8.314  16.026  12.621 -0.3198 -0.3313 -0.2293
23044W        W38175  14.111  13.425  13.878  0.2801  0.0236  0.0635
23045W        W38176   7.019  15.840  14.183  0.0151  0.2206  0.0554
23046W        W38177   9.044  10.363   0.250 -0.0158 -0.0101 -0.1041
23047W        W38178   0.463  10.110   0.874 -0.2917 -0.3884 -0.0388
23048W        W38179   5.120   0.608   5.849 -0.2126  0.0019  0.1378
23049W        W38180  12.838  11.110  12.138  0.1853 -0.1033  0.1209
23050W        W38181   4.779   7.138  15.299  0.1865 -0.1512 -0.3930
23051W        W38182  11.604   4.244  15.304 -0.0521  0.3060 -0.0502
23052W        W38183   3.962   5.253  11.447 -0.2345  0.0393 -0.3503
23053W        W38184   9.029   7.192   0.481 -0.1034  0.1255 -0.0591
23054W        W38185   2.292  17.571  14.694  0.0014  0.1909 -0.0097
23055W        W38186   9.068   0.829  12.036  0.1005  0.1562  0.4608
23056W        W38187  15.464  11.026  10.972 -0.1034  0.0352 -0.0172
23057W        W38188  15.476  14.791   6.517  0.2083  0.1527 -0.2021
23058W        W38189   6.974   4.451   4.392 -0.2781 -0.0200  0.0305
23059W        W38190  13.558  13.379   2.136 -0.1841 -0.3566 -0.1150
23060W        W38191   7.278  15.377   4.917 -0.0829  0.2520 -0.2552
23061W        W38192   2.211  16.110  13.293  0.1662 -0.3491  0.2566
23062W        W38193   9.731   4.442  14.742 -0.2149 -0.0088  0.2990
23063W        W38194  15.069  13.226   2.542  0.1074  0.0242 -0.2619
23064W        W38195   8.739  12.478   1.097  0.0037  0.0432  0.0124
23065W        W38196  11.001  11.794  14.061  0.1962  0.1351  0.0371
23066W        W38197  15.385   0.914   0.080  0.1295 -0.0059  0.2473
23067W        W38198   1.656  13.377   0.201 -0.1025  0.0157  0.0032
23068W        W38199  12.248  10.064   1.046 -0.0946 -0.0122 -0.0871
23069W        W38200   0.043   5.885   0.216 -0.0399 -0.0507 -0.1568
23070W        W38201   1.544   8.546  15.817  0.2189  0.0424  0.1986
23071W        W38202  12.800   3.045  14.700 -0.0401  0.1976 -0.0523
23072W        W38203  15.835  11.768  15.617 -0.1962  0.1247  0.0273
23073W        W38204  18.036  10.888  14.506  0.2348  0.3248 -0.0546
23074W        W38205  15.779   6.823   2.363  0.0672 -0.0102  0.3610
23075W        W38206   9.385   0.679  12.511  0.2509 -0.0130  0.0689
23076W        W38207  15.319  13.776  10.590  0.0398  0.3202 -0.0193
23077W        W38208  12.535  18.074  10.842 -0.1059 -0.4754  0.3020
23078W        W38209   3.727  16.557  14.882 -0.1803  0.0055  0.1950
23079W        W38210   4.743  14.000  14.523  0.1304 -0.0782  0.1034
23080W        W38211  15.185   5.067  14.421  0.1065 -0.3367 -0.0515
23081W        W38212  16.690  11.945   1.680 -0.2486 -0.1670  0.3679
23082W        W38213   2.991   1.039  11.457  0.2148  0.0430  0.2528
23083W        W38214   5.326  11.410  11.273  0.1222 -0.1274  0.0742
23084W        W38215   0.072   0.945  15.865  0.0892  0.2491 -0.0582
23085W        W38216  11.688   6.607  10.895 -0.2367 -0.1164 -0.1616
23086W        W38217  14.549   9.402  13.310 -0.0696  0.0144 -0.1823
23087W        W38218  17.250  12.990  14.059  0.1733 -0.0337  0.4921
23088W        W38219   2.603  15.286  14.254 -0.1514 -0.1283 -0.0239
23089W        W38220   3.824  12.755   1.666  0.3976  0.0547 -0.1513
23090W        W38221  16.063   0.529   5.710 -0.1190  0.0010 -0.1351
23091W        W38222   2.564  12.328  12.009  0.2566  0.0418  0.0525
23092W        W38223  14.918   7.963   0.223 -0.0206 -0.2892  0.0345
23093W        W38224   7.730   5.679   4.370 -0.1941  0.0300 -0.1152
23094W        W38225   6.873  17.273  15.773 -0.1691  0.1407  0.1302
23095W        W38226   9.870   9.866   4.387 -0.2660  0.1226  0.4061
23096W        W38227   5.423   7.048  14.284 -0.1046 -0.0209 -0.2300
23097W        W38228   9.243  10.439   4.514  0.0056  0.2848 -0.1867
23098W        W38229   3.593   7.484   1.661 -0.1701 -0.1587 -0.0821
23099W        W38230   6.336   6.248   2.297  0.0171  0.2981 -0.1985
23100W        W38231   4.413   8.539   1.206  0.1786 -0.0371 -0.0549
23101W        W38232   9.042  14.121   2.568  0.4686 -0.0544  0.0325
23102W        W38233   2.870   5.113  12.124 -0.0240  0.2222  0.1078
23103W        W38234  13.862   3.641  14.561  0.0944  0.1950  0.0072
23104W        W38235   0.587  15.495  13.924  0.0692 -0.4532  0.2909
23105W        W38236   4.424   7.631  12.379  0.2713  0.2174  0.0263
23106W        W38237   5.757   6.641   2.823 -0.0809  0.0543  0.0705
23107W        W38238  18.269  13.077   2.893 -0.1765  0.0554  0.0311
23108W        W38239   0.748   0.189  14.366  0.0772  0.0961 -0.0909
23109W        W38240   6.798   8.159  12.064  0.0162  0.0577  0.2372
23110W        W38241  10.372  11.516  13.999 -0.0296 -0.3623 -0.0290
23111W        W38242   0.084  18.123   2.765  0.1903 -0.1870  0.0496
23112W        W38243   8.093  12.855   3.403 -0.1402  0.2463 -0.0322
23113W        W38244   9.814   7.059   3.398 -0.0714  0.1010  0.1935
23114W        W38245   5.396  16.978   5.336 -0.3158  0.0114  0.3291
23115W        W38246   1.616   1.830   5.075  0.0242 -0.1534 -0.0217
23116W        W38247  12.794  16.015   3.698  0.2676 -0.0461  0.3053
23117W        W38248   8.763  14.720  14.254 -0.0617 -0.1460  0.2944
23118W        W38249  16.529  13.607   3.847 -0.3616  0.1836  0.0783
23119W        W38250  10.317   7.196   3.136  0.4085  0.2034  0.1376
23120W        W38251   9.024   5.088   1.661 -0.2953  0.2175 -0.0702
23121W        W38252  17.038  15.133   3.999  0.0773  0.0856 -0.2909
23122W        W38253  16.271  11.948   5.143 -0.1023  0.0956 -0.0323
23123W        W38254   3.563   4.004  14.800  0.0525  0.0590 -0.1751
23124W        W38255  15.034   6.454   0.748 -0.0026 -0.1057  0.0413
23125W        W38256  17.883   9.325   0.545 -0.1806  0.1911 -0.0251
23126W        W38257   2.038   3.121   4.639  0.1548 -0.2487  0.0611
23127W        W38258  11.970  14.275  10.734  0.0357  0.2940 -0.0789
23128W        W38259   2.213   9.984  12.167  0.1003  0.0413 -0.1924
23129W        W38260  16.125  10.755   1.571  0.1249 -0.2552  0.0529
23130W        W38261   4.789  10.007   2.443 -0.1449 -0.4055  0.4746
23131W        W38262  12.250  17.847  13.257 -0.0225  0.2742 -0.1118
23132W        W38263   7.605   8.521  12.895 -0.1710 -0.0035  0.1737
23133W        W38264   1.969  10.152  13.496  0.0034 -0.1586 -0.1896
23134W        W38265  17.152   2.594  13.130 -0.1487 -0.1703  0.2520
23135W        W38266  15.718  18.100  12.824 -0.0535  0.3000  0.1537
23136W        W38267  14.899  10.280   2.637  0.0605  0.0545 -0.5496
23137W        W38268  12.667   3.840   1.384  0.1818  0.2020  0.2213
23138W        W38269   2.508   2.276  13.591  0.0219  0.4440 -0.1335
23139W        W38270   1.510  15.417   3.053  0.2248  0.0215 -0.1060
23140W        W38271   9.970  17.039  13.991  0.1631  0.0906 -0.3715
23141W        W38272  15.415   7.051   1.751  0.2363 -0.1688 -0.0894
23142W        W38273  17.791  12.734  11.071 -0.0818  0.1013  0.0215
23143W        W38274   0.994  16.511   0.009  0.1351  0.3657  0.2264
23144W        W38275   8.630  13.566  10.891 -0.2349  0.1417 -0.3046
23145W        W38276  14.363  11.688  13.479  0.0872  0.1437  0.1001
23146W        W38277  18.337   9.683  14.220 -0.0641  0.0850  0.3567
23147W        W38278  12.971   0.736  10.091  0.4970 -0.0524  0.2414
23148W        W38279   7.225  17.759  10.754 -0.1363 -0.1097  0.4711
23149W        W38280   2.845  17.969  12.722 -0.0875 -0.5572 -0.3139
23150W        W38281   2.252   4.476   5.608  0.4256 -0.0174 -0.2620
23151W        W38282  14.105   7.066  14.804 -0.0396 -0.0297 -0.0453
23152W        W38283   3.196  12.607  11.630  0.1888 -0.1105 -0.1802
23153W        W38284  10.429   3.906  14.454 -0.0079 -0.0909  0.1572
23154W        W38285   6.655   9.544  15.019  0.4261 -0.3167  0.0797
23155W        W38286   8.725  14.465   2.743 -0.0900 -0.0951 -0.1155
23156W        W38287  11.697   7.068   2.791  0.1606  0.3266 -0.2062
23157W        W38288   4.641   5.897   4.689  0.0103  0.4147  0.0983
23158W        W38289  12.829   1.333  12.340 -0.1518 -0.0470 -0.1043
23159W        W38290  13.422   2.335  12.176 -0.0365 -0.1275  0.1582
23160W        W38291   0.268   7.496   1.809  0.0929 -0.0268  0.0988
23161W        W38292  12.008   4.214  15.736 -0.1316 -0.1189 -0.0179
23162W        W38293   0.647   4.836  14.636  0.3346 -0.0618 -0.0487
23163W        W38294  13.852   1.902   2.268  0.4558 -0.3309 -0.2744
23164W        W38295   5.564  18.133  12.116 -0.0991 -0.1729  0.0130
23165W        W38296   4.740   1.154   4.679 -0.0846  0.0526  0.4035
23166W        W38297  15.271  17.052  11.449 -0.1856 -0.1562  0.0839
23167W        W38298   8.283   4.945   2.845 -0.1978  0.1821 -0.0215
23168W        W38299   7.306   0.370   2.902  0.1466  0.3881  0.1686
23169W        W38300   5.563  12.322   4.098 -0.0443 -0.0626 -0.2379
23170W        W38301   7.498  15.095   2.231  0.0448 -0.0180 -0.2768
23171W        W38302  15.020  11.207   5.185  0.5086 -0.0070  0.2307
23172W        W38303  15.720  10.785   1.846 -0.2410 -0.1868 -0.2315
23173W        W38304   8.392  16.310   0.986  0.2099 -0.0145 -0.2933
23174W        W38305   9.437   2.918   3.480 -0.1031  0.0029  0.0463
23175W        W38306  14.716  18.198  11.545  0.2929  0.1580 -0.2899
23176W        W38307   7.206  14.056   3.705  0.2433 -0.2420 -0.1149
23177W        W38308   7.003   3.826   5.737  0.0920 -0.1023  0.1237
23178W        W38309   3.581  14.018  13.315  0.0956 -0.0898  0.0896
23179W        W38310   3.001   0.740  13.757 -0.3528  0.1323  0.1437
23180W        W38311  16.593   0.403   4.240 -0.1773 -0.0707 -0.1091
23181W        W38312  10.936   4.114   2.221  0.0674  0.2632 -0.0036
23182W        W38313   9.870  10.175  13.462  0.2586 -0.1013  0.2528
23183W        W38314  15.830  14.296  13.813 -0.0106  0.1500 -0.3108
23184W        W38315   6.991   9.560  15.483 -0.0502 -0.1183 -0.0911
23185W        W38316   4.121  12.709   0.075 -0.0254 -0.0992 -0.2069
23186W        W38317  17.860  10.552  11.320  0.0984  0.1503  0.0111
23187W        W38318  17.671  15.719  10.313  0.0710  0.2360  0.1365
23188W        W38319   3.617  14.312  14.308  0.0836  0.0689 -0.0958
23189W        W38320   5.547   0.284  12.019 -0.0223 -0.4036 -0.0837
23190W        W38321  11.193   9.429   1.690  0.3074 -0.0515 -0.0899
23191W        W38322   1.121  12.235  11.254  0.1010  0.0851  0.0870
23192W        W38323  16.102  18.439  15.462  0.2145  0.0275 -0.2463
23193W        W38324   5.830  12.498   9.893  0.1024  0.2100  0.1369
23194W        W38325  13.822   5.807  12.624  0.0864  0.0634  0.1284
23195W        W38326  17.303  13.684  12.831 -0.4891 -0.3873  0.1375
23196W        W38327   5.249  16.550  15.587  0.1167 -0.1687 -0.0915
23197W        W38328   9.013   8.531   2.025  0.0997 -0.0557 -0.0224
23198W        W38329   5.169   6.318   1.412 -0.2094  0.3709 -0.2680
23199W        W38330   2.488   1.706  12.779 -0.2128  0.3277  0.0990
23200W        W38331   2.989  17.267   3.586 -0.2384  0.0363  0.3807
23201W        W38332   1.522   7.768  15.777  0.1611  0.2408 -0.1454
23202W        W38333  15.080  13.006  11.842 -0.0553 -0.2313  0.0803
23203W        W38334  16.342   1.196  10.259 -0.2037 -0.0097 -0.1405
23204W        W38335   9.258  14.923  13.693  0.2455 -0.2337 -0.1595
23205W        W38336   1.458  16.064  15.898  0.1482  0.2675  0.1878
23206W        W38337   2.217   5.165  10.791 -0.0397  0.0350  0.1865
23207W        W38338   5.829   4.319   2.434  0.0354 -0.2329 -0.1815
23208W        W38339  17.367   2.054  12.370 -0.1291  0.2476 -0.0154
23209W        W38340   8.289  15.946   5.368 -0.0297  0.0974  0.2362
23210W        W38341  12.855   4.225   3.210  0.0275 -0.1226  0.0105
23211W        W38342  15.205  16.541  14.561 -0.3076 -0.3049 -0.0574
23212W        W38343   9.150  11.923   2.605 -0.0483  0.0071  0.1402
23213W        W38344   0.452   8.203  11.181 -0.0453  0.1088 -0.0618
23214W        W38345   8.297   4.771  14.324  0.1562 -0.1940 -0.4407
23215W        W38346   1.465   1.890   0.192  0.1012 -0.0731  0.1734
23216W        W38347   0.486  17.382   2.969  0.0620  0.1881 -0.1369
23217W        W38348   4.238  14.939   3.588 -0.0184  0.0793  0.0323
23218W        W38349  12.358  14.162   3.414 -0.0819  0.1803 -0.0250
23219W        W38350   8.328   7.475   3.097 -0.1639  0.0961  0.4351
23220W        W38351  14.182  18.133  10.913  0.0703 -0.2390  0.0672
23221W        W38352   0.637   2.667   5.197 -0.1541  0.0092 -0.1404
23222W        W38353   2.208   2.934  15.303  0.2924 -0.5137 -0.3356
23223W        W38354  11.541   9.073   1.968  0.0970  0.0553 -0.0311
23224W        W38355   0.416   7.523   1.014 -0.3233  0.0071  0.1181
23225W        W38356   2.439   1.295   1.242 -0.0496  0.1454 -0.0464
23226W        W38357  11.042  13.038   1.577 -0.0651 -0.1368 -0.0554
23227W        W38358   7.683   6.445   0.724  0.1510  0.2422  0.3394
23228W        W38359  16.386   1.679  14.745 -0.0099 -0.2009  0.2204
23229W        W38360   1.125  16.731   5.694  0.0185 -0.1722  0.1163
23230W        W38361   0.939  17.459  11.708 -0.1597 -0.1891 -0.1128
23231W        W38362   2.869   0.774   5.418 -0.0758  0.1746  0.1043
23232W        W38363   0.511  14.858   5.531  0.0017  0.1359  0.0868
23233W        W38364   4.694  12.457   2.906  0.5189  0.0941 -0.1167
23234W        W38365  14.177   3.597  13.392 -0.2022  0.1559  0.0147
23235W        W38366  10.753  15.618  10.979 -0.0092 -0.0533  0.2635
23236W        W38367   9.489   3.991   2.722 -0.2149 -0.1649 -0.0097
23237W        W38368   5.769  11.850  12.377 -0.0173 -0.0298 -0.1286
23238W        W38369  11.736  15.500   2.887  0.2613 -0.2159 -0.0897
23239W        W38370   2.608  16.445   2.981 -0.2915  0.1548 -0.1365
23240W        W38371  17.310   7.040   0.270  0.2362  0.2580  0.1488
23241W        W38372  12.380   0.522  13.127  0.0844  0.0385 -0.0302
23242W        W38373  15.030  15.771   0.291  0.1678  0.0894  0.1525
23243W        W38374   6.968   9.092  14.131 -0.2124  0.0245 -0.1106
23244W        W38375  15.909  18.215   0.013  0.0354 -0.2452  0.0915
23245W        W38376  15.316  10.406  13.218  0.1748  0.0256  0.1700
23246W        W38377  18.192  14.074   2.663 -0.0214  0.1234  0.0995
23247W        W38378  10.800  16.067   2.793 -0.2033 -0.1790 -0.1237
23248W        W38379  10.226   8.888   3.393  0.1428  0.1197 -0.5934
23249W        W38380   8.648  14.527  11.053  0.0821  0.2512 -0.0676
23250W        W38381   5.712   3.378   2.773  0.1216  0.0907 -0.2695
23251W        W38382   9.548   0.250  15.728  0.1650 -0.0501  0.1164
23252W        W38383   6.469  12.806   1.013 -0.3073  0.0013 -0.0290
23253W        W38384  11.883  17.074   2.024  0.1278  0.1212  0.0095
23254W        W38385   6.595   8.761  14.166 -0.0646  0.1599 -0.1756
23255W        W38386   6.581  11.255   5.316 -0.0450 -0.0031  0.2692
23256W        W38387  14.740  15.743  11.451 -0.2901  0.2641 -0.0140
23257W        W38388   9.133   3.145  10.727  0.1548  0.4023 -0.0221
23258W        W38389   0.868   4.695   9.811  0.0168  0.0097  0.1376
23259W        W38390  18.075  11.063   4.882  0.1560 -0.1483 -0.1873
23260W        W38391  13.258  10.124   1.097  0.0477  0.2645  0.0697
23261W        W38392   2.311  17.779   3.200 -0.1597  0.0800 -0.1612
23262W        W38393   7.028   7.815   2.439  0.3534 -0.3735  0.0347
23263W        W38394   2.551   5.937  13.174 -0.0005 -0.1040  0.0339
23264W        W38395  10.515  10.110   3.570  0.0000  0.0473 -0.0161
23265W        W38396  15.943   6.440   2.095 -0.0954  0.0415  0.2245
23266W        W38397   6.359  14.348  15.060 -0.0300 -0.1079 -0.1411
23267W        W38398  14.221   7.926   2.295 -0.0241  0.0370  0.1113
23268W        W38399  13.264  18.454   4.633  0.0779 -0.0803  0.0499
23269W        W38400   0.468   5.076  12.910 -0.2561 -0.0220  0.0993
23270W        W38401  12.467   6.179  14.073 -0.0726  0.0266  0.1147
23271W        W38402  16.379   5.255  12.816 -0.0901  0.2685  0.2597
23272W        W38403  11.048   7.899   1.751  0.0784 -0.0756 -0.2037
23273W        W38404  17.594   5.335   2.465 -0.0655 -0.0657  0.0584
23274W        W38405  11.594  13.451   1.740  0.5254 -0.0576 -0.1737
23275W        W38406  14.800   2.871   2.850  0.1351 -0.0240 -0.0879
23276W        W38407   0.371  13.098   4.411  0.0956 -0.1786 -0.1706
23277W        W38408   3.366   5.865  12.663  0.0767 -0.1588  0.0841
23278W        W38409   3.202   0.644  14.218  0.1095 -0.0561 -0.0343
23279W        W38410  12.102  17.872   0.721  0.0533  0.1716 -0.3852
23280W        W38411  13.417   2.190   4.263 -0.1346 -0.2908  0.0505
23281W        W38412   1.836   2.253  12.383 -0.1290 -0.3541 -0.0445
23282W        W38413   4.055   6.402  13.642  0.0954 -0.3525 -0.1438
23283W        W38414   5.110   8.838  11.943  0.0606  0.0981 -0.0705
23284W        W38415  10.856   4.398  15.768  0.2339 -0.0041 -0.0123
23285W        W38416  15.194   2.394  12.409 -0.0972  0.4123  0.1471
23286W        W38417   2.581  11.262   0.426 -0.1113  0.0017  0.2289
23287W        W38418  15.868   0.263   3.536  0.4547  0.2598 -0.0817
23288W        W38419  18.164  15.565  13.608  0.0434 -0.2363  0.1997
23289W        W38420  18.366  16.372   1.431  0.0248  0.1358  0.2275
23290W        W38421  14.836   1.139   9.753 -0.0561  0.0448 -0.3599
23291W        W38422   8.537   2.314  11.935 -0.1893 -0.0835 -0.0943
23292W        W38423  12.326  12.793  14.623  0.2093 -0.1960  0.4488
23293W        W38424   3.790   9.816   5.402 -0.0249 -0.0654  0.0461
23294W        W38425   2.325   5.062   3.930 -0.0507 -0.0306  0.1269
23295W        W38426   9.923   9.622  15.174  0.1522  0.0624 -0.1913
23296W        W38427   2.987   7.954   5.735 -0.3012 -0.0993 -0.0717
23297W        W38428  10.592  17.924   1.277  0.0240  0.2728 -0.0510
23298W        W38429   7.700  14.918   1.242  0.0928 -0.2386  0.1670
23299W        W38430  10.079   9.495   4.941 -0.0823 -0.2731  0.1164
23300W        W38431   7.063   1.100  10.631 -0.0800 -0.0379  0.3661
23301W        W38432   1.093  14.202   1.537 -0.0486 -0.0884 -0.2818
23302W        W38433  11.611  13.493   5.450  0.2517 -0.1790  0.1989
23303W        W38434   4.975  13.527  14.613 -0.3290 -0.2044 -0.0607
23304W        W38435   9.420   8.197  12.801 -0.3366  0.1128 -0.0347
23305W        W38436  13.539  17.059  15.631  0.0092  0.1291  0.1006
23306W        W38437   1.888  16.553   0.669 -0.2387 -0.0842 -0.0328
23307W        W38438   0.482   0.286  15.283  0.0453  0.3666 -0.1758
23308W        W38439  17.728  12.534   3.050 -0.2599  0.1713  0.3190
23309W        W38440  16.428  17.689  12.106  0.0112 -0.1722 -0.0585
23310W        W38441  16.579   0.265  11.778 -0.3728 -0.1828 -0.0870
23311W        W38442   3.437   6.481   3.670 -0.0655  0.0747 -0.0847
23312W        W38443   9.727  11.540  13.447  0.1169  0.1673 -0.1580
23313W        W38444   8.972   3.672  12.439 -0.0368  0.4970 -0.0322
23314W        W38445   4.441  10.300   2.005  0.1260  0.2127 -0.0325
23315W        W38446  12.371  11.394   1.321  0.2226  0.0676  0.2550
23316W        W38447   2.268  13.408  11.552 -0.0130 -0.1134  0.1404
23317W        W38448   3.481   4.202  13.107  0.0216  0.0003 -0.2735
23318W        W38449  15.337   3.813  14.897  0.2247 -0.0105 -0.2380
23319W        W38450   1.967   5.588  11.075  0.0302 -0.2492  0.3447
23320W        W38451   1.327   2.513   2.856  0.1361  0.0749 -0.0790
23321W        W38452   6.533   7.453  13.642 -0.0667 -0.1188  0.2949
23322W        W38453   5.829  12.238   0.342 -0.0658  0.2375 -0.4737
23323W        W38454  16.914  18.306  12.261 -0.0367  0.1341 -0.0069
23324W        W38455   1.623  16.586  15.300 -0.1235 -0.2598  0.2773
23325W        W38456   4.876  14.706   2.062  0.0108  0.0268 -0.0472
23326W        W38457   6.152   4.680  12.050 -0.0460  0.0481  0.3090
23327W        W38458   0.341   8.456  13.159  0.0678 -0.0502  0.1578
23328W        W38459   1.235   2.265   2.428  0.1436 -0.3102 -0.2539
23329W        W38460   9.896   4.129  11.053  0.1286  0.1302 -0.1282
23330W        W38461  16.930  12.225  10.504  0.0104 -0.0123 -0.1827
23331W        W38462   9.733   4.421   2.490 -0.1735 -0.1323  0.0301
23332W        W38463  18.186   9.810  12.381 -0.2216 -0.2367 -0.1718
23333W        W38464   9.668  17.651  13.811  0.0710 -0.0787  0.1385
23334W        W38465   5.455   6.639  11.085 -0.1821  0.2457 -0.5874
23335W        W38466  16.370   4.939   4.068  0.0052 -0.1477 -0.3563
23336W        W38467  11.042   3.602  15.176  0.0559  0.0795 -0.1160
23337W        W38468  15.206  11.729   1.712 -0.0133  0.2927  0.1307
23338W        W38469   6.382   5.352   4.194 -0.3442 -0.0797 -0.1351
23339W        W38470   0.777  14.391   3.991 -0.3469 -0.0084  0.1970
23340W        W38471   4.084   4.932  13.355 -0.3768 -0.1479 -0.1931
23341W        W38472  12.852   0.796   4.494  0.0783 -0.0160  0.0146
23342W        W38473   4.082  16.269   0.706 -0.0773 -0.0695 -0.1046
23343W        W38474  11.846   4.887  12.935 -0.0265  0.4198  0.1243
23344W        W38475   9.232   4.095  11.164  0.1558  0.0358 -0.0038
23345W        W38476  11.305  10.992  14.379 -0.0841  0.1094  0.0209
23346W        W38477   0.164  12.605  11.445 -0.0427  0.2307 -0.0729
23347W        W38478   0.167   2.003  11.863 -0.2820  0.1475  0.3482
23348W        W38479  13.415   3.600   2.379  0.1775 -0.1548  0.2832
23349W        W38480  12.686  17.249   4.689  0.1770  0.0686  0.2456
23350W        W38481  12.244  11.253   2.043  0.1104  0.0251 -0.2099
23351W        W38482   1.260  14.789  11.855 -0.1703  0.0265 -0.0404
23352W        W38483  10.426  11.134  12.643 -0.0080  0.1900  0.1336
23353W        W38484   6.337   7.953  13.576  0.2721 -0.0303 -0.0445
23354W        W38485  14.090   5.911   3.212 -0.1269 -0.1465  0.0493
23355W        W38486   5.323  12.569  13.061  0.0956  0.1754 -0.0941
23356W        W38487   2.196  10.655  10.709  0.1063 -0.0009 -0.1985
23357W        W38488  14.853   8.280   1.592 -0.2337 -0.0603 -0.0866
23358W        W38489  11.192  16.885  11.778 -0.2708  0.1279  0.1897
23359W        W38490  17.575  11.988  15.663 -0.0645 -0.0589  0.1337
23360W        W38491  14.839  15.147  13.842 -0.2217  0.1896 -0.0769
23361W        W38492  12.733  10.966   5.239  0.0592  0.1247  0.0333
23362W        W38493   2.642   1.473  12.283  0.1338 -0.0483  0.0605
23363W        W38494   8.556  15.696   3.758  0.4593  0.0325 -0.0956
23364W        W38495  14.070  17.402  12.528 -0.0843  0.2163 -0.2087
23365W        W38496  17.629   1.014  13.119  0.0883 -0.2248  0.2391
23366W        W38497   2.733  16.540   4.083  0.0741 -0.0779  0.0537
23367W        W38498   8.436   5.442   3.030  0.2333  0.0191 -0.2668
23368W        W38499   7.211  13.187   1.112 -0.0215 -0.5658 -0.0052
23369W        W38500  15.500   0.318   1.744 -0.0084  0.1344 -0.0805
23370W        W38501  13.749  14.846  15.437  0.1711 -0.0072  0.0626
23371W        W38502  11.919  18.512  14.288 -0.2266 -0.0550 -0.2634
23372W        W38503   1.754   2.200   2.664  0.4318  0.0081  0.0808
23373W        W38504  12.146   5.422   1.786 -0.1539  0.0669 -0.2163
23374W        W38505   8.124  13.563  13.000 -0.0601 -0.0870  0.2211
23375W        W38506   7.474   1.584  13.821 -0.0559 -0.1911  0.1903
23376W        W38507  13.791   7.880   1.509  0.2507  0.1672 -0.1198
23377W        W38508   3.340  11.159  12.621  0.0392 -0.1363 -0.0928
23378W        W38509  16.557  14.573  13.331 -0.0323  0.2687  0.0824
23379W        W38510   6.750  11.453  12.347  0.0514  0.1480  0.1747
23380W        W38511   2.550   4.416  11.994  0.0915 -0.1951  0.2505
23381W        W38512  15.631   3.224   3.150 -0.2799 -0.1682  0.1096
23382W        W38513   0.610  14.277   1.632  0.3354  0.0536 -0.2703
23383W        W38514   5.898   4.733  11.014  0.0141 -0.2651 -0.2176
23384W        W38515  16.486   8.571  10.969  0.1047  0.1307  0.1342
23385W        W38516  14.878   2.042  14.400  0.1203 -0.0608 -0.1172
23386W        W38517   8.887  16.992   1.870  0.2140 -0.0662 -0.0101
23387W        W38518  14.372   1.627   1.747 -0.2982 -0.1991  0.0615
23388W        W38519  15.042  15.171   2.885 -0.2258 -0.0092 -0.1188
23389W        W38520   2.523  18.142  11.078 -0.0719 -0.0051 -0.2194
23390W        W38521  12.276   8.754   1.334  0.2664  0.0514 -0.0111
23391W        W38522   4.151   2.919   0.600  0.0602 -0.0529 -0.0681
23392W        W38523  16.806  15.286   5.198  0.1113 -0.0030 -0.0167
23393W        W38524  16.513   9.056   3.713 -0.3413 -0.3542  0.2105
23394W        W38525  12.088   9.465   4.048  0.1325  0.2488 -0.2695
23395W        W38526  14.872   4.703   4.249 -0.1737 -0.3652  0.2677
23396W        W38527  12.929   4.157   1.023 -0.1033  0.1978 -0.0204
23397W        W38528   2.033  11.903  13.341  0.1728  0.1189  0.0153
23398W        W38529  13.756  17.897  12.523  0.2797 -0.0467  0.0382
23399W        W38530   8.736  10.772   0.170 -0.1405  0.0317  0.1586
23400W        W38531   2.858  16.993   4.267 -0.0395  0.3651  0.0549
23401W        W38532   0.506   0.134   6.094  0.1330  0.3372  0.1113
23402W        W38533   8.166  15.924   2.366 -0.2852 -0.0776 -0.2013
23403W        W38534  10.178   4.400   0.336 -0.0670  0.2084 -0.1661
23404W        W38535  17.182   2.736   4.592  0.1529 -0.0270 -0.1290
23405W        W38536   7.389  13.472   4.481 -0.1288 -0.0647  0.1101
23406W        W38537  16.161   8.184  15.671 -0.0547  0.0733  0.1824
23407W        W38538   1.731   9.803   5.365  0.2959  0.2519 -0.3794
23408W        W38539   4.343  18.244  10.759 -0.1518  0.0338 -0.1627
23409W        W38540   6.978   1.466  10.966  0.1771  0.1793 -0.0695
23410W        W38541  15.985   7.568   3.905  0.1501  0.0610 -0.0982
23411W        W38542  10.035  11.773  14.518 -0.0059 -0.0177  0.0814
23412W        W38543   4.800   1.948   0.003  0.2767 -0.2884  0.0472
23413W        W38544   9.812   8.808   5.278  0.1063  0.0828 -0.0042
23414W        W38545   9.451   0.869  11.646  0.2496 -0.0073  0.2125
23415W        W38546   4.346  18.479  13.766  0.0100 -0.2819  0.0647
23416W        W38547  17.977  13.767   1.043  0.2065 -0.2641 -0.1531
23417W        W38548  17.518   4.065  13.935  0.0888 -0.0886 -0.0337
23418W        W38549  17.185  16.511   2.298  0.1555  0.0911 -0.1297
23419W        W38550   3.449  13.370  12.765  0.2906 -0.1690 -0.2970
23420W        W38551  12.714   6.600  12.806 -0.0736  0.0622  0.0986
23421W        W38552   7.175   4.426   2.289 -0.1182  0.0276 -0.0920
23422W        W38553  16.462   1.987   4.305  0.2666  0.2451 -0.1370
23423W        W38554   9.449  13.899   3.267  0.1215  0.0390  0.3384
23424W        W38555   5.002  16.868   9.918 -0.1081  0.0966 -0.1969
23425W        W38556   1.050   3.337  14.735  0.0230 -0.0577 -0.3074
23426W        W38557  16.649  18.441  12.769 -0.0094 -0.4875 -0.0924
23427W        W38558  16.151   5.607  11.729  0.0439  0.3592 -0.0673
23428W        W38559  15.995   3.020   2.381  0.1066  0.0382 -0.0117
23429W        W38560   8.352  12.321  14.314  0.2238 -0.1819  0.4275
23430W        W38561   6.525   2.087   4.566 -0.1219 -0.2070 -0.0890
23431W        W38562  15.274  16.106   3.431 -0.0056  0.0516 -0.2608
23432W        W38563  17.615  11.244   3.989  0.2321  0.2215 -0.0961
23433W        W38564   5.730  13.886   2.340 -0.4977  0.1568  0.1137
23434W        W38565  16.961  14.040   1.694 -0.0022 -0.1988  0.0248
23435W        W38566  15.207   0.420  10.662 -0.0492  0.0183 -0.1291
23436W        W38567  15.138  13.405  13.170 -0.2301  0.1157  0.2211
23437W        W38568   5.413   3.406  12.296 -0.0428 -0.0343  0.1439
23438W        W38569  14.237  15.931  11.372  0.1235 -0.1221  0.1713
23439W        W38570   6.933  14.779   9.744  0.2535  0.4147  0.2315
23440W        W38571   9.420   4.249   2.168  0.2018 -0.0627 -0.0844
23441W        W38572  13.705   8.930   4.804  0.0708  0.0283 -0.1427
23442W        W38573  12.438  12.369  14.203  0.0429  0.1366  0.2660
23443W        W38574   4.887   4.115  15.536 -0.0218  0.3065  0.0291
23444W        W38575   2.438   5.971   1.362 -0.0361 -0.1363  0.0257
23445W        W38576   0.568   8.763  14.458  0.1114  0.2454 -0.1404
23446W        W38577   8.505  13.479  15.535  0.0769  0.1913 -0.0153
23447W        W38578   8.559   3.773   0.344  0.1822 -0.0146 -0.0449
23448W        W38579   2.633   9.078  12.468 -0.0436  0.1816 -0.0524
23449W        W38580   4.048   9.099  12.907 -0.1719 -0.1181  0.1595
23450W        W38581   4.709  17.017   4.991 -0.0759  0.4287 -0.3158
23451W        W38582  15.637  12.047  14.086 -0.0233 -0.3630 -0.0240
23452W        W38583   3.864  15.091  12.630  0.2628  0.3029 -0.3442
23453W        W38584   1.342  18.298   5.699 -0.2079  0.3734  0.0560
23454W        W38585   9.795   5.488  15.708 -0.1249 -0.1004 -0.0803
23455W        W38586   4.259   9.556  15.592  0.2366  0.0372  0.3602
23456W        W38587   6.344   5.001   1.757  0.0980 -0.0876  0.0820
23457W        W38588   6.763   8.350   5.739 -0.1159 -0.0795  0.0071
23458W        W38589   5.337  10.389  14.376  0.0366  0.0429  0.0441
23459W        W38590  13.685  14.294   1.846  0.1835 -0.1629  0.1420
23460W        W38591  16.738   5.243   0.359  0.0102  0.0398 -0.0356
23461W        W38592   0.608  14.618   4.412  0.0767 -0.2811 -0.0515
23462W        W38593  12.793  12.955  10.285  0.3750  0.0545  0.1303
23463W        W38594   0.084  12.869   3.211 -0.1799 -0.0943 -0.2327
23464W        W38595  13.886   3.973  12.409  0.1852 -0.2303  0.0180
23465W        W38596  15.617  14.139   3.909  0.4037 -0.0268 -0.0561
23466W        W38597   2.266   8.391   5.341  0.2970 -0.1069  0.0380
23467W        W38598   7.729  13.485   2.598  0.1566 -0.2871 -0.0579
23468W        W38599   6.659   0.757  15.550  0.0451 -0.3479  0.4472
23469W        W38600   8.542   3.028   2.735 -0.3909  0.0439  0.0303
23470W        W38601  14.774   0.813   4.900 -0.0190 -0.3341  0.0358
23471W        W38602   7.505  12.429  13.276 -0.1918 -0.2376  0.0698
23472W        W38603   8.433   6.722  14.142 -0.1663  0.0882 -0.2535
23473W        W38604   3.143   4.017   2.601 -0.0883 -0.0307  0.4843
23474W        W38605   8.863   3.443  10.456 -0.0698  0.1288  0.0379
23475W        W38606   0.706  11.130   3.570  0.0885  0.2187 -0.3147
23476W        W38607   3.304  17.384   4.747  0.1742 -0.0049 -0.3277
23477W        W38608  14.853   9.414   2.760  0.0941  0.0045  0.0020
23478W        W38609   0.362   6.773  12.368  0.0286 -0.1558 -0.3007
23479W        W38610  13.738  13.578  15.851 -0.4619  0.1731  0.2424
23480W        W38611   4.676  17.810   0.699  0.1536 -0.1434 -0.0414
23481W        W38612  15.663  13.733   4.186  0.0925 -0.0636 -0.0687
23482W        W38613   7.104   4.055   0.138 -0.1559 -0.0587 -0.1123
23483W        W38614  16.465   3.499   1.397  0.1381 -0.0794 -0.2098
23484W        W38615   6.423   3.738  12.611  0.0940  0.2194 -0.1832
23485W        W38616  18.514   4.638  13.267  0.1919 -0.0860 -0.0124
23486W        W38617  14.179   4.036  10.559  0.0861 -0.1672 -0.0358
23487W        W38618   8.548  11.988  11.038  0.0982  0.1381  0.1782
23488W        W38619   3.174   4.230   5.140  0.0648  0.0486 -0.0067
23489W        W38620   4.902   4.882   4.287 -0.0705  0.0503  0.1097
23490W        W38621  13.924  12.695   0.445  0.0224  0.2140 -0.1862
23491W        W38622   7.452  12.733  13.863 -0.0733  0.1365  0.0279
23492W        W38623  18.323  17.731   0.786 -0.0463 -0.1183 -0.0768
23493W        W38624   0.294   7.463   2.323 -0.0004  0.4465 -0.1473
23494W        W38625   7.464  15.979   4.873  0.3110  0.2981 -0.2107
23495W        W38626   2.382   5.749   3.560  0.2110 -0.4201 -0.2010
23496W        W38627  17.080   5.425  13.824  0.0527 -0.2152  0.1249
23497W        W38628  12.338   2.811  14.018  0.2461  0.1278 -0.0572
23498W        W38629   8.434   8.148   0.096 -0.4723 -0.5812 -0.0941
23499W        W38630  15.744   7.195   6.069 -0.1758  0.2619  0.2638
23500W        W38631   9.834  13.076   0.593  0.1553 -0.1028  0.1847
23501W        W38632   6.374  15.417  14.770  0.0245 -0.0644  0.3977
23502W        W38633   1.053   3.855  14.592  0.2670 -0.1101 -0.1100
23503W        W38634   2.098  17.023  13.730  0.0714 -0.2287  0.1241
23504W        W38635   7.855   3.579  11.477  0.1755  0.0151 -0.1540
23505W        W38636  14.044  10.383   0.809  0.2390 -0.0340 -0.1599
23506W        W38637   1.882  18.304  15.775  0.0524 -0.0767 -0.1963
23507W        W38638  15.975   4.802  15.412 -0.0596  0.1000 -0.5226
23508W        W38639   5.402   7.472  11.966  0.0996  0.0170 -0.1743
23509W        W38640  13.515  13.295   5.352  0.0795  0.4392 -0.0466
23510W        W38641   6.701   1.321   5.093  0.1785  0.1051  0.3296
23511W        W38642  16.414  13.666  11.286  0.1533 -0.0968  0.0788
23512W        W38643   4.312  13.355  15.686 -0.2346 -0.1632 -0.2397
23513W        W38644   2.352  17.456   2.267 -0.0447 -0.0419  0.2738
23514W        W38645  15.174  17.896  10.898  0.0124 -0.1688 -0.0875
23515W        W38646  15.130   4.236   2.695 -0.2405 -0.0086  0.1944
23516W        W38647   3.753   0.859  12.172 -0.2151  0.0746 -0.0230
23517W        W38648   9.690   0.043   4.882 -0.2678  0.0117  0.1233
23518W        W38649   4.433  11.960  13.145  0.0563  0.0880  0.2817
23519W        W38650  17.355  10.709   0.629  0.4376 -0.2468  0.2967
23520W        W38651  17.208   1.768   2.676 -0.0546 -0.0801 -0.2328
23521W        W38652  11.333  17.848  14.837 -0.1221  0.2693  0.3716
23522W        W38653   4.261  18.463  11.961  0.4474  0.2258 -0.0924
23523W        W38654   6.788   9.643   1.248  0.1001  0.0081 -0.2219
23524W        W38655   8.038   6.217  14.465  0.1233  0.0175 -0.0012
23525W        W38656   6.760  17.205  14.756 -0.3052 -0.0697  0.2313
23526W        W38657  13.762  12.359   2.683  0.0378 -0.3189  0.0180
23527W        W38658  10.091   9.820  11.573  0.2396  0.1548 -0.1704
23528W        W38659   8.433  10.307   4.896  0.0416 -0.0001  0.1657
23529W        W38660   5.692  10.666   3.736 -0.1109 -0.1631  0.1247
23530W        W38661  14.473   6.099  14.047  0.3886  0.0710 -0.1430
23531W        W38662   5.448   5.986  15.146 -0.0702  0.0310  0.2832
23532W        W38663   8.872  15.881  15.066 -0.0489 -0.0060  0.0548
23533W        W38664  17.172   0.500  11.610 -0.0376  0.0566 -0.2704
23534W        W38665   4.126   2.375  12.954  0.1737  0.4636 -0.0980
23535W        W38666   3.817   3.541  14.681 -0.0651 -0.1173  0.1403
23536W        W38667   8.182   8.925  11.223 -0.2656 -0.1380 -0.1761
23537W        W38668   6.355  16.343   3.371 -0.2146  0.0332 -0.3730
23538W        W38669   0.379   8.339   1.153  0.1750  0.1682  0.0980
23539W        W38670   3.209   7.196   1.654 -0.0332 -0.0758  0.2143
23540W        W38671  11.302   0.651  13.866 -0.0408  0.0978  0.0250
23541W        W38672   9.476   5.497  11.593 -0.0650 -0.2083  0.0571
23542W        W38673   8.423  11.890   2.103 -0.1288  0.1873 -0.1829
23543W        W38674  11.683   1.958  11.244 -0.0323  0.0117 -0.0548
23544W        W38675  14.102  15.870  14.522  0.0598  0.2072  0.0848
23545W        W38676  13.803   6.301  12.629 -0.1947  0.0693  0.1667
23546W        W38677  15.949   1.689  12.868  0.3715 -0.1232  0.0670
23547W        W38678  18.350   6.918   5.088  0.0634  0.1059  0.1468
23548W        W38679  12.871  11.921   5.030  0.1819  0.0607  0.1147
23549W        W38680   5.980   3.950   5.366  0.2350 -0.4397  0.1309
23550W        W38681  10.111   9.420   3.383  0.1908 -0.2668 -0.3377
23551W        W38682   3.385  10.417  12.458  0.2647  0.0604 -0.1305
23552W        W38683   6.321   6.525  11.454 -0.0843  0.0274 -0.1853
23553W        W38684  17.163   8.323  15.051  0.1330 -0.1633 -0.0982
23554W        W38685  17.391  18.009   5.526  0.4357 -0.2206  0.0200
23555W        W38686  11.923  14.321   2.516  0.0915 -0.1419  0.2050
23556W        W38687   0.717  16.114   4.625 -0.0049  0.8139  0.0068
23557W        W38688  15.850  13.550   2.190 -0.1608  0.0197 -0.1023
23558W        W38689  17.627  16.028  13.019  0.1903 -0.0620 -0.0640
23559W        W38690  17.039   0.206   4.205  0.1326 -0.0947 -0.2307
23560W        W38691   9.292   9.083  10.511 -0.0817 -0.0379 -0.0951
23561W        W38692  15.484   7.552  15.744 -0.0164 -0.2616  0.1296
23562W        W38693   9.565   9.003  11.764 -0.1211  0.0806  0.2016
23563W        W38694   4.355   5.712   5.119  0.0450 -0.0415 -0.1182
23564W        W38695   2.649   2.345  14.883 -0.0908 -0.1342  0.2922
23565W        W38696  11.973   3.882  15.301  0.2634  0.0489  0.1282
23566W        W38697   6.134   2.684   1.300 -0.0136  0.1347  0.2766
23567W        W38698  11.187   0.520  14.415 -0.1840  0.0677  0.2658
23568W        W38699   9.318   8.458  14.114  0.0311  0.3454 -0.3877
23569W        W38700  10.454   5.029   2.656  0.0279 -0.0650  0.1753
23570W        W38701  14.075   2.431  14.375 -0.2570  0.3222  0.0268
23571W        W38702   3.814   1.592  15.056 -0.2572 -0.0427  0.1072
23572W        W38703   0.507   4.592   2.722  0.0713  0.3016 -0.0201
23573W        W38704  17.515  10.863   2.802 -0.0678 -0.1784  0.1085
23574W        W38705   9.226  12.956  12.505 -0.2699  0.2322  0.4066
23575W        W38706   8.668   6.439  13.196 -0.2180 -0.4051  0.1526
23576W        W38707   5.212   0.453  12.701  0.2568 -0.3410  0.0274
23577W        W38708   6.099   1.696   2.685 -0.1646  0.1935  0.3778
23578W        W38709  17.699  16.362   0.821  0.0101 -0.2663  0.1671
23579W        W38710   6.747  18.290   4.956 -0.0830  0.0076 -0.0782
23580W        W38711   4.536   5.091  13.125  0.5406 -0.3484  0.1196
23581W        W38712   9.060   9.785   3.631 -0.1024  0.0116  0.2491
23582W        W38713   1.005  12.454   4.958 -0.0223  0.2286 -0.2531
23583W        W38714   2.018   2.618  13.705 -0.0471 -0.0675  0.1582
23584W        W38715   5.729   2.029   2.920 -0.4546  0.2065  0.3914
23585W        W38716   1.895  12.993   0.480  0.1677  0.1217 -0.1428
23586W        W38717   4.541  17.035  13.979 -0.0321  0.4972 -0.0046
23587W        W38718  14.910  10.815  15.039 -0.0865 -0.1111  0.1931
23588W        W38719   3.443   9.366   4.723  0.0579 -0.0798 -0.1065
23589W        W38720  15.615  16.377  12.982  0.0122  0.0401 -0.0239
23590W        W38721  18.490   8.714   5.517  0.0275  0.0438  0.1722
23591W        W38722   0.189   0.321   3.408  0.4631  0.1253  0.1048
23592W        W38723  15.175   5.595  13.022  0.0200  0.2858 -0.1666
23593W        W38724  16.256   9.505   3.398 -0.0248 -0.0105 -0.1649
23594W        W38725   9.786   2.752   4.641  0.0227  0.1637 -0.0659
23595W        W38726  15.930   5.830  12.083  0.0779  0.1280  0.1889
23596W        W38727   3.156   7.586  15.547  0.0044 -0.2034  0.1402
23597W        W38728   9.480  13.404   2.682  0.1770  0.2222  0.2090
23598W        W38729   3.867  10.258   3.339 -0.0715  0.1648  0.1247
23599W        W38730   6.735  11.408  13.172  0.1509  0.2060 -0.2665
23600W        W38731   6.572  14.260   2.881 -0.0490 -0.0600  0.1061
23601W        W38732  17.628   3.947  14.446  0.5384  0.0804 -0.0247
23602W        W38733  18.095  12.726  14.381  0.0469  0.0567  0.2321
23603W        W38734   3.254  17.015   5.166  0.2882  0.2409  0.2544
23604W        W38735  15.413   6.631   1.486  0.0177  0.1927 -0.0370
23605W        W38736   1.392  14.450   4.104 -0.3097  0.0529 -0.3670
23606W        W38737   3.068   4.368   4.681 -0.6657 -0.0068 -0.1586
23607W        W38738  13.225   4.452   2.438 -0.1768 -0.0648  0.2832
23608W        W38739  18.097   0.679  14.255  0.3501  0.0843  0.0971
23609W        W38740   5.293  10.352   0.346 -0.1019  0.0443  0.0884
23610W        W38741   2.661   9.759   4.407 -0.0241 -0.1626  0.0961
23611W        W38742  10.494   7.775   4.493  0.2675 -0.2149 -0.0488
23612W        W38743   7.537  13.943   2.842 -0.3382  0.0522  0.0404
23613W        W38744  11.002  11.029   5.327  0.2469  0.1166  0.1419
23614W        W38745  13.095   0.602   0.000 -0.1905 -0.0909  0.4656
23615W        W38746   6.664  12.975  12.349  0.0052 -0.1156 -0.2296
23616W        W38747  15.161   0.177   0.684  0.1835 -0.0760  0.3011
23617W        W38748   8.918   4.105  14.374 -0.2113 -0.1136  0.0176
23618W        W38749  16.381   4.091   3.632 -0.4426  0.0049 -0.2771
23619W        W38750   1.971   2.157  13.426 -0.0607  0.2609 -0.0754
23620W        W38751  11.980  11.545   0.630  0.1858 -0.0845  0.0008
23621W        W38752   2.709   4.869  15.597 -0.2354  0.3428 -0.1686
23622W        W38753   4.141   7.195  14.381 -0.0011 -0.3130 -0.1631
23623W        W38754  13.354   3.393  13.637 -0.1452 -0.2245 -0.1197
23624W        W38755   0.850   5.223  14.299 -0.0589 -0.1478  0.1402
23625W        W38756  13.123   9.539  10.502 -0.0783 -0.5637 -0.0475
23626W        W38757  15.172   0.330  11.639 -0.0358 -0.2648  0.2964
23627W        W38758   0.702   6.149  10.853  0.0601  0.1874 -0.3604
23628W        W38759  13.063  13.029  15.896 -0.0376 -0.2743  0.1266
23629W        W38760   5.046  17.779  12.999 -0.0975 -0.2188  0.2745
23630W        W38761   6.388   2.750   2.425  0.0731  0.0351  0.0440
23631W        W38762   4.581   0.457   2.619  0.3661  0.0681  0.0741
23632W        W38763  10.340  13.755   5.462  0.2097 -0.2442  0.1925
23633W        W38764   1.485   7.696   5.135  0.1997  0.0953  0.0716
23634W        W38765   3.143   1.045   0.186 -0.2043  0.2006  0.2027
23635W        W38766   4.995  12.570   1.289  0.0419  0.0057  0.1675
23636W        W38767  13.001  13.972   2.818  0.4978 -0.3373 -0.0474
23637W        W38768   2.000   3.310  14.549  0.2430  0.2844 -0.0523
23638W        W38769   3.214   2.543   0.229 -0.0763 -0.1501 -0.2760
23639W        W38770   1.706   5.154  11.151 -0.2095 -0.3397 -0.1115
23640W        W38771   7.032  11.674  11.977 -0.2099  0.0574  0.3548
23641W        W38772  18.088   3.489   3.624  0.0994  0.2475  0.0888
23642W        W38773   4.830   1.109  14.959  0.1477 -0.4148 -0.2023
23643W        W38774  16.485   8.323   4.102  0.1898 -0.0467  0.1564
23644W        W38775   8.342  14.399   9.031  0.0681  0.0977 -0.1387
23645W        W38776   9.966  15.083  11.051  0.1512 -0.0524 -0.1062
23646W        W38777   6.037   7.668   3.358 -0.0664  0.1562  0.0542
23647W        W38778  15.422  14.429   2.029 -0.0243  0.2261  0.1715
23648W        W38779   3.274  13.692   5.608  0.1306 -0.1101  0.1841
23649W        W38780   2.237  15.684  12.909 -0.1797 -0.2260 -0.1318
23650W        W38781   6.876  16.590   4.742 -0.1544 -0.0918 -0.0955
23651W        W38782   5.915   2.767   0.056  0.1137  0.2658  0.0684
23652W        W38783   4.500   9.496   3.480  0.0087 -0.1000  0.1550
23653W        W38784  17.392   8.088  15.420  0.2149 -0.1727 -0.1919
23654W        W38785   8.878   1.539   5.007  0.0060  0.0733 -0.1819
23655W        W38786   7.616  13.574  12.809  0.1116 -0.0118 -0.1476
23656W        W38787   1.516   9.106   4.201 -0.1692  0.1240  0.0175
23657W        W38788  12.323  13.639  12.967  0.0342 -0.0444  0.2721
23658W        W38789  16.204  17.770  13.418 -0.0186 -0.1679 -0.1586
23659W        W38790   4.914  18.243  13.206 -0.0405  0.1570 -0.1049
23660W        W38791   9.965   7.309  15.732 -0.5356  0.2795 -0.1201
23661W        W38792   9.921  17.887   2.933  0.1362 -0.0233  0.1113
23662W        W38793   1.803  17.611  11.825 -0.0887  0.1225  0.1774
23663W        W38794  15.466  10.080  11.179 -0.2132 -0.1032 -0.1101
23664W        W38795   3.455  16.272   1.645 -0.2212  0.1464  0.1066
23665W        W38796  10.990  16.757  10.910  0.2301 -0.0736 -0.2274
23666W        W38797   7.178  10.730   4.928 -0.1455 -0.1925  0.2623
23667W        W38798   3.246  16.806   3.895  0.1199  0.1959  0.1531
23668W        W38799   8.630   0.693  12.825  0.3896  0.0763  0.2373
23669W        W38800  10.108  15.106   1.115 -0.1344 -0.0325 -0.0956
23670W        W38801   9.341  11.555   3.006  0.1985  0.4063  0.2572
23671W        W38802  13.758  10.151  13.352  0.0208  0.1833 -0.0412
23672W        W38803  15.088  17.741   4.745 -0.1014  0.1288  0.2564
23673W        W38804  10.344   6.461  14.732 -0.2035  0.1569  0.3114
23674W        W38805   9.039  12.934  15.090 -0.3146  0.0218  0.0324
23675W        W38806   8.557  10.347   1.987 -0.1000  0.3141 -0.0183
23676W        W38807  11.662   7.552  13.141 -0.0476  0.4904  0.1460
23677W        W38808   2.014   7.699  13.155 -0.0596 -0.1006 -0.1198
23678W        W38809   7.361   6.582   2.922 -0.0761 -0.0974  0.0375
23679W        W38810   2.416   3.731   1.730  0.0575 -0.6250  0.3734
23680W        W38811   2.253  17.903   0.494 -0.0471 -0.0337 -0.0959
23681W        W38812  12.076   5.537  15.739 -0.0764  0.2119 -0.4858
23682W        W38813   1.173  16.309  11.936 -0.2735 -0.0108 -0.0237
23683W        W38814   1.594  16.407   1.158  0.2819 -0.1288 -0.0926
23684W        W38815  14.946   5.542   4.774 -0.0737 -0.0184  0.1753
23685W        W38816  15.145   8.881  15.061  0.5177  0.1143  0.0162
23686W        W38817   4.813   7.121  10.632  0.0878 -0.1251 -0.0972
23687W        W38818  11.681  14.093  12.813 -0.0614  0.0635 -0.1078
23688W        W38819  14.145  18.107  14.118 -0.0809 -0.1203  0.0559
23689W        W38820  17.413   5.992   3.136 -0.1615 -0.0943 -0.1464
23690W        W38821  15.014  13.756  14.471 -0.2830  0.1388 -0.0335
23691W        W38822  17.032   8.370   1.500  0.0191  0.1534  0.0787
23692W        W38823  10.362   8.721  12.105  0.1661 -0.1332 -0.1895
23693W        W38824  17.821   7.226  15.043  0.1001  0.1216 -0.0004
23694W        W38825   4.125   5.106   3.579  0.2656 -0.1110 -0.1023
23695W        W38826   5.189   5.461   3.632  0.1567  0.1238  0.0563
23696W        W38827   0.417  18.205   0.172 -0.0113 -0.1944  0.0187
23697W        W38828   9.882   5.638  11.935 -0.3701  0.2014 -0.1587
23698W        W38829  11.373   1.753   1.612  0.0697 -0.4747 -0.0861
23699W        W38830   6.113   6.040   5.125 -0.0096 -0.0041 -0.1419
23700W        W38831   5.633   7.081   0.399  0.0639 -0.1800 -0.4028
23701W        W38832   9.418   8.243  11.248  0.3177 -0.2920  0.1149
23702W        W38833  10.322   0.733  11.036  0.1196 -0.0216 -0.2214
23703W        W38834   5.320  17.369  14.414  0.1291  0.1486  0.1440
23704W        W38835   4.265  10.013   2.345  0.3354  0.1395  0.0355
23705W        W38836   2.885   6.187  12.812  0.1154  0.3514 -0.0370
23706W        W38837   2.168  17.074   0.675  0.0999 -0.1732 -0.0130
23707W        W38838   3.081   5.931   4.262 -0.0635  0.1306  0.4113
23708W        W38839  13.741   4.388   5.713  0.1592 -0.0780  0.0295
23709W        W38840  11.013  11.067  10.723 -0.2027  0.0952 -0.1497
23710W        W38841   6.293   5.215   3.487 -0.3348  0.4808 -0.2036
23711W        W38842  16.924   2.149   1.819 -0.1066  0.0751 -0.2805
23712W        W38843  11.063  15.353  13.574  0.1184  0.0924  0.0250
23713W        W38844  10.718   0.711  11.943 -0.0228  0.1625  0.1286
23714W        W38845   9.916   6.268   1.334 -0.1940 -0.1429 -0.1752
23715W        W38846   0.176   2.251   1.874  0.1777 -0.1382  0.2130
23716W        W38847   1.662  12.618   1.598 -0.2949 -0.0892 -0.0134
23717W        W38848  13.046   5.449   5.094  0.1757 -0.4090 -0.1150
23718W        W38849   9.784  15.192   5.074  0.2968  0.1985 -0.1043
23719W        W38850  16.156  17.999  14.450  0.0106 -0.4541 -0.1794
23720W        W38851  18.037  17.902   9.668  0.5048  0.2336 -0.1633
23721W        W38852   8.431  18.446  14.111  0.1257 -0.0556 -0.3386
23722W        W38853   4.406   0.519   4.202 -0.0174 -0.0277 -0.2427
23723W        W38854  18.528  14.427  12.724 -0.1708  0.3260 -0.0727
23724W        W38855  10.097  10.071   4.789 -0.0007  0.2235 -0.0373
23725W        W38856   5.883   3.701  15.452 -0.0690 -0.0557 -0.0092
23726W        W38857   3.568  12.080   1.128 -0.0336  0.1651 -0.1814
23727W        W38858  18.099  12.539   5.156  0.2139 -0.3454 -0.0072
23728W        W38859  15.895  17.321   0.733 -0.1941 -0.0811  0.2820
23729W        W38860   4.138   8.288  14.791 -0.1176  0.1435 -0.0827
23730W        W38861   3.862   5.631  15.268  0.0931 -0.0017 -0.1685
23731W        W38862  18.048   6.691  14.470  0.3187 -0.0013 -0.3166
23732W        W38863  11.658  14.500  11.762 -0.1329  0.1632 -0.1752
23733W        W38864  10.963   3.248   3.117 -0.2110  0.1743  0.2549
23734W        W38865   1.771   2.661   4.349  0.1316 -0.0884  0.3383
23735W        W38866   5.678  16.122   4.498  0.1248  0.0080  0.1117
23736W        W38867   2.939   6.082   6.105 -0.0475  0.0654  0.0969
23737W        W38868  14.010  17.812   2.255  0.1066 -0.0807 -0.0704
23738W        W38869   7.822   3.462  13.761 -0.1919 -0.0858  0.1351
23739W        W38870  18.096  13.035  11.320  0.0587  0.2479 -0.1606
23740W        W38871   8.745   6.033  13.774 -0.3231 -0.1237 -0.1550
23741W        W38872  10.583  14.291  11.933  0.0417  0.1056 -0.1056
23742W        W38873   2.680   9.044   4.956  0.0845  0.0902  0.6673
23743W        W38874   2.176   3.096  13.128 -0.3534  0.1227  0.2206
23744W        W38875   8.452  11.128  15.897  0.4592  0.2159 -0.4532
23745W        W38876  12.867   4.300  15.334 -0.0925  0.0977 -0.0360
23746W        W38877   5.648  17.908   1.504  0.1819  0.1877  0.1462
23747W        W38878   6.279  14.434   5.350 -0.1511  0.1030 -0.0037
23748W        W38879   6.846   9.068  11.088  0.0306 -0.0020 -0.3964
23749W        W38880   9.300   7.268  11.252 -0.1382  0.0507  0.0047
23750W        W38881   5.992   7.532   1.838  0.2784 -0.3210  0.0035
23751W        W38882  11.667   9.786   0.488  0.3113  0.1309  0.3937
23752W        W38883  11.045   1.350  14.578 -0.0632 -0.0888  0.0489
23753W        W38884   2.509  14.576   1.218 -0.1676  0.0165 -0.2196
23754W        W38885   0.397   7.084   2.553 -0.3082  0.0851  0.2143
23755W        W38886   1.549   5.168   3.711 -0.2940 -0.1889 -0.1732
23756W        W38887  13.698  13.089   9.850  0.0585 -0.0674  0.0911
23757W        W38888   8.812   1.660   2.071  0.0384 -0.1736 -0.0368
23758W        W38889  17.806  16.261   1.427  0.0529 -0.0185 -0.0784
23759W        W38890  15.351  11.308   3.817  0.0756 -0.2452 -0.2962
23760W        W38891  15.159  11.362  13.867 -0.0741 -0.3753  0.1615
23761W        W38892   5.195  18.473  14.736 -0.0149 -0.1137 -0.0372
23762W        W38893  12.717   1.595   1.667 -0.2033  0.2612 -0.0828
23763W        W38894  15.100  11.547  11.359  0.0176  0.0016 -0.0800
23764W        W38895   2.343   1.752  14.202 -0.0701  0.1083  0.1088
23765W        W38896  14.619  15.068  15.322 -0.2333  0.0419  0.1528
23766W        W38897  12.882  15.855   0.315  0.1871 -0.1379  0.0301
23767W        W38898   6.303   8.460   1.869 -0.2320 -0.2749  0.0509
23768W        W38899   5.541  10.506   3.275  0.1562  0.1496  0.0670
23769W        W38900  13.563  17.238   2.806 -0.0726 -0.3585  0.1938
23770W        W38901   9.892  10.864   0.726  0.2003  0.2162 -0.2879
23771W        W38902  13.698  15.618   2.603 -0.2021 -0.0173  0.1258
23772W        W38903  17.468   4.767  14.435  0.1498 -0.1127 -0.3814
23773W        W38904   9.613   2.482   4.232 -0.0633 -0.0747 -0.1953
23774W        W38905   6.636  11.001  14.975  0.3219  0.1101  0.1365
23775W        W38906   7.056  10.762   0.343  0.0496  0.2123 -0.0844
23776W        W38907  15.003   5.935  14.299 -0.0960  0.0224 -0.0273
23777W        W38908  14.566   9.156  11.955  0.1289 -0.0261 -0.2098
23778W        W38909  14.347   8.175  12.770 -0.0378  0.0060 -0.1290
23779W        W38910  18.479  15.721  14.022 -0.1064 -0.5949 -0.0574
23780W        W38911   9.053  15.553   3.455  0.1069  0.3930 -0.0502
23781W        W38912  16.266  10.098  14.412  0.2632 -0.0750  0.1034
23782W        W38913  17.557   1.192   5.554 -0.2066 -0.0965  0.0554
23783W        W38914  15.752   1.756  15.301 -0.3200 -0.0302  0.0473
23784W        W38915   1.958  12.809  15.369 -0.1509  0.0387  0.0222
23785W        W38916   3.261  13.882   1.767 -0.0547  0.2250  0.0069
23786W        W38917   7.131  16.681   5.525 -0.1466 -0.1501 -0.4169
23787W        W38918   8.623  18.358   0.847  0.1708 -0.0757  0.2188
23788W        W38919   4.334  12.898   3.785 -0.2884  0.2056 -0.1784
23789W        W38920  15.539   5.614   3.949 -0.3218  0.0386  0.1421
23790W        W38921   6.141   9.033   4.790  0.0989  0.1665 -0.3129
23791W        W38922  14.955  18.102  14.463  0.1478  0.2579  0.1033
23792W        W38923  16.664   4.479   4.217  0.2922  0.2081 -0.0646
23793W        W38924   6.764   4.117   1.010  0.1226  0.0774 -0.0751
23794W        W38925   5.268   0.238   1.438  0.2215 -0.0815  0.1134
23795W        W38926  11.465  12.092  12.535  0.0724 -0.2313  0.0509
23796W        W38927   0.993  13.672  13.294  0.1809 -0.0431 -0.0701
23797W        W38928  15.835   6.064  11.663 -0.0454 -0.0192  0.0414
23798W        W38929  14.673  11.968   4.691  0.0694  0.1287  0.0765
23799W        W38930   7.784   3.067  14.545 -0.1176 -0.1310 -0.0436
23800W        W38931   8.259   2.402  12.831 -0.0550  0.2589  0.1593
23801W        W38932  13.018  16.501   3.654  0.1247  0.0269 -0.3242
23802W        W38933   2.430   6.661   3.217 -0.2075  0.0231  0.1171
23803W        W38934   0.802   5.797   3.947 -0.1530  0.1746  0.0211
23804W        W38935   4.463   5.920   4.215  0.0476  0.1994  0.0589
23805W        W38936  15.267   4.344  12.818  0.1907  0.3989  0.1351
23806W        W38937   4.579   1.950  10.747 -0.0158 -0.2829 -0.2772
23807W        W38938  10.879  17.877   1.896 -0.1078  0.2065  0.2103
23808W        W38939  13.035   6.954  12.949 -0.2048 -0.2872  0.2000
23809W        W38940  16.539   3.011   0.641  0.0969 -0.0493  0.1040
23810W        W38941   5.870   3.252  14.593 -0.1794  0.3012 -0.0942
23811W        W38942  15.932  10.151  11.226 -0.2822  0.0604  0.3104
23812W        W38943   9.030  11.088  14.762  0.0422 -0.0077 -0.1417
23813W        W38944   5.140   0.715  10.710 -0.0168 -0.0636 -0.0061
23814W        W38945   0.768   1.374  13.868 -0.0220  0.0803  0.1346
23815W        W38946   9.407   0.546   2.746  0.4212 -0.2922  0.2581
23816W        W38947   1.794  17.596  15.242 -0.1053  0.1401  0.1778
23817W        W38948   6.060  12.040  11.153  0.0283 -0.3125  0.2288
23818W        W38949  16.505   8.514   6.712  0.1729 -0.0272  0.0951
23819W        W38950  11.687  11.364   2.309 -0.1304  0.0074  0.0602
23820W        W38951  13.447   1.102  14.810  0.1569  0.0244 -0.3105
23821W        W38952  11.639   0.250  14.755 -0.1780 -0.1657  0.0027
23822W        W38953   4.215  13.230   3.098  0.1082 -0.1900  0.0788
23823W        W38954   8.525  14.965  10.400 -0.0965 -0.2244  0.1169
23824W        W38955  15.005   4.232   1.343  0.1898  0.3677  0.0843
23825W        W38956  17.186   9.478   2.641  0.0687 -0.0961  0.0132
23826W        W38957   8.123  12.456  15.726  0.4304  0.1434 -0.1794
23827W        W38958   2.098   7.955   0.770  0.0891  0.0932 -0.0465
23828W        W38959  10.994  12.196   4.291 -0.0647  0.2205  0.2488
23829W        W38960   6.672   5.536  10.992  0.0085  0.0264  0.2005
23830W        W38961  16.217  12.340  12.787 -0.4244  0.3895 -0.3179
23831W        W38962  17.354   4.976   2.806 -0.1012  0.0823  0.1066
23832W        W38963   1.862  11.090   4.714 -0.1663  0.1158  0.0983
23833W        W38964  11.743  14.737  13.175  0.1618  0.2726 -0.2568
23834W        W38965   4.197   4.618  15.857 -0.1416  0.0106  0.1102
23835W        W38966   5.211  13.094  14.523  0.0532 -0.0107  0.2200
23836W        W38967   7.111   8.274  14.727  0.3055  0.2213 -0.0764
23837W        W38968  14.400  12.295  12.283  0.0398 -0.0018 -0.1874
23838W        W38969  11.214   3.114   0.159 -0.1739  0.0308 -0.0213
23839W        W38970  14.769  10.198   1.611 -0.3034  0.2637  0.1188
23840W        W38971   8.885  16.610  14.391 -0.1015 -0.2414 -0.0762
23841W        W38972   3.992  12.162  13.095  0.0397 -0.1187 -0.3744
23842W        W38973  13.315  11.767  15.350 -0.3125 -0.1804 -0.0086
23843W        W38974   0.932   5.343  15.850  0.1865  0.3067  0.0534
23844W        W38975   4.562  17.561  14.227  0.0082 -0.0133  0.0094
23845W        W38976  13.226   6.483  10.154 -0.1103  0.4079 -0.0889
23846W        W38977   8.919   8.371  14.615  0.0869 -0.4770 -0.2480
23847W        W38978  15.516   8.564   5.660 -0.0540  0.0475  0.3122
23848W        W38979  14.143  17.422  13.629 -0.0594  0.1796  0.1772
23849W        W38980   5.956   2.443   4.874 -0.1268 -0.0435  0.0781
23850W        W38981   5.092  13.842   3.107  0.2386 -0.1036  0.0670
23851W        W38982  17.082   9.778   4.957 -0.1962 -0.1516  0.0932
23852W        W38983  17.822   6.837   3.229  0.1987 -0.0849 -0.1725
23853W        W38984  14.462   2.634   0.239 -0.5312 -0.1780 -0.3181
23854W        W38985  16.684  13.315   3.424 -0.0296 -0.0413 -0.3526
23855W        W38986   9.160  14.355   4.154 -0.2079 -0.0689 -0.0894
23856W        W38987  18.406  14.536   0.616  0.2002  0.3072 -0.1936
23857W        W38988  15.500  11.060   4.396  0.0986 -0.2887 -0.0876
23858W        W38989   1.323   4.679   1.113 -0.0312  0.1186 -0.2979
23859W        W38990   4.364   5.456  14.654  0.2677  0.1376  0.2594
23860W        W38991   1.780   1.092   6.372  0.0087  0.1048  0.2637
23861W        W38992   8.034   7.956  15.111  0.3731 -0.1484  0.1148
23862W        W38993   6.318  10.263   5.014  0.1731  0.4635 -0.1232
23863W        W38994  15.291  10.000  15.312 -0.3343 -0.2837  0.0854
23864W        W38995  16.875   7.907   4.337  0.2749  0.0706  0.0528
23865W        W38996   6.278  11.629  12.550 -0.0849  0.1515  0.3367
23866W        W38997   2.750  11.177   4.504 -0.0736 -0.1749  0.0192
23867W        W38998  14.081   4.241   3.718  0.1109  0.2604 -0.0301
23868W        W38999  11.315  17.405  14.599 -0.1209 -0.1886 -0.1835
23869W        W39000  14.890   0.426  12.761 -0.0524 -0.1751  0.2100
23870W        W39001   1.469   1.700  14.598 -0.0941 -0.0723  0.3539
23871W        W39002  17.635  14.657  12.371 -0.1625 -0.4159  0.1378
23872W        W39003  15.230  13.497  10.990 -0.1859  0.0909 -0.2052
23873W        W39004   9.722   3.356   3.543  0.0581 -0.2344  0.0194
23874W        W39005   9.852  18.459  12.752  0.1328 -0.5859  0.0075
23875W        W39006  16.492  11.431  12.487 -0.4287 -0.0207 -0.1125
23876W        W39007  13.376  10.017   3.063  0.1132 -0.3288 -0.1821
23877W        W39008   3.637   7.997   1.561 -0.0652 -0.1743 -0.0025
23878W        W39009   2.561  10.494  15.683  0.1367 -0.0694  0.0827
23879W        W39010  14.116  10.446   2.445  0.1120 -0.3393  0.2276
23880W        W39011   8.084   1.417  14.413  0.3592 -0.2088  0.4027
23881W        W39012  12.356   5.755  14.656 -0.1464 -0.1257 -0.3452
23882W        W39013   3.013   4.720  11.868 -0.0961  0.0262  0.1043
23883W        W39014  11.905   8.234  10.737 -0.3179  0.4099 -0.0159
23884W        W39015   7.044   0.555   2.446 -0.0059 -0.1430 -0.1770
23885W        W39016   4.224  13.606  15.153  0.2510 -0.3632 -0.1808
23886W        W39017   0.114   8.498  12.713  0.2948  0.0627  0.0006
23887W        W39018  13.817   7.818  14.337 -0.2736  0.2995 -0.1207
23888W        W39019  16.771  13.166  11.855  0.1078 -0.0225 -0.1003
23889W        W39020  15.537   5.523  12.223  0.2222  0.2783  0.0587
23890W        W39021  13.914  15.040  14.759  0.0993  0.0457  0.2626
23891W        W39022  14.143   6.897   3.137  0.1929  0.0238  0.1091
23892W        W39023   2.319  11.671   1.480 -0.0466 -0.0827  0.0157
23893W        W39024  12.875  15.745   1.176  0.4266 -0.2354 -0.0229
23894W        W39025  15.382   4.779  13.271  0.1104 -0.0268 -0.0448
23895W        W39026  17.644  17.696  10.611 -0.1937  0.1056  0.0013
23896W        W39027   0.644   5.610  11.510 -0.3861  0.0216  0.1945
23897W        W39028   6.558  16.170   0.066 -0.0634  0.1085  0.4626
23898W        W39029   0.899  10.165   3.367 -0.0219 -0.1206 -0.4022
23899W        W39030   4.731   6.592  14.457 -0.0641 -0.2979  0.3506
23900W        W39031   0.159   8.612  13.663  0.0133  0.0262  0.0836
23901W        W39032   1.430   4.114  13.746  0.3144  0.0385  0.1369
23902W        W39033   7.521  16.421   2.292  0.0433  0.0363 -0.0576
23903W        W39034   6.668   3.859  12.211 -0.0706 -0.2786 -0.0914
23904W        W39035   8.590   5.294  12.296 -0.0924 -0.2689  0.1828
23905W        W39036   8.433   6.693  14.980  0.0845 -0.2495 -0.0066
23906W        W39037  11.928  16.259   2.369  0.1962  0.0269  0.0377
23907W        W39038  16.139   1.628   4.356  0.0216 -0.1160 -0.0732
23908W        W39039   2.960  13.527   3.437 -0.2069  0.1952  0.3255
23909W        W39040  14.693  15.947  15.297  0.0932 -0.1039 -0.0324
23910W        W39041  15.478  14.450   4.801  0.0465 -0.4606 -0.0663
23911W        W39042   3.874  17.473   3.441 -0.1659  0.1389 -0.1585
23912W        W39043   6.540  11.908  14.176 -0.1076 -0.1357  0.0178
23913W        W39044   4.917  12.750   4.251  0.2769  0.0171  0.0778
23914W        W39045   1.888  14.343   3.990 -0.1834  0.2193 -0.2871
23915W        W39046  14.638   7.899   4.849  0.0578  0.0859 -0.3040
23916W        W39047  17.373  14.211   4.788 -0.2535  0.3546  0.0623
23917W        W39048   0.110   4.365   1.185 -0.0465  0.0896 -0.0760
23918W        W39049  10.254  14.618   0.951  0.1623 -0.0603 -0.0239
23919W        W39050   7.627   7.694  12.293 -0.2224  0.2853  0.1665
23920W        W39051  17.853   5.233  15.608 -0.2372 -0.1463  0.0077
23921W        W39052  15.862  17.817   3.758 -0.1327 -0.0267  0.1910
23922W        W39053   9.958   9.658   2.147 -0.2635  0.0264  0.0524
23923W        W39054  17.332   4.371  11.261  0.0162 -0.0314 -0.0309
23924W        W39055   6.070  13.521   4.192 -0.2082 -0.2943 -0.0748
23925W        W39056  16.437   8.394  12.911  0.1021 -0.3375 -0.2089
23926W        W39057  12.410   9.621  13.115 -0.1853  0.0038  0.0694
23927W        W39058   2.897  13.604   2.862  0.0556 -0.1028 -0.4996
23928W        W39059   2.044  11.742  14.384 -0.1016 -0.1045 -0.3603
23929W        W39060   0.930   6.817   4.075 -0.3923  0.0954 -0.2774
23930W        W39061   1.533   6.673  13.592  0.2113 -0.0414 -0.1823
23931W        W39062  18.126  15.522   1.651  0.1906  0.0625 -0.0175
23932W        W39063  13.633  15.155  11.042  0.1528 -0.2003  0.1047
23933W        W39064  12.568   1.600  15.136  0.1843  0.0210  0.1740
23934W        W39065   8.312  11.733  13.017 -0.0329 -0.2722 -0.1323
23935W        W39066  10.474   0.730  13.238 -0.1475  0.0051 -0.1522
23936W        W39067  14.556   5.812   3.496 -0.0355 -0.2477 -0.1526
23937W        W39068  11.900   1.059  11.303 -0.2049  0.1299 -0.1495
23938W        W39069   6.184  14.099  12.240 -0.0286 -0.1075  0.0986
23939W        W39070   0.057   9.948   3.810  0.0607  0.0332 -0.0654
23940W        W39071  18.149   9.352   2.179 -0.0472 -0.0435 -0.0604
23941W        W39072   4.131  17.681  14.801 -0.1606 -0.0308 -0.1346
23942W        W39073   4.304  12.827  12.706  0.1540  0.2230 -0.0331
23943W        W39074  12.474   8.379  12.299  0.2194  0.0139 -0.0531
23944W        W39075  16.068   1.473   9.853 -0.1053  0.0446 -0.1806
23945W        W39076  15.567   3.770   1.602 -0.1547  0.3103 -0.0862
23946W        W39077  16.452   7.358  14.548  0.3373  0.1319 -0.0118
23947W        W39078   2.242  17.498   2.780 -0.2515 -0.0291  0.3666
23948W        W39079   0.944   5.783  11.862 -0.2731  0.0101 -0.1954
23949W        W39080  12.197  11.484  14.584  0.2749 -0.3711 -0.0604
23950W        W39081  15.845  16.718   3.432  0.2133 -0.1916  0.2563
23951W        W39082  12.594   0.574  12.051 -0.0791  0.0126 -0.2168
23952W        W39083   3.613  17.192   0.878 -0.1935 -0.0114 -0.0973
23953W        W39084  13.113   4.770  11.629 -0.1598  0.0429 -0.2559
23954W        W39085   4.169   8.342   5.211  0.1830 -0.0863  0.1700
23955W        W39086   5.452   5.588   4.032 -0.1969 -0.3946  0.2065
23956W        W39087  12.165   7.453  12.449  0.0403 -0.0622 -0.0613
23957W        W39088  14.188   8.246  11.692  0.2362  0.0763 -0.2873
23958W        W39089   4.398   7.847  14.870  0.1461 -0.1590 -0.0686
23959W        W39090  14.883   3.544  12.599 -0.1373 -0.1422  0.0006
23960W        W39091   0.288  15.138  10.296  0.1465  0.0176 -0.0294
23961W        W39092  10.900  17.397   3.391 -0.0003 -0.0719 -0.3441
23962W        W39093   0.758   0.476   0.374  0.2724  0.3632 -0.3481
23963W        W39094   7.422  10.058   5.861 -0.0724  0.1533 -0.1714
23964W        W39095   7.945  13.962  13.779 -0.1441  0.0158  0.1427
23965W        W39096   1.206  11.990   2.170 -0.0226 -0.1585 -0.0418
23966W        W39097  12.043  13.472  13.925 -0.0032  0.1815  0.1682
23967W        W39098   6.535   3.350   2.892  0.1560 -0.2727  0.4195
23968W        W39099  10.352   0.168  14.689 -0.2493 -0.0717 -0.0130
23969W        W39100  15.689   7.729   2.533  0.0226  0.0389 -0.0910
23970W        W39101   7.279  11.967   5.553  0.2138  0.0021  0.2634
23971W        W39102   7.015  17.992   0.278  0.1626 -0.2893 -0.2654
23972W        W39103  16.621  15.575  13.003 -0.2949 -0.0680 -0.2841
23973W        W39104   5.498   0.573   2.549  0.1170  0.3073 -0.1624
23974W        W39105  16.428  11.388   0.330  0.1452 -0.3372 -0.2100
23975W        W39106  15.976  18.215   2.231 -0.1026 -0.0253  0.1072
23976W        W39107   8.725   1.935   1.636 -0.1414  0.2989 -0.1052
23977W        W39108   4.493   5.449   2.695  0.0695  0.0512  0.1027
23978W        W39109  14.047   6.296  11.469 -0.0991 -0.1784  0.0414
23979W        W39110  16.618  15.711   1.186  0.3023  0.0795  0.1830
23980W        W39111  12.517  16.627  15.797 -0.2787 -0.0402 -0.1365
23981W        W39112   7.355   4.235  10.029 -0.1010 -0.2568  0.1502
23982W        W39113   6.017   3.247   4.243  0.0945 -0.1408 -0.2096
23983W        W39114   1.813  15.535  11.854  0.4212  0.0611  0.0157
23984W        W39115  10.354  10.298   0.151 -0.2607  0.1186 -0.2333
23985W        W39116  16.212  15.248   9.857 -0.1736  0.1554 -0.0100
23986W        W39117   0.555   2.168  13.037  0.0939  0.0984  0.1406
23987W        W39118   1.809  13.590  11.589  0.0223  0.3410  0.1510
23988W        W39119   9.132   1.814   4.689 -0.1110  0.3091  0.0328
23989W        W39120  12.800   2.282   3.421 -0.0381 -0.5609  0.0754
23990W        W39121  12.340   4.083   0.174  0.1446 -0.0697 -0.1665
23991W        W39122  18.350  17.476  14.667 -0.4203  0.1381 -0.1870
23992W        W39123   0.740   2.997   3.417  0.1038  0.0696 -0.0188
23993W        W39124  15.351   1.695  11.917 -0.1851  0.0316  0.0649
23994W        W39125   5.899  13.669   3.420  0.2076 -0.2982  0.1804
23995W        W39126  15.293  12.349   2.184  0.0041 -0.0093  0.1610
23996W        W39127  11.427  17.039   3.618 -0.0354  0.1549 -0.1683
23997W        W39128   9.531  14.961   2.477  0.2180 -0.1757 -0.1125
23998W        W39129   0.748  11.906   6.249 -0.2352  0.1096 -0.1627
23999W        W39130  15.405  10.691   9.954 -0.0500 -0.0318 -0.0186
24000W        W39131   2.058  17.972  14.996  0.2938  0.1105 -0.0526
24001W        W39132   0.862  16.153  10.373  0.0705  0.0999  0.4915
24002W        W39133  13.329  18.095  12.719 -0.0001 -0.0723 -0.0597
24003W        W39134  13.653   1.441   2.291 -0.2132  0.1232 -0.2452
24004W        W39135   7.901   1.111  14.006 -0.3175 -0.1245  0.0825
24005W        W39136  11.286   5.045   2.194 -0.2294 -0.3985 -0.2760
24006W        W39137   6.845   3.527   2.498 -0.2044  0.4177 -0.1923
24007W        W39138  11.517  10.953  15.697  0.2242  0.0362 -0.2261
24008W        W39139   4.557  15.094   1.858  0.2962  0.1503  0.3421
24009W        W39140  10.468   5.728   1.608 -0.2621  0.3861 -0.0425
24010W        W39141  16.548  17.420   1.566  0.2707 -0.1193  0.2280
24011W        W39142  15.494  14.458   3.154 -0.1459 -0.0137 -0.0818
24012W        W39143   9.502  10.064   3.609  0.0376  0.0303 -0.0104
24013W        W39144  14.054  11.547   2.216 -0.2661  0.1906 -0.2091
24014W        W39145  10.935   4.910   1.856  0.0880 -0.1058 -0.0118
24015W        W39146  12.956   6.425   3.843 -0.1886  0.0837  0.2485
24016W        W39147   8.467  18.250   4.720 -0.0854  0.0133  0.1310
24017W        W39148   8.317   4.563  14.926 -0.1675 -0.1327  0.3467
24018W        W39149   9.941   0.505  13.363 -0.1149  0.2033 -0.1047
24019W        W39150  14.640   4.024   0.584 -0.1517 -0.4360  0.0842
24020W        W39151  10.709  13.562   0.014  0.0719 -0.1396 -0.1986
24021W        W39152   4.516   1.207   5.223  0.0105  0.0367 -0.1336
24022W        W39153  17.620   2.548   1.839  0.1143  0.1493  0.0079
24023W        W39154   2.636   9.065   2.417 -0.0620 -0.0789  0.0411
24024W        W39155   4.784  13.651  12.734  0.0671  0.2759  0.3750
24025W        W39156   4.083   8.867  12.440 -0.0904 -0.0537  0.3081
24026W        W39157  13.690   1.805   0.398 -0.1405  0.0525 -0.2215
24027W        W39158  16.728  17.539   5.292  0.2348 -0.1663  0.2960
24028W        W39159   8.675   5.349   0.578 -0.1126 -0.1530 -0.0710
24029W        W39160   4.399  13.637   4.423 -0.1634  0.1117 -0.2340
24030W        W39161  11.765  11.459  12.341  0.2675  0.0568  0.1270
24031W        W39162   9.985   9.885  13.044 -0.0933  0.1694 -0.3330
24032W        W39163  17.603   6.723   2.062 -0.1015  0.0560 -0.0153
24033W        W39164  12.034   5.093  14.410  0.0696  0.2131 -0.1404
24034W        W39165   7.220   6.548   0.568  0.1426 -0.0829  0.3849
24035W        W39166   5.356   4.671   3.491  0.1944  0.1327  0.1008
24036W        W39167  16.550  12.970  10.899  0.2278 -0.1276 -0.0886
24037W        W39168  13.312   2.267   5.198  0.2190 -0.2552  0.1342
24038W        W39169  14.959  13.213   1.528 -0.3226 -0.0256  0.0116
24039W        W39170  10.347   1.649   3.498  0.1262 -0.1935  0.2279
24040W        W39171   3.439  13.512   0.034 -0.2345 -0.0556 -0.2982
24041W        W39172   8.422  18.088   4.193  0.1153  0.0597  0.4907
24042W        W39173   9.670  11.329  13.902  0.3487  0.2280  0.1164
24043W        W39174  11.968   8.698  13.387 -0.0869  0.0382 -0.4229
24044W        W39175  14.011  16.464  14.652 -0.0278 -0.0251 -0.3562
24045W        W39176  12.078  15.551  15.723  0.0730  0.2205  0.1616
24046W        W39177   2.002  10.907   3.413 -0.3819 -0.4479 -0.0188
24047W        W39178   1.405   5.990  13.682 -0.1421  0.0930  0.1268
24048W        W39179  15.835   5.250   3.796 -0.0912 -0.1808  0.3068
24049W        W39180   6.812  14.037   4.768  0.4229 -0.1111 -0.3182
24050W        W39181   5.614   3.586   4.210 -0.0651 -0.1501  0.0167
24051W        W39182   7.074  17.115   3.968  0.0309 -0.0096  0.0012
24052W        W39183  16.739  16.884   5.988 -0.1103 -0.2768  0.2364
24053W        W39184   6.707   7.800  12.409 -0.0324 -0.0520 -0.1187
24054W        W39185  12.986   3.689   5.306  0.0124 -0.2062  0.2586
24055W        W39186   0.217   7.810  11.869  0.0303 -0.0689  0.0244
24056W        W39187  12.001   9.016   4.342  0.0741  0.0321  0.3319
24057W        W39188  11.379  11.459  15.875 -0.0257  0.2344  0.0829
24058W        W39189   1.070   3.566  11.874  0.0263  0.0643 -0.5324
24059W        W39190  12.969   1.337   3.473 -0.0792 -0.0591  0.1690
24060W        W39191  14.046   3.326  12.990  0.0231  0.3121 -0.2161
24061W        W39192   5.531  15.987  12.788 -0.0070  0.2483  0.0839
24062W        W39193   1.055   8.848   2.929 -0.1726 -0.0004 -0.1446
24063W        W39194  15.427  14.570  11.801  0.1351  0.0580  0.1190
24064W        W39195  12.128   9.202  13.293 -0.0001 -0.1252 -0.1909
24065W        W39196   5.755  14.584   5.414 -0.0140 -0.2018 -0.2419
24066W        W39197  15.523  16.982   5.612  0.0878 -0.3039 -0.2239
24067W        W39198   7.876  17.631   2.393 -0.0383  0.1251  0.0575
24068W        W39199  12.547  17.956   4.142 -0.1050  0.0305  0.1509
24069W        W39200  11.572  11.830   1.019  0.1729  0.2667  0.2641
24070W        W39201   0.664   0.975  13.573 -0.2124  0.3147 -0.1059
24071W        W39202   4.301   6.977  13.869  0.2192 -0.0028  0.1342
24072W        W39203  17.218  12.032  15.339 -0.0623 -0.3790  0.0148
24073W        W39204  15.599   5.220  14.148 -0.0750 -0.1323 -0.2748
24074W        W39205  10.873  15.593   1.451  0.0067 -0.1955  0.1233
24075W        W39206   1.223  10.334  15.526  0.3352 -0.2745  0.0152
24076W        W39207   0.847   2.790   1.235 -0.0244  0.0184  0.1049
24077W        W39208   0.678   5.804   4.487  0.1600  0.1499  0.4552
24078W        W39209   7.113  17.855  15.228 -0.0262 -0.3090 -0.0717
24079W        W39210   6.624   3.094   5.051  0.1188  0.2038  0.0571
24080W        W39211  15.461  14.969   2.975 -0.1808  0.3605 -0.0807
24081W        W39212   3.250  17.953   3.920  0.3446  0.1416 -0.0599
24082W        W39213   5.353  16.268   2.421 -0.0465 -0.0027 -0.1346
24083W        W39214   5.934  11.752  12.915  0.1210  0.2731  0.1648
24084W        W39215   4.887  17.886   1.466 -0.0074  0.1112  0.0585
24085W        W39216   8.636   3.784   5.781 -0.3282 -0.0462  0.1335
24086W        W39217  17.228   2.756   0.497 -0.0131  0.1416  0.2985
24087W        W39218   1.836   4.430   2.224 -0.2209 -0.1084 -0.1717
24088W        W39219  17.187  16.972   1.005 -0.3125 -0.1250 -0.0452
24089W        W39220  11.656   3.127   1.925 -0.1275  0.1144  0.5450
24090W        W39221   6.065  11.936   4.826  0.1650 -0.1440  0.1901
24091W        W39222   3.427   8.008   0.520 -0.1353  0.2752 -0.2324
24092W        W39223   5.523   9.912  13.282  0.1149  0.0963  0.0721
24093W        W39224  14.667  12.884  13.621 -0.2980  0.0869  0.0914
24094W        W39225   5.712   9.219  15.173 -0.2523 -0.5040 -0.0651
24095W        W39226  11.428  16.046  11.434 -0.0261  0.1045 -0.0358
24096W        W39227  12.223   2.510  14.788  0.2266 -0.2990 -0.0927
24097W        W39228  18.520  10.975   2.845  0.1149  0.3215 -0.2518
24098W        W39229   0.745  17.410  14.531 -0.0759  0.1874 -0.0697
24099W        W39230  12.930  10.951  14.545 -0.1005 -0.0781 -0.1696
24100W        W39231  17.398   9.360   1.452  0.2214 -0.1357 -0.2460
24101W        W39232   1.043  12.982   3.738 -0.0896 -0.2909 -0.1326
24102W        W39233  10.707   8.925  10.535  0.1416 -0.1221 -0.0803
24103W        W39234   4.188  12.338  11.434  0.0474 -0.0835  0.1182
24104W        W39235  12.121  14.497   4.687  0.1048 -0.0534 -0.1899
24105W        W39236   9.175  17.794  14.573  0.0137 -0.0215  0.1705
24106W        W39237   7.102  16.202   4.521 -0.1703  0.0110 -0.3874
24107W        W39238   9.115   8.518  12.031  0.1104  0.0219 -0.1656
24108W        W39239   7.896  17.235   2.077 -0.0504  0.0361 -0.1717
24109W        W39240  14.332  14.261   3.096  0.4151 -0.3517 -0.3675
24110W        W39241  16.683  10.591   4.758 -0.2719  0.0277 -0.1437
24111W        W39242   1.271   5.149   0.844  0.1466  0.3018  0.1990
24112W        W39243  17.641   9.180  14.092 -0.1715 -0.1039 -0.1195
24113W        W39244   8.559   1.823  12.123 -0.1947 -0.0843  0.0225
24114W        W39245   7.336   3.169  12.268 -0.0614 -0.2642 -0.0930
24115W        W39246  17.778   4.938   0.842  0.0302  0.3684 -0.0959
24116W        W39247  15.896  16.022  12.336  0.1040 -0.1437  0.1407
24117W        W39248  13.423   6.712   1.533 -0.0113  0.1383  0.0515
24118W        W39249  11.201   6.623  11.133  0.1303  0.0767  0.1684
24119W        W39250  15.990  14.355   5.409  0.1568  0.2535  0.0571
24120W        W39251  11.579  17.770   3.126  0.0414 -0.5057 -0.3637
24121W        W39252   1.990   8.431   0.630 -0.4142 -0.1160 -0.1507
24122W        W39253  15.339  14.557   3.751  0.1254 -0.0289  0.3389
24123W        W39254   8.630   5.029  12.706  0.0913 -0.2079  0.0194
24124W        W39255   8.329   7.761   1.281 -0.0537 -0.1826 -0.2241
24125W        W39256   4.595  16.644  15.359  0.0370 -0.3236  0.1662
24126W        W39257   6.104   7.183   0.534  0.1019  0.1237  0.0868
24127W        W39258   2.676   4.725  12.384  0.1360 -0.1789 -0.1028
24128W        W39259  13.481  16.447   6.073 -0.2450  0.1066 -0.1391
24129W        W39260  18.394  16.913   3.711  0.4113  0.0219 -0.0156
24130W        W39261  10.673  11.229  15.444  0.1557  0.1057 -0.1092
24131W        W39262   5.042   7.764   0.003 -0.0504  0.2317 -0.0874
24132W        W39263  14.684   5.998   1.291  0.1132  0.1239  0.1003
24133W        W39264   0.695   9.823  11.334 -0.3157  0.1773  0.0092
24134W        W39265  15.456   8.214   2.361 -0.1138 -0.2283  0.1991
24135W        W39266  15.845  15.000  11.177  0.0619 -0.0773 -0.2383
24136W        W39267  11.975   4.392   2.626 -0.0594  0.0032 -0.2315
24137W        W39268  15.077  12.693  13.857  0.2537  0.1672  0.0663
24138W        W39269  16.865  13.344   4.586 -0.1118  0.0095  0.4465
24139W        W39270  15.282   3.219   0.986 -0.1513 -0.1332  0.3139
24140W        W39271   4.007  10.311   2.633 -0.1582 -0.1196 -0.0310
24141W        W39272  12.567  14.306  12.104  0.1644  0.3197  0.2485
24142W        W39273  18.314   2.387  13.773  0.1008  0.0136  0.0866
24143W        W39274   0.732   8.324   3.345 -0.2907  0.0890 -0.0556
24144W        W39275  14.185  12.141   2.441  0.0172  0.0189 -0.0963
24145W        W39276  13.422  12.653  13.825 -0.0325 -0.2448  0.0436
24146W        W39277   5.587  13.246   2.553  0.0585 -0.0955  0.3493
24147W        W39278  11.992   2.560  14.296  0.1251  0.0120 -0.0490
24148W        W39279  11.961   8.908   0.829 -0.1000  0.1065 -0.0212
24149W        W39280   9.571   4.265  13.591 -0.2206 -0.2410  0.0856
24150W        W39281   3.136   9.170   5.054  0.3193 -0.0400  0.3076
24151W        W39282   8.161  10.480  15.412  0.1411  0.2929  0.1975
24152W        W39283  10.727  16.333   1.805 -0.0506 -0.3374  0.1161
24153W        W39284  18.370  18.181  12.239  0.2035  0.2049 -0.0657
24154W        W39285  12.017  15.067   4.129  0.0603 -0.1841 -0.0255
24155W        W39286  16.724  17.137   4.690  0.3547 -0.0006 -0.1660
24156W        W39287   4.341  14.602   1.358  0.1245 -0.0791  0.2395
24157W        W39288   3.555  10.265   1.440 -0.0193  0.1016  0.0134
24158W        W39289   3.478  15.161  12.323 -0.1453 -0.0033 -0.1507
24159W        W39290  17.123   3.727  14.239  0.2583  0.0155  0.2720
24160W        W39291  14.486   1.672   0.796 -0.0043 -0.1710 -0.0480
24161W        W39292   2.489   8.293  15.635 -0.0825  0.0694 -0.1282
24162W        W39293  12.199   8.388  13.724 -0.1051  0.2861  0.1558
24163W        W39294   8.131  10.998  15.479  0.0163 -0.0009  0.1065
24164W        W39295   9.184  13.621   4.898  0.0511 -0.3987 -0.1644
24165W        W39296   3.805   4.041   1.772 -0.0963  0.0888 -0.1393
24166W        W39297  13.262   4.220  11.712  0.3767 -0.0619  0.1021
24167W        W39298  15.788   6.757  11.198  0.2674 -0.0199  0.0341
24168W        W39299   1.199  16.362  15.325  0.2994 -0.0156  0.0813
24169W        W39300   7.020  10.255  12.980 -0.0137  0.5769  0.1288
24170W        W39301   1.441  15.272   2.468 -0.1909  0.1618  0.0127
24171W        W39302   8.600  15.799  11.292 -0.0811 -0.5300 -0.1663
24172W        W39303   2.353  14.468   0.745 -0.1184 -0.1732  0.2334
24173W        W39304   2.252  15.449  13.845  0.1187  0.0004  0.3709
24174W        W39305   4.861  13.551  10.874  0.0542 -0.2325  0.1695
24175W        W39306  18.389  15.600   2.123  0.0740  0.3756  0.2153
24176W        W39307  15.013   3.005   2.040  0.0746  0.1255 -0.0296
24177W        W39308  16.050   7.318  14.884  0.5191 -0.1670 -0.3988
24178W        W39309   8.195   6.778   5.204 -0.1658 -0.1413 -0.0859
24179W        W39310   7.644  14.322   1.889 -0.2152 -0.0564  0.1823
24180W        W39311   4.746  16.351  12.862 -0.1811  0.2952  0.5223
24181W        W39312   0.260  10.501  13.963  0.2183  0.1514 -0.2185
24182W        W39313   9.022  15.280  10.840  0.1875  0.0293  0.0721
24183W        W39314   6.349  15.463   0.822 -0.0881  0.0967  0.4920
24184W        W39315   0.696  12.812   1.552  0.2734 -0.0784  0.2091
24185W        W39316   6.505  15.906  14.779  0.0482  0.2257  0.3196
24186W        W39317   0.301   8.336   0.054  0.2303 -0.1338 -0.0855
24187W        W39318   0.982   0.305   2.846 -0.0444  0.1428  0.0908
24188W        W39319  16.826   2.982  12.775 -0.1616 -0.2252 -0.0310
24189W        W39320  12.688  15.963   9.694 -0.0137  0.0868  0.0976
24190W        W39321  13.736   3.767  15.537  0.3319  0.2034 -0.0371
24191W        W39322  18.347  12.463  12.191  0.0355  0.2626 -0.2015
24192W        W39323   9.328  12.782   4.170 -0.1262 -0.2361 -0.0992
24193W        W39324   6.735  17.905   2.737 -0.1245  0.1018 -0.0541
24194W        W39325   3.840   0.764  11.367 -0.1645 -0.2894  0.1378
24195W        W39326   5.946   5.821  15.229  0.0651 -0.0935  0.0406
24196W        W39327  10.529   4.979  14.471 -0.4264 -0.0325  0.2202
24197W        W39328   0.572   7.617   5.530  0.0554 -0.0148 -0.1204
24198W        W39329   3.566  18.340   3.084  0.2105 -0.0270  0.0515
24199W        W39330   5.941   5.423  14.487  0.0333 -0.0784  0.1455
24200W        W39331   5.252   0.213   4.880  0.0576  0.0083  0.0541
24201W        W39332  17.362  16.438   1.743  0.0167  0.0938  0.0560
24202W        W39333   8.225   3.209  14.988 -0.0553  0.0362 -0.1613
24203W        W39334   6.760   0.038   4.528  0.1433 -0.1454 -0.0122
24204W        W39335  15.349  11.487   4.658  0.1469  0.0339 -0.0572
24205W        W39336  11.584   9.213  12.818 -0.0968 -0.0582  0.3239
24206W        W39337   6.453  13.399   3.423  0.0102 -0.0778 -0.3261
24207W        W39338  11.617   4.742   3.291 -0.1394  0.1336  0.2967
24208W        W39339   4.813  12.201  12.221  0.1361  0.2644 -0.5092
24209W        W39340   0.995  10.217   5.802 -0.1588  0.0004  0.2683
24210W        W39341   0.845  11.387   1.118 -0.0699  0.0549  0.1658
24211W        W39342   9.965   4.857  15.226  0.3036 -0.0744 -0.1412
24212W        W39343  12.058  17.686  10.973  0.0813  0.2888 -0.0804
24213W        W39344  10.763  11.447  14.250  0.0661 -0.0632  0.0060
24214W        W39345  14.568   8.102   0.645 -0.0296  0.0582  0.2484
24215W        W39346   6.740   4.394   5.650  0.0448 -0.0451  0.0007
24216W        W39347   1.927  12.245  14.641 -0.0725  0.0721 -0.0460
24217W        W39348   6.574   9.953   0.945  0.1066 -0.0961  0.0305
24218W        W39349  17.512  16.294  10.014  0.1258 -0.1376 -0.1488
24219W        W39350  14.898  12.786  11.395 -0.4436 -0.3170  0.0425
24220W        W39351   8.395   4.986  13.165 -0.3287  0.1182  0.0347
24221W        W39352   6.329  12.558  12.325  0.1211  0.0622 -0.1069
24222W        W39353   5.783   6.744  12.874 -0.0258 -0.2841 -0.1650
24223W        W39354  11.359  11.761   0.459 -0.3459 -0.0651  0.0813
24224W        W39355   9.105   8.972   2.914 -0.4092 -0.1246  0.3306
24225W        W39356   5.209   4.275  10.332 -0.4272 -0.2422 -0.1982
24226W        W39357  13.256   2.164   0.471  0.0965 -0.3390 -0.0248
24227W        W39358   2.919  11.881   4.391  0.0917  0.2421 -0.4889
24228W        W39359   3.538  11.566   0.169  0.1314  0.1658 -0.1992
24229W        W39360  16.111   1.582   2.198  0.2294  0.2381  0.0303
24230W        W39361   1.203   8.324   3.025  0.2450 -0.1912  0.4125
24231W        W39362  17.381  15.901   5.234 -0.2229 -0.2622  0.1633
24232W        W39363  10.854  11.776  14.620 -0.2117 -0.0101  0.3628
24233W        W39364  11.534  15.159  15.168 -0.0157 -0.0563  0.0995
24234W        W39365   0.873  16.918   1.129 -0.1952  0.0278 -0.0027
24235W        W39366   3.945  12.613   3.987 -0.0126 -0.1775 -0.0594
24236W        W39367   8.292   6.479   4.816 -0.0311 -0.0037  0.0574
24237W        W39368  16.858   5.129  13.108  0.3965  0.2033 -0.2385
24238W        W39369  13.294  16.323  11.307  0.3733 -0.1235 -0.1093
24239W        W39370   7.312  12.998   0.135 -0.0557  0.0055  0.1718
24240W        W39371   2.294   9.700   3.126  0.0423 -0.0521  0.0295
24241W        W39372  16.424   2.863   2.065 -0.0372 -0.1168 -0.2290
24242W        W39373   1.421   0.213   3.148  0.1412 -0.0895 -0.1157
24243W        W39374   7.583   5.183   4.049  0.0015  0.0337 -0.0211
24244W        W39375  11.273  15.920  10.960  0.0914  0.1735 -0.1011
24245W        W39376  13.139   4.798   0.022  0.1495 -0.0805 -0.0775
24246W        W39377  15.787  17.160  14.962  0.0446  0.1438 -0.1172
24247W        W39378   4.856  13.661  12.215  0.0535  0.5332  0.2636
24248W        W39379   0.168  12.411   3.461 -0.0632  0.0426 -0.1821
24249W        W39380  10.652  17.286  14.708  0.0023 -0.0262 -0.4305
24250W        W39381  17.385  16.472   4.985  0.1264 -0.0261  0.5055
24251W        W39382   2.145  15.592  13.372  0.1338  0.0337 -0.0653
24252W        W39383  17.203   6.707  12.859  0.0999  0.0674  0.1887
24253W        W39384  11.481   3.796   4.298 -0.0719 -0.2100 -0.0442
24254W        W39385  14.607  18.102  12.701  0.2428  0.1701  0.1004
24255W        W39386   4.933   1.727   3.829  0.0185 -0.0773  0.1675
24256W        W39387   2.982  15.785   0.485 -0.4531  0.2763 -0.0473
24257W        W39388   8.233  13.647  14.514  0.0534  0.2891  0.0043
24258W        W39389  13.753  18.213  12.102  0.1544  0.1947  0.2133
24259W        W39390   4.894   8.370  15.648  0.0230  0.0568 -0.0346
24260W        W39391  14.190  12.461  14.288  0.0759 -0.0473 -0.2129
24261W        W39392   4.051   9.476   3.115 -0.1414 -0.1703 -0.3485
24262W        W39393  18.134   6.144  15.360  0.0189 -0.1450 -0.0233
24263W        W39394   5.679  11.644   2.332 -0.1606 -0.2848 -0.1777
24264W        W39395  15.432  17.767   2.395 -0.1032 -0.1294  0.0834
24265W        W39396  16.690   0.471   1.639  0.1882  0.2679  0.0003
24266W        W39397   0.765   1.860  13.703  0.0429  0.1874  0.0664
24267W        W39398  16.244  14.921  11.993  0.2232  0.2050  0.2276
24268W        W39399  16.642  10.783  15.078  0.0694 -0.1818 -0.1234
24269W        W39400  15.599  14.264  15.805  0.0824 -0.1056 -0.0423
24270W        W39401  12.009   5.194  13.361 -0.2864  0.0234 -0.0253
24271W        W39402  12.320  18.006   0.055 -0.2299 -0.1099  0.2448
24272W        W39403   7.856   9.609   4.804  0.1225 -0.0286  0.0843
24273W        W39404  17.759   6.805   1.579 -0.3962 -0.1557  0.0995
24274W        W39405   1.961  11.804   1.830  0.3473  0.3893 -0.1937
24275W        W39406   4.906   7.254   3.611  0.0738 -0.0233 -0.0744
24276W        W39407  11.436   8.216  15.526 -0.4126  0.1721  0.3775
24277W        W39408   4.339   1.057   4.349 -0.2310 -0.2195  0.1437
24278W        W39409  15.758   2.392   1.762 -0.2492  0.0848 -0.0772
24279W        W39410   0.493  13.698   2.627 -0.1877 -0.3536 -0.1216
24280W        W39411   9.257  12.031  13.437  0.0429  0.1092  0.1194
24281W        W39412  11.958   9.123  14.310 -0.4741 -0.0174  0.0777
24282W        W39413   9.432   0.993   2.431  0.0603  0.3691  0.0835
24283W        W39414   5.006   4.000   2.498  0.1543  0.3035  0.0501
24284W        W39415   5.927   4.309   0.886 -0.3711 -0.0384  0.1223
24285W        W39416  14.584  10.392  11.328 -0.3123  0.1956 -0.1057
24286W        W39417   5.689   4.628  10.043 -0.0460  0.0977  0.1704
24287W        W39418   8.692   5.688   3.975  0.3614  0.2470  0.1129
24288W        W39419   0.166  16.197  15.722 -0.0885  0.1750 -0.1987
24289W        W39420  15.950   2.222   2.660  0.1485  0.3414 -0.0797
24290W        W39421  13.001   2.098   3.974  0.0912 -0.1788  0.1155
24291W        W39422  12.772  10.063   0.915  0.0567  0.0080 -0.1199
24292W        W39423  17.320  12.546  11.344  0.2504 -0.1149  0.1692
24293W        W39424  10.555   1.414  14.367 -0.1150  0.0578 -0.0695
24294W        W39425   2.587   7.698  14.406  0.1061 -0.1139  0.1468
24295W        W39426   8.601   0.474  11.888  0.3177  0.0463 -0.0229
24296W        W39427   2.956  16.589   3.561  0.2418  0.1411  0.0845
24297W        W39428  11.492  18.330  13.439 -0.0103  0.1315  0.0398
24298W        W39429  11.801  11.990   1.526  0.0746 -0.0982  0.1674
24299W        W39430  11.774   3.124   2.762  0.3403 -0.2348 -0.1728
24300W        W39431  14.581   7.203  14.938  0.1258 -0.1526  0.4261
24301W        W39432   6.353   4.783   2.567  0.0338 -0.3634  0.1034
24302W        W39433  18.461   7.744  13.122 -0.1227  0.1779  0.2389
24303W        W39434  13.185   1.442   2.868  0.1141 -0.0292  0.0879
24304W        W39435  13.646   7.222  13.663 -0.0224  0.1251  0.0802
24305W        W39436  13.852   4.122  14.860  0.0790  0.0156 -0.0104
24306W        W39437   0.836   9.059  11.364  0.1546 -0.0857 -0.0336
24307W        W39438   3.730  14.411  11.306 -0.3891  0.0297 -0.0746
24308W        W39439  15.547  11.549   4.223 -0.0513 -0.1166 -0.1251
24309W        W39440   3.466  11.943   2.422  0.2101  0.0973 -0.1198
24310W        W39441  18.470  12.209  13.572  0.0644  0.0883  0.2106
24311W        W39442  11.279   4.921  14.944  0.1181  0.2356  0.0244
24312W        W39443  13.691   2.971  14.242 -0.2420  0.1920  0.0870
24313W        W39444   2.964   5.896   5.296  0.0683 -0.2817  0.1140
24314W        W39445   2.888   9.910   0.840 -0.0887 -0.0965 -0.0497
24315W        W39446  17.037  10.410   1.883 -0.0999  0.0321  0.3112
24316W        W39447   1.199  18.230  11.215 -0.2512  0.1102 -0.0258
24317W        W39448   2.957  10.760   1.868  0.1518  0.0522  0.1784
24318W        W39449   0.267  18.008  15.194 -0.1965  0.3797  0.0584
24319W        W39450   9.919   6.280  13.413  0.0341 -0.1973 -0.0064
24320W        W39451  16.203   7.668  11.212  0.0668  0.2799 -0.3367
24321W        W39452   5.270   2.805   2.026 -0.0457  0.1031 -0.3188
24322W        W39453  12.291   6.272  11.701  0.0453  0.0580  0.2070
24323W        W39454   2.464   2.293   5.090  0.0676  0.2674  0.1895
24324W        W39455   1.853   6.681  12.635  0.2347  0.0203  0.2225
24325W        W39456  11.115  11.089  13.498  0.0718  0.0738 -0.2629
24326W        W39457   3.409  16.819  12.245  0.1438 -0.0139  0.2432
24327W        W39458   5.574   7.630  10.345  0.1055  0.0965 -0.0018
24328W        W39459   9.902   4.023  11.902  0.2754 -0.0322  0.1476
24329W        W39460  14.428  12.383   1.862  0.1123  0.2118 -0.3131
24330W        W39461   4.311  15.337   0.763  0.1225  0.1546 -0.1819
24331W        W39462  11.965  17.848  15.591 -0.1268 -0.2368  0.0666
24332W        W39463   9.418  15.837   2.259 -0.1382 -0.0230  0.0102
24333W        W39464   5.121   0.284  10.866  0.3051 -0.0623  0.2200
24334W        W39465  11.688  12.270  14.786  0.3984  0.0096  0.0902
24335W        W39466   6.798  16.792  13.867  0.1769 -0.0296  0.5325
24336W        W39467  16.790  16.087  12.838  0.1048 -0.0697  0.1209
24337W        W39468  17.005   1.768   4.077 -0.0625 -0.2170 -0.0221
24338W        W39469  15.136   2.180  15.710  0.0745 -0.1363 -0.2799
24339W        W39470  12.674  16.110  12.914  0.1844 -0.0487  0.4732
24340W        W39471  16.473  14.500   6.247  0.0163  0.0859 -0.1549
24341W        W39472   8.850   5.809  12.287 -0.0400 -0.0111  0.0923
24342W        W39473   8.724   8.381   1.632 -0.0346 -0.0213 -0.1399
24343W        W39474   8.216   2.399   0.013 -0.2079 -0.0582  0.0585
24344W        W39475  10.046   8.740   4.026 -0.1187 -0.1331 -0.0232
24345W        W39476  13.180   5.276   2.491  0.3631 -0.3744 -0.2094
24346W        W39477   2.944   5.416   2.793 -0.1189  0.2851  0.0402
24347W        W39478   5.261  16.357  12.979  0.2456  0.2332  0.3614
24348W        W39479   4.199   2.563   5.152 -0.1754 -0.1408 -0.0675
24349W        W39480   3.057   8.829  13.129 -0.0136  0.1606  0.0580
24350W        W39481   7.183   4.671   4.748 -0.0645 -0.2009  0.0170
24351W        W39482  15.348  12.523   1.063  0.1418 -0.1718 -0.3642
24352W        W39483  13.424   6.318   2.765  0.0417 -0.1058 -0.1081
24353W        W39484   3.594  12.933  11.853 -0.2024  0.0693  0.1890
24354W        W39485  12.271  18.483  11.302  0.0972  0.1978 -0.2879
24355W        W39486   0.231   1.648  12.936 -0.0814  0.0506  0.1769
24356W        W39487   8.897  12.072  15.579 -0.0160  0.0956 -0.0006
24357W        W39488  15.802   5.229   5.304 -0.0843 -0.1649 -0.1678
24358W        W39489   0.577  16.209   1.668  0.0504  0.2109  0.2139
24359W        W39490   1.802   5.624  12.100  0.0465  0.0706 -0.0647
24360W        W39491   9.996  14.518  10.301  0.1588  0.1606  0.0346
24361W        W39492   9.985  15.476  12.268 -0.2273 -0.1636 -0.1691
24362W        W39493  12.106  10.259  11.740 -0.4411  0.1693 -0.0851
24363W        W39494   7.670  16.324  15.366  0.2054 -0.0116  0.0264
24364W        W39495   0.633   1.085  13.043 -0.5700  0.0448  0.1446
24365W        W39496  16.210   9.908   1.415  0.3637 -0.2572 -0.2605
24366W        W39497  15.840   9.993   2.187 -0.1536  0.4827 -0.1223
24367W        W39498  14.841   7.725   3.429  0.1219 -0.1608 -0.0408
24368W        W39499  10.077   2.739   4.146  0.0346 -0.0037 -0.1907
24369W        W39500   0.182  11.693   1.577 -0.0656 -0.1604 -0.0591
24370W        W39501  11.818   5.820  13.141 -0.1349 -0.0861 -0.0940
24371W        W39502   7.343   7.213   3.734 -0.1427  0.2962  0.5068
24372W        W39503   4.511   8.799  13.317 -0.1474  0.0050  0.1713
24373W        W39504   3.883  14.655  15.343 -0.4784  0.1530 -0.2413
24374W        W39505  17.375  14.442  15.536  0.1665  0.1147 -0.0234
24375W        W39506  12.232   3.798  12.537 -0.1848 -0.3327  0.1565
24376W        W39507  12.379  15.971  13.313 -0.1693 -0.1304 -0.3039
24377W        W39508  12.150   6.767  13.186  0.1106  0.0710  0.1234
24378W        W39509  16.081   9.009   4.786  0.1325 -0.1019 -0.3626
24379W        W39510  16.431  16.676   4.141 -0.0620  0.0642 -0.1109
24380W        W39511   1.657  16.645  13.770  0.1631  0.0275  0.2631
24381W        W39512   4.369  10.557   0.239 -0.1273  0.4631  0.0735
24382W        W39513   7.735  13.370  12.144 -0.2468  0.2959 -0.0138
24383W        W39514  17.407   7.588   1.033  0.3997  0.1620 -0.3061
24384W        W39515  11.294   4.247  11.050 -0.2121 -0.1603 -0.2084
24385W        W39516   0.257  18.201  11.633  0.0937 -0.1134 -0.0582
24386W        W39517   4.975  11.854  12.983  0.0967 -0.1208  0.0442
24387W        W39518  12.871  18.312  11.152 -0.2043  0.1366 -0.0545
24388W        W39519  12.610  15.474   3.740 -0.0259  0.0635 -0.1761
24389W        W39520  12.479  16.742  11.774 -0.0786 -0.3005  0.1571
24390W        W39521   7.904   9.627   3.213  0.3166 -0.0583  0.0913
24391W        W39522  15.214   8.027  14.487 -0.0371  0.1464 -0.0030
24392W        W39523   3.662   4.519   2.040 -0.0573 -0.0027 -0.0734
24393W        W39524  17.373   3.315  14.078 -0.2298 -0.2527 -0.0501
24394W        W39525   4.654   0.901  13.690  0.1020  0.0135 -0.1184
24395W        W39526   7.663   6.648   0.194  0.1248  0.1320 -0.0169
24396W        W39527  17.471  17.654   1.535 -0.0245 -0.0555 -0.3070
24397W        W39528  15.639   5.982   2.961 -0.3350  0.0626 -0.0838
24398W        W39529  11.394  18.320  10.392 -0.0705 -0.2313 -0.3758
24399W        W39530   3.982   0.496  14.202 -0.2243 -0.1254  0.2649
24400W        W39531  12.880   2.514  15.318 -0.0004  0.0105 -0.0640
24401W        W39532  16.890   4.878   1.510  0.0579 -0.3448 -0.1741
24402W        W39533   2.121   5.267   3.485 -0.1518 -0.1114 -0.1279
24403W        W39534  16.763   4.734  14.960 -0.4661 -0.1222 -0.3346
24404W        W39535   0.070   5.450  10.819 -0.0530 -0.1362  0.5500
24405W        W39536  15.606  13.908   1.234 -0.3975 -0.3876 -0.1077
24406W        W39537   9.818   2.077  14.909 -0.0566  0.1660  0.1250
24407W        W39538   7.640  18.098   4.662 -0.2208  0.3386 -0.4115
24408W        W39539   9.966   2.996   1.827  0.1954 -0.2967  0.1341
24409W        W39540   1.093  17.629  12.655  0.1145 -0.1220 -0.0227
24410W        W39541  15.084   8.370  15.372 -0.1591 -0.2948 -0.2640
24411W        W39542   4.033  15.043   9.882  0.1983  0.0371 -0.1942
24412W        W39543   9.373  10.866  13.966  0.1252  0.1895  0.3350
24413W        W39544   1.813  10.427   3.574  0.0509 -0.2229  0.2134
24414W        W39545  15.046   6.910   4.081 -0.1374  0.0558  0.0746
24415W        W39546   6.339  17.451  12.189  0.0197 -0.0559  0.0951
24416W        W39547  18.521   6.352   3.136  0.1319  0.1389 -0.1872
24417W        W39548  13.223   1.665  12.462 -0.0606 -0.2365 -0.3335
24418W        W39549  14.635   2.701  12.628  0.0573  0.1458 -0.0503
24419W        W39550  13.139  15.424   3.757 -0.1192  0.2342  0.1540
24420W        W39551  15.903   6.179   3.961  0.5159  0.0297  0.0379
24421W        W39552   0.576   7.161   4.842 -0.2625  0.0516 -0.3553
24422W        W39553   8.636  10.715   3.624  0.0942 -0.1607 -0.0121
24423W        W39554   3.707  15.291  10.866  0.1878 -0.0965  0.0250
24424W        W39555   5.076  13.860  15.102  0.0746 -0.2433 -0.0870
24425W        W39556   1.192  12.382   1.627 -0.0290  0.2109  0.0015
24426W        W39557  11.340  16.861   2.816 -0.0822 -0.1681 -0.1341
24427W        W39558   8.720   5.059   3.304  0.0563  0.0367 -0.2816
24428W        W39559  13.696  15.352  13.801 -0.0054 -0.3518 -0.1919
24429W        W39560  11.741   1.247   2.341  0.1172  0.0810  0.1992
24430W        W39561  13.127  15.521  11.170  0.1832  0.4142  0.0703
24431W        W39562  18.059   1.505  11.170 -0.0449 -0.2912 -0.1250
24432W        W39563   5.553  13.466  13.313 -0.2637  0.2201 -0.0933
24433W        W39564   0.489   9.620   1.626  0.1553  0.3019 -0.0676
24434W        W39565   4.062  12.620  15.131  0.0066  0.1267 -0.1040
24435W        W39566  11.723   0.497   5.689  0.2140 -0.0062  0.2049
24436W        W39567  15.645  17.890  14.968  0.1064  0.2161 -0.2300
24437W        W39568   9.790  15.412  13.788  0.1064 -0.1463 -0.1000
24438W        W39569   4.050  13.140  15.102 -0.1118 -0.3250 -0.2566
24439W        W39570   7.299   5.616  14.510  0.0154  0.1326 -0.0728
24440W        W39571   7.061  12.148   2.579 -0.3477  0.0010 -0.0293
24441W        W39572  11.991  15.579  13.792 -0.0801  0.0385  0.0739
24442W        W39573   3.621   0.304   2.785 -0.2408 -0.1057  0.2115
24443W        W39574  11.932   7.563   1.953  0.2015 -0.0615 -0.2169
24444W        W39575   0.618   8.100  11.613  0.0244  0.1991  0.2174
24445W        W39576   1.623  17.042   0.544  0.0869 -0.3431 -0.0937
24446W        W39577   0.117  13.320  10.750 -0.0226 -0.1625 -0.4909
24447W        W39578  18.073  17.711   5.388 -0.3797 -0.0387  0.0159
24448W        W39579  12.252   5.356   5.558  0.1263 -0.2441  0.1704
24449W        W39580   8.515  14.426  12.675 -0.4985 -0.2666 -0.0405
24450W        W39581   5.112  16.985  14.872 -0.0684 -0.3169  0.3277
24451W        W39582   3.071  10.891  14.040  0.2629 -0.0934 -0.3518
24452W        W39583   3.917   6.717  15.433  0.0270 -0.2366  0.0773
24453W        W39584   0.951   2.692   3.708  0.0771  0.2109  0.0457
24454W        W39585   6.296   8.383  11.933 -0.1103  0.0161 -0.0913
24455W        W39586   5.158  13.080   3.550  0.2351  0.2124  0.0063
24456W        W39587   1.198   5.426   3.477  0.1238  0.0818  0.1178
24457W        W39588   8.710   3.154  14.986  0.1866 -0.0579 -0.1042
24458W        W39589   6.403   7.052   3.792  0.0963 -0.2832 -0.2098
24459W        W39590   6.049  17.857   2.730  0.0022 -0.3357  0.0112
24460W        W39591   7.403  17.403   2.587 -0.0183  0.1206  0.0229
24461W        W39592  12.127  14.431  15.198  0.1871 -0.0600 -0.0651
24462W        W39593  16.862  13.478  12.846 -0.1167  0.3047  0.0900
24463W        W39594  14.240   1.414  14.552  0.1619  0.1150 -0.0675
24464W        W39595   1.122  12.467  13.527 -0.3349  0.0610 -0.0496
24465W        W39596   2.747   3.334   2.122 -0.1816  0.0838  0.2156
24466W        W39597  18.345  14.490   3.784  0.1359 -0.2468 -0.0473
24467W        W39598   7.170   7.218   4.902 -0.1969  0.0554 -0.0386
24468W        W39599   9.005   6.483  11.841  0.1805 -0.2316  0.0174
24469W        W39600  17.293  17.679  11.799 -0.2246  0.2332 -0.0745
24470W        W39601  10.629  14.652  13.091 -0.0326 -0.1489  0.1324
24471W        W39602   9.201   2.704   5.519 -0.1309  0.1793  0.2327
24472W        W39603   5.364  11.956  14.882  0.2510 -0.0353  0.0023
24473W        W39604  17.536   8.414   0.976  0.1383 -0.2178  0.4523
24474W        W39605   7.496   2.425   5.006 -0.0059  0.2665 -0.3473
24475W        W39606  13.641   0.753  11.209 -0.1421 -0.3526 -0.1889
24476W        W39607  10.963   1.265   4.658 -0.0377  0.2217 -0.1549
24477W        W39608  10.585  18.133  14.527  0.2580 -0.2872  0.1807
24478W        W39609   8.493   8.753  14.013 -0.3783 -0.0967 -0.0756
24479W        W39610   7.866  11.424   4.408 -0.3635  0.1769 -0.1423
24480W        W39611  13.250   2.258  15.479  0.1167  0.1330 -0.1123
24481W        W39612  15.074  17.130  12.278  0.1036 -0.1187 -0.0948
24482W        W39613   1.919   7.146  11.600  0.2848 -0.0362  0.0016
24483W        W39614  11.456  18.148  11.629  0.3995 -0.1892  0.1749
24484W        W39615   6.581   1.399   1.739  0.2935 -0.2216 -0.2417
24485W        W39616   4.976   4.532   1.059  0.0825  0.2556  0.0963
24486W        W39617   6.379  16.866  14.808 -0.2835  0.0513 -0.1534
24487W        W39618   4.107   3.142   5.095 -0.1063  0.1672  0.1215
24488W        W39619   3.371  11.978   4.918 -0.1048 -0.3145 -0.0579
24489W        W39620   8.193   5.067   3.310 -0.1619 -0.0070 -0.1955
24490W        W39621  14.288   1.044   0.544 -0.1954  0.1666 -0.2050
24491W        W39622  15.238   7.541   4.290  0.3042 -0.2277  0.0266
24492W        W39623  18.053   8.418  12.855  0.1208  0.2959  0.0616
24493W        W39624  12.969  11.753  12.798 -0.0446  0.0416  0.0598
24494W        W39625   9.751  15.386   2.318 -0.0902 -0.1091 -0.1916
24495W        W39626   8.385   5.882   4.326 -0.4758  0.1338  0.2095
24496W        W39627  15.203  12.704   2.510 -0.0263 -0.2110 -0.0033
24497W        W39628   3.182  10.618   0.720  0.0084  0.0432  0.4409
24498W        W39629  11.506  10.016  13.316  0.2819  0.1682 -0.3032
24499W        W39630   6.359  11.796   3.139 -0.1452 -0.1779  0.0461
24500W        W39631   0.652  15.378   5.040  0.0375  0.4177  0.1283
24501W        W39632   2.865   2.582   9.691 -0.0786 -0.0630  0.0515
24502W        W39633   2.970   1.400  12.985  0.2591 -0.3711 -0.2011
24503W        W39634  17.359  12.005   4.254 -0.2736  0.0398  0.3603
24504W        W39635   9.400   2.549   1.137  0.1056 -0.0649 -0.2262
24505W        W39636  15.547  14.709   2.523 -0.2892 -0.1201  0.1668
24506W        W39637  14.413  11.162   2.417 -0.0052  0.0120 -0.0338
24507W        W39638  10.307  16.348   0.869  0.0462 -0.1147  0.2279
24508W        W39639   6.487   6.551  15.095  0.3467  0.1445 -0.0197
24509W        W39640  12.419  12.941   3.494  0.0657 -0.1285  0.0979
24510W        W39641   4.256  12.550  14.279  0.0306  0.3252 -0.1916
24511W        W39642   5.534   4.841  11.405  0.0255  0.0916  0.0143
24512W        W39643  11.430   4.876  15.797 -0.0175  0.0771  0.2183
24513W        W39644   3.577  17.931   1.918 -0.2494  0.2638 -0.0861
24514W        W39645  14.084   8.043  14.753 -0.0594  0.3399 -0.0434
24515W        W39646  18.193   0.942  15.591 -0.0403  0.5169 -0.1631
24516W        W39647  15.829   0.480   6.140  0.1081  0.0570  0.0907
24517W        W39648   8.011  15.630  10.696  0.1708 -0.0518 -0.0977
24518W        W39649   1.021  17.992   3.379 -0.0537  0.0972 -0.0280
24519W        W39650   5.814  15.108  13.144 -0.0978  0.1525 -0.2709
24520W        W39651  16.680  15.356  14.633 -0.2482 -0.1317 -0.4444
24521W        W39652   3.075  15.559  13.842 -0.2224 -0.2339  0.0348
24522W        W39653  15.056  17.234   3.737 -0.3082  0.2306 -0.1098
24523W        W39654   9.426  10.186  12.773  0.1083  0.0283 -0.0319
24524W        W39655   0.132  12.729  12.505  0.2578 -0.0784 -0.1451
24525W        W39656   7.677   3.834   2.009 -0.0880 -0.2805 -0.1256
24526W        W39657   0.471  14.166   4.345  0.0972 -0.3449  0.0093
24527W        W39658  12.503   9.680   1.318 -0.1831 -0.0304  0.0825
24528W        W39659  18.008   4.398  11.909  0.0126 -0.0426  0.0710
24529W        W39660   5.405  15.956   4.079 -0.4086  0.0781  0.0119
24530W        W39661  10.557   9.010  14.823  0.0905  0.0692 -0.4644
24531W        W39662   0.896  16.233   3.197  0.3947  0.2122  0.2664
24532W        W39663   6.793   5.387   1.825 -0.0640  0.0256 -0.2573
24533W        W39664  16.608   6.346  14.333  0.4240  0.3354  0.2027
24534W        W39665   0.991   3.322   3.072 -0.0889 -0.5498  0.1836
24535W        W39666  15.355  10.840   3.202 -0.1513  0.3153 -0.0268
24536W        W39667  14.935  16.349  15.104 -0.3499  0.3135 -0.0631
24537W        W39668  11.773  18.321   3.514 -0.0718  0.1226  0.0292
24538W        W39669  15.309   7.441   2.800 -0.1572  0.1069  0.1186
24539W        W39670   7.670  11.082   6.216 -0.1575 -0.3599  0.0963
24540W        W39671  13.896  17.801   4.250  0.0319 -0.0243 -0.1585
24541W        W39672   1.445   9.026  11.310 -0.1209 -0.1514  0.4974
24542W        W39673   0.277  18.395  12.094  0.1978  0.1303  0.1026
24543W        W39674   5.871  15.477  11.630 -0.2665  0.0121  0.0806
24544W        W39675   1.093  17.982   4.803 -0.0474  0.1402 -0.1985
24545W        W39676  11.487   0.186   3.553 -0.0621  0.2769 -0.2121
24546W        W39677  16.246  16.156  11.459 -0.2091 -0.2005  0.2463
24547W        W39678  11.732   9.370   2.322 -0.2308  0.1661  0.1641
24548W        W39679  13.836   4.205   1.493  0.0486 -0.0268  0.1371
24549W        W39680   5.702   0.652  14.710 -0.2346  0.2664 -0.0496
24550W        W39681  16.015  17.998   5.878 -0.1138 -0.1860 -0.0650
24551W        W39682   0.446  12.662  14.736 -0.0382  0.1750  0.0281
24552W        W39683  14.656   2.292  11.622  0.1040  0.0092  0.1366
24553W        W39684  13.208   0.422  15.402 -0.1327 -0.2591 -0.1673
24554W        W39685   6.888   6.964   4.002  0.4656  0.1667 -0.0986
24555W        W39686  14.711   9.810  12.081 -0.2130 -0.0052  0.1316
24556W        W39687   5.550  12.240   2.370 -0.2242  0.1131  0.2348
24557W        W39688  18.286  15.892   0.139 -0.1069  0.1457  0.1209
24558W        W39689  11.267  15.036  14.316 -0.0086 -0.2808  0.1428
24559W        W39690   1.406  14.852   0.309  0.2936  0.0633 -0.0673
24560W        W39691   7.846  14.206  15.588  0.0792  0.2643  0.0654
24561W        W39692  16.120  14.172  15.655  0.2086  0.1434 -0.2257
24562W        W39693  14.483  14.236   4.899 -0.2393 -0.1123  0.0946
24563W        W39694   3.704   6.334   0.538  0.1421  0.4115 -0.0539
24564W        W39695  17.736   3.713   2.079 -0.0954  0.4935 -0.1464
24565W        W39696  10.105  10.702  12.784  0.2208 -0.1919 -0.0728
24566W        W39697  16.241   4.751  11.956 -0.1031 -0.0797  0.0493
24567W        W39698   8.795   6.739   0.341 -0.1772  0.0400 -0.1102
24568W        W39699   5.222   7.894   1.274  0.0964 -0.3153 -0.1210
24569W        W39700   8.189  13.096  13.171 -0.2210  0.1711  0.0592
24570W        W39701  10.497  16.281  10.230 -0.0148 -0.3180 -0.0314
24571W        W39702  16.158  16.323  12.064  0.1885  0.0015  0.0858
24572W        W39703  14.746  13.840  12.443 -0.1429 -0.2175 -0.0916
24573W        W39704   9.177   9.043   4.437 -0.0343 -0.1141  0.0534
24574W        W39705  13.856  12.270  10.321 -0.0039 -0.0327 -0.1415
24575W        W39706  14.940  11.766  12.494 -0.1727  0.1966  0.0078
24576W        W39707   3.614  17.591   3.938  0.0679 -0.1479  0.2030
24577W        W39708  15.198  17.315  13.201 -0.1188 -0.0404 -0.1586
24578W        W39709  13.645   9.347   4.452  0.1804  0.0844 -0.0249
24579W        W39710  17.109   5.444   3.985  0.0839 -0.1470 -0.0652
24580W        W39711   7.245   7.932  12.008  0.1545  0.0018 -0.1902
24581W        W39712   6.225   1.064  11.070  0.0667 -0.0855 -0.3079
24582W        W39713  18.495  16.042  10.481  0.0507 -0.2094 -0.0859
24583W        W39714  11.759   3.105   5.602  0.0081  0.3458  0.1012
24584W        W39715   9.485  17.772  12.350 -0.0919 -0.2063  0.0578
24585W        W39716  15.574   4.953  11.050  0.1985  0.4774  0.1987
24586W        W39717  13.817   0.385   1.444 -0.1522  0.0548 -0.3893
24587W        W39718  11.627   6.767  14.126 -0.1443 -0.1185 -0.0301
24588W        W39719  18.086   7.542   2.841  0.0903 -0.0241  0.0974
24589W        W39720  12.185   8.992   0.410 -0.2297 -0.1415 -0.2779
24590W        W39721   7.132   7.714  11.015 -0.1302 -0.4891 -0.2510
24591W        W39722   5.837  11.429  14.567 -0.0277  0.2710  0.1133
24592W        W39723   6.541   2.345  13.041 -0.2792  0.1149  0.2745
24593W        W39724  12.331  17.240  11.117 -0.0803 -0.0231 -0.1629
24594W        W39725  16.388  13.205  14.221  0.2079  0.3563 -0.0785
24595W        W39726   9.781  11.930   5.282 -0.1915 -0.2036 -0.1842
24596W        W39727   6.014   1.692   5.309  0.1581 -0.0942  0.1415
24597W        W39728   6.145  14.739  13.397  0.0039  0.0013 -0.0301
24598W        W39729  12.143  16.315  15.746  0.3456 -0.1135  0.0896
24599W        W39730   1.471   5.844  11.780  0.0209  0.2569 -0.0965
24600W        W39731  11.962   2.720   5.229 -0.1950  0.0473  0.0599
24601W        W39732  18.493   3.532  12.058  0.1628  0.1224  0.1368
24602W        W39733  10.390   2.622   0.332 -0.0179 -0.2072  0.0671
24603W        W39734   7.935   4.486   3.523 -0.1064  0.3089  0.1655
24604W        W39735  17.112  15.585  12.899  0.0470  0.1830 -0.2672
24605W        W39736   1.364   4.360   2.431 -0.0144  0.2059  0.2245
24606W        W39737   5.564  13.136  12.896 -0.5310  0.0928 -0.2054
24607W        W39738   3.941  12.177   4.247 -0.1472 -0.1146 -0.0452
24608W        W39739   2.141   8.196   4.449  0.0732  0.0270  0.0631
24609W        W39740   3.998   4.760   0.421  0.3526  0.0185  0.0310
24610W        W39741   6.486   8.453  12.349 -0.3159 -0.2799  0.1720
24611W        W39742  17.166  17.258   0.525  0.0501 -0.0755 -0.0473
24612W        W39743  11.134  16.430  11.266 -0.0985  0.2134 -0.2983
24613W        W39744   6.834  14.000  11.505 -0.1873 -0.3169 -0.2169
24614W        W39745   8.831   1.183   4.499  0.0636 -0.1565  0.0261
24615W        W39746   8.078  11.233  14.444 -0.0261 -0.0433  0.0930
24616W        W39747   8.608  16.699   4.932  0.3215  0.0265  0.0954
24617W        W39748   4.780  12.915   6.110  0.1064  0.0855 -0.2138
24618W        W39749   4.754  13.325  13.472  0.1798 -0.2404  0.0019
24619W        W39750   1.045  12.449   3.923  0.3962 -0.0855 -0.0597
24620W        W39751  10.718   3.693   0.669 -0.0121 -0.1436  0.0442
24621W        W39752   1.668  17.296   3.811 -0.1970 -0.0010 -0.3817
24622W        W39753  16.944   3.846  11.513 -0.1480 -0.2038 -0.1320
24623W        W39754  17.598   6.545  14.300 -0.0496 -0.0838  0.1754
24624W        W39755   1.129   3.723  13.649  0.2793  0.0507 -0.0082
24625W        W39756   4.961  12.740  11.086  0.0026  0.0074  0.0174
24626W        W39757  10.757  15.650  15.478 -0.0062  0.0533 -0.2743
24627W        W39758  17.193  14.637   2.544 -0.0178 -0.1978 -0.0529
24628W        W39759   5.139   0.370   1.954  0.0316 -0.0947 -0.0280
24629W        W39760   3.879   1.507   0.069 -0.1662  0.0231 -0.0879
24630W        W39761   0.684   0.971  14.672  0.1147 -0.1552  0.0417
24631W        W39762   0.655   3.650  12.160 -0.1016 -0.1888  0.0490
24632W        W39763  10.992   2.212  15.069  0.0628  0.0176 -0.2535
24633W        W39764   8.604   1.302   2.423  0.0419 -0.2942 -0.1585
24634W        W39765  10.735  13.984  14.719  0.4266  0.2884  0.1041
24635W        W39766   6.341   1.645   0.098 -0.1098  0.1864  0.1103
24636W        W39767  17.865   6.764   4.809  0.0777  0.1905 -0.0967
24637W        W39768   9.744  11.695   4.119  0.0704 -0.1834 -0.1061
24638W        W39769   0.559  10.344  11.344 -0.2414 -0.0509  0.1299
24639W        W39770   9.672  12.458   0.121  0.0817 -0.0221 -0.0537
24640W        W39771  16.406  15.895   3.548  0.3032 -0.1377 -0.2159
24641W        W39772  13.694  15.242  15.192 -0.0928  0.1407 -0.2121
24642W        W39773  17.368   4.366   0.372  0.2959  0.0826 -0.0063
24643W        W39774  11.164   9.707  13.097  0.1134  0.0281 -0.2033
24644W        W39775   5.903   5.354   4.193 -0.0643  0.2036  0.0168
24645W        W39776  15.199  17.264   2.325  0.0287  0.5120  0.0042
24646W        W39777  10.906   5.024  10.446 -0.0052 -0.0712  0.2517
24647W        W39778   8.470  12.144   0.668 -0.0207  0.0990 -0.0817
24648W        W39779  10.503  18.145   1.733  0.0823  0.0051  0.0534
24649W        W39780  15.124  11.298  12.373 -0.1524 -0.0013 -0.2302
24650W        W39781  13.654  15.281  12.989 -0.1579 -0.1599 -0.0581
24651W        W39782   6.925   7.873   9.781  0.0927  0.0744  0.2448
24652W        W39783  12.189   2.659  11.200 -0.1709 -0.2288 -0.1256
24653W        W39784  14.471   0.899  10.558 -0.1518  0.1731 -0.4155
24654W        W39785  16.640  13.628  14.096  0.3204  0.2292  0.0665
24655W        W39786  12.414   4.850   0.557  0.2425 -0.0640  0.1153
24656W        W39787   5.999   3.234   3.105 -0.0565 -0.0677  0.2063
24657W        W39788  14.352   0.741   1.376  0.0712  0.1898 -0.1136
24658W        W39789  11.671   6.294   0.377  0.3958 -0.0474 -0.2129
24659W        W39790  17.022  17.538  11.251 -0.1400 -0.2239  0.0770
24660W        W39791   2.605  17.769   1.831  0.1406 -0.1771  0.2835
24661W        W39792   1.602   4.084   1.017  0.0708  0.0189 -0.4302
24662W        W39793   3.694  11.240  12.965 -0.4155 -0.0389 -0.2571
24663W        W39794  16.715   8.545   5.615 -0.0933  0.0057 -0.1052
24664W        W39795   1.423  12.175   4.180 -0.0759 -0.1890  0.1732
24665W        W39796  15.418   7.098  14.269  0.1346 -0.0280  0.0310
24666W        W39797  15.189  16.273   3.860  0.3452  0.0221 -0.0379
24667W        W39798   7.267  17.286   2.088 -0.2137 -0.2456 -0.1062
24668W        W39799   7.596   7.282   5.862  0.1130  0.3502 -0.0514
24669W        W39800   1.300   5.805   0.960 -0.1087 -0.2494 -0.3566
24670W        W39801   7.755  17.821   3.626  0.1515  0.1032  0.3945
24671W        W39802  17.014  13.516   3.090  0.3491 -0.0137 -0.3075
24672W        W39803   9.479   7.147   1.110 -0.2779 -0.3161 -0.1652
24673W        W39804  11.699  10.596   2.643  0.0935  0.2275  0.0126
24674W        W39805  10.899   4.884   5.567 -0.3363  0.2779  0.4973
24675W        W39806   0.344  17.787   6.115  0.0823  0.1920  0.1357
24676W        W39807  12.517   2.824   5.065  0.1990  0.0704 -0.1117
24677W        W39808   9.024   3.388   0.821 -0.3179 -0.0887 -0.0821
24678W        W39809   3.477  16.667   0.321 -0.1367  0.1732  0.2695
24679W        W39810   2.178  11.599   5.160  0.1428 -0.1048  0.0858
24680W        W39811  10.972  11.592  13.200  0.0929 -0.0955  0.0185
24681W        W39812  14.771   9.421   9.696  0.0401  0.2550  0.3099
24682W        W39813   3.713  10.844  12.640 -0.2836 -0.0349 -0.2113
24683W        W39814   8.298  14.030   2.061 -0.0559 -0.0557 -0.3154
24684W        W39815   3.554  11.383   4.187 -0.1533 -0.0977  0.1147
24685W        W39816   5.145   7.334  14.625  0.1558 -0.2402  0.1848
24686W        W39817   8.005  11.752   3.404 -0.1398 -0.0161  0.0062
24687W        W39818   4.414   0.877   2.336  0.2776 -0.1181  0.1607
24688W        W39819   9.771   1.625   0.008  0.0630  0.5326 -0.0234
24689W        W39820  16.103  11.408   2.666  0.2963 -0.0231 -0.1016
24690W        W39821   5.002   1.014   5.119  0.0150  0.2392  0.0320
24691W        W39822  17.803  14.725  11.283  0.0014 -0.0046 -0.0786
24692W        W39823   8.234  16.385   5.093  0.0815 -0.2191  0.2012
24693W        W39824  15.209  10.357   3.150 -0.0705  0.3668 -0.0034
24694W        W39825  14.254  10.761   5.217 -0.4104  0.0820  0.0357
24695W        W39826   4.738  17.929  10.976 -0.2177  0.1261  0.3296
24696W        W39827  16.022  15.260  11.614 -0.0476 -0.0253 -0.0496
24697W        W39828   5.042   6.819   5.047  0.0173  0.3097  0.1449
24698W        W39829  16.332  15.675  11.546 -0.0083 -0.3758 -0.2297
24699W        W39830  10.491  10.984  10.726 -0.0539 -0.2098  0.1111
24700W        W39831   1.262  10.030   5.360 -0.1045  0.0222  0.1158
24701W        W39832   8.728   4.569  13.258  0.0098 -0.0811 -0.3139
24702W        W39833  15.930  13.264   5.063 -0.1140  0.2099  0.1889
24703W        W39834   8.216  13.458   5.074 -0.1776 -0.0849  0.3678
24704W        W39835  15.304  10.965  14.779  0.2145 -0.0870  0.3298
24705W        W39836  17.477   6.269   1.022 -0.2073 -0.3365 -0.2791
24706W        W39837   0.262   8.143   2.607 -0.0020 -0.1565 -0.0372
24707W        W39838   7.922   8.144  12.935  0.1176 -0.0142  0.1047
24708W        W39839  17.870  10.365  15.175  0.2349 -0.1249  0.2958
24709W        W39840  12.331  17.083  14.518 -0.4522 -0.0553 -0.0811
24710W        W39841   2.060   2.928   1.510  0.0238 -0.2242 -0.1817
24711W        W39842  14.021  11.827  15.028  0.3449 -0.1762 -0.1007
24712W        W39843  15.246   9.270  13.076 -0.5052  0.0231 -0.0533
24713W        W39844  14.260  12.936  14.544  0.2800  0.1800 -0.0486
24714W        W39845   7.609  18.126   2.225 -0.3733 -0.0172  0.1090
24715W        W39846  17.533  13.253  15.005  0.0620  0.0121 -0.2286
24716W        W39847  16.112   2.259  13.718  0.0324  0.1307  0.2019
24717W        W39848  12.052  16.667   0.662 -0.1497 -0.2216  0.3066
24718W        W39849   4.995  11.237   5.553 -0.1409 -0.4903 -0.0433
24719W        W39850  15.778  16.394  15.158  0.0221 -0.0982 -0.1102
24720W        W39851   0.682  15.723   2.544  0.1264  0.1114 -0.1536
24721W        W39852   0.221   6.571   1.292  0.3674 -0.0737 -0.4431
24722W        W39853   0.205  12.967   2.672  0.2601  0.0954  0.0289
24723W        W39854   6.972  16.703  12.067 -0.1295  0.1153  0.1236
24724W        W39855   6.045   9.001  15.492 -0.0038 -0.1612  0.2882
24725W        W39856  16.977  11.043   0.481  0.2024 -0.1596  0.2584
24726W        W39857  16.326  15.806   4.442  0.4157  0.1446 -0.0424
24727W        W39858  11.109   9.860  12.450  0.1831 -0.2097 -0.0321
24728W        W39859   7.808   6.040  13.387  0.1491 -0.3432  0.0739
24729W        W39860  15.318  12.252  13.732  0.0714  0.1481 -0.0460
24730W        W39861   5.087   2.504   3.399  0.0097  0.1849  0.0291
24731W        W39862   9.829   7.855   2.320  0.2677 -0.2084  0.2765
24732W        W39863   5.781  17.078  12.911 -0.2670 -0.0975  0.0268
24733W        W39864   9.684  14.524   2.522  0.0652  0.1312 -0.0260
24734W        W39865   8.858  12.924   5.810 -0.2308 -0.2519 -0.1821
24735W        W39866   6.159   9.221  10.921  0.0897 -0.1535 -0.2657
24736W        W39867  16.416   7.827  11.624 -0.1366  0.0754 -0.3300
24737W        W39868  18.204   8.334   5.717 -0.1272  0.1452 -0.3487
24738W        W39869  13.111  11.952   0.360 -0.0849  0.0221  0.5971
24739W        W39870  11.746   5.597   1.548  0.0831  0.0369  0.2056
24740W        W39871   4.895   1.116  15.456 -0.0347  0.2344 -0.4906
24741W        W39872  17.198   2.553   5.907 -0.2747 -0.2777  0.0045
24742W        W39873   8.935   9.483   1.305  0.0261  0.0279  0.1356
24743W        W39874   5.464  12.770   0.933 -0.1798  0.2298  0.2038
24744W        W39875   3.615  10.287  11.442  0.3799 -0.1434 -0.2491
24745W        W39876   8.246   3.781   9.870  0.0834  0.0788 -0.2264
24746W        W39877   2.377   0.683   3.234  0.0062  0.1800  0.1054
24747W        W39878  16.598   8.658  11.877 -0.0013 -0.0718 -0.1661
24748W        W39879   5.821   9.695   2.936 -0.1093  0.0191  0.0045
24749W        W39880   0.713   6.500   1.007 -0.3377  0.3760  0.1140
24750W        W39881   7.468   3.130   4.715  0.0432  0.2508  0.1405
24751W        W39882   3.597   8.573  15.041 -0.1883  0.0788  0.2696
24752W        W39883  18.259  10.044  10.331  0.1101 -0.0083 -0.0142
24753W        W39884   9.935  16.875   4.269  0.0047  0.0169 -0.0857
24754W        W39885   3.971  14.958   2.571  0.0319  0.1711  0.2271
24755W        W39886  15.445  13.187  12.771  0.0033 -0.0933  0.6270
24756W        W39887   3.646   8.616  12.633 -0.1534 -0.3767 -0.0014
24757W        W39888   5.070   4.987  12.401 -0.0910 -0.0318 -0.0361
24758W        W39889   1.984   5.131   4.337 -0.1507 -0.0992 -0.2880
24759W        W39890  11.427   3.826  12.571 -0.0550 -0.2241 -0.2700
24760W        W39891   2.351  11.264   3.286 -0.1955 -0.1053  0.1122
24761W        W39892  10.827   7.132  12.350 -0.1746 -0.1094 -0.0539
24762W        W39893  11.261  16.293   1.689  0.0678 -0.0589 -0.1203
24763W        W39894  10.618   9.343   4.846 -0.3499  0.0929 -0.1915
24764W        W39895  16.386  15.829  14.623  0.0969  0.1130 -0.0076
24765W        W39896  11.464   5.005  10.452  0.1028  0.4784 -0.0889
24766W        W39897  12.741  18.373   2.086 -0.1335  0.3744 -0.1715
24767W        W39898  17.605   0.879  13.629 -0.1571 -0.2122 -0.2086
24768W        W39899  16.290  17.010   0.772 -0.0063  0.1468  0.1722
24769W        W39900  11.884   7.986  14.678  0.0776  0.2636 -0.1621
24770W        W39901   8.363  12.474   2.932  0.0808 -0.0825  0.0758
24771W        W39902  18.005  17.396   4.476  0.0036 -0.3272  0.0932
24772W        W39903  10.507   4.568  13.066 -0.0657 -0.0778 -0.1092
24773W        W39904   1.476   1.700   0.877 -0.0916  0.1831  0.2505
24774W        W39905  18.321  15.194  14.535  0.1383  0.3178 -0.2202
24775W        W39906  18.077  11.747  14.959  0.0947 -0.0243  0.1569
24776W        W39907   6.368  16.294  10.874 -0.4477 -0.0741  0.1794
24777W        W39908   5.315   9.002   1.606  0.2375 -0.1734 -0.3280
24778W        W39909   0.779   7.658   2.099 -0.1817  0.2250  0.2893
24779W        W39910   1.802  12.575   5.118  0.2031 -0.1073 -0.0190
24780W        W39911   2.698   5.222   4.308  0.3672 -0.1770 -0.1002
24781W        W39912   3.948   3.348  14.173 -0.0928 -0.2190  0.1995
24782W        W39913  17.769   0.640  12.769 -0.0888 -0.0819  0.0836
24783W        W39914  15.827  13.841   3.463  0.2412 -0.0776 -0.1797
24784W        W39915   7.163   0.352  14.434 -0.1192 -0.2284 -0.1534
24785W        W39916   5.413   7.552   0.383  0.1556  0.0326 -0.0150
24786W        W39917  14.004  13.247   1.340  0.1084  0.2742 -0.0868
24787W        W39918   0.464  14.450  15.677  0.2215 -0.1989 -0.1608
24788W        W39919   6.818   3.087  11.977 -0.0753 -0.2562  0.0586
24789W        W39920   6.795  18.175   1.729  0.0340  0.3311 -0.0379
24790W        W39921   7.265  16.728  11.627 -0.0983 -0.0997  0.3031
24791W        W39922   8.205  11.441   3.924 -0.0524  0.0429  0.0202
24792W        W39923  12.394   2.842  10.791  0.0674 -0.0934  0.2981
24793W        W39924   8.941  10.768  10.656 -0.3775  0.1389  0.2732
24794W        W39925   3.796   6.722   5.733  0.2468 -0.3739  0.1574
24795W        W39926   0.671  13.489  14.775 -0.3320  0.1622 -0.0853
24796W        W39927  12.655  13.746  12.515  0.0667  0.2042 -0.0133
24797W        W39928   5.048  16.939   3.209 -0.2750  0.0816  0.0187
24798W        W39929   9.578  15.224   4.524  0.0271  0.0008  0.0987
24799W        W39930   3.983   7.516  11.200  0.4891  0.0379 -0.1532
24800W        W39931   0.682   6.303   4.742 -0.1796 -0.0391 -0.2691
24801W        W39932  14.256  15.858  13.465  0.0147  0.0467 -0.1699
24802W        W39933   1.838  14.220   0.224  0.2529 -0.0836  0.1207
24803W        W39934   6.466   7.734  14.090  0.1798  0.2402 -0.1287
24804W        W39935   7.466  13.977   4.107  0.1086 -0.1570 -0.2189
24805W        W39936   5.782  12.285   3.544  0.2752  0.0827 -0.1559
24806W        W39937  10.119  16.495  14.930 -0.0651  0.0294 -0.1543
24807W        W39938   7.829  17.725  10.595 -0.0228  0.1761  0.0071
24808W        W39939  10.011   7.188   4.197  0.2308 -0.0079  0.1327
24809W        W39940  18.485   4.918   4.148 -0.1958 -0.1159  0.2390
24810W        W39941  17.217  14.142   4.268 -0.2262 -0.2275  0.3521
24811W        W39942  14.334  10.856   1.000  0.2380 -0.1464 -0.4356
24812W        W39943  16.952  11.456   1.896  0.0245  0.2520 -0.2742
24813W        W39944   9.784   2.141  14.397  0.0679  0.0450 -0.0282
24814W        W39945  10.435   7.097   3.853  0.0427 -0.2798 -0.1033
24815W        W39946   1.986  11.453   2.606  0.1816 -0.1475 -0.0501
24816W        W39947  13.954  13.203  12.647  0.0402 -0.3062  0.2700
24817W        W39948   5.035  16.823  13.090  0.1614  0.1291  0.1585
24818W        W39949   7.336  16.905   2.857  0.0040 -0.3255  0.1478
24819W        W39950   5.017  16.531  15.104  0.4141 -0.1742  0.1744
24820W        W39951   3.314  12.794  14.681  0.2533 -0.1334 -0.1287
24821W        W39952   0.928  12.984   4.739 -0.2172  0.1062  0.1556
24822W        W39953  14.160  12.868   1.690 -0.0643  0.1263 -0.0149
24823W        W39954  10.712   5.402   2.733  0.1494  0.0517 -0.0201
24824W        W39955  13.438  14.861  10.657 -0.1564 -0.2260 -0.1080
24825W        W39956  17.288   1.784  14.324 -0.1505  0.0204 -0.0999
24826W        W39957   4.744  17.917  15.472 -0.4005  0.1248 -0.3115
24827W        W39958   9.515   2.487  12.768  0.0441 -0.0318  0.0016
24828W        W39959   0.369   1.094   2.934  0.1962  0.0009  0.1964
24829W        W39960   8.295   7.817  12.123 -0.2869  0.2203  0.2479
24830W        W39961  10.486   3.854   3.602  0.1431 -0.0380  0.1853
24831W        W39962   3.902  10.522  12.327  0.0941 -0.0469 -0.1042
24832W        W39963  18.137   9.267   0.932  0.1949 -0.0792  0.1936
24833W        W39964  17.633  13.671  12.067 -0.1764 -0.1158 -0.2592
24834W        W39965  13.807   3.437   3.856  0.0764  0.0590  0.2977
24835W        W39966  15.132  18.110   2.593 -0.0646  0.1709  0.0864
24836W        W39967  11.710  12.422  10.359  0.2242  0.1724  0.0671
24837W        W39968   8.083  17.035   9.507  0.0653  0.0489 -0.1590
24838W        W39969   1.060  13.557   2.550  0.1333  0.1531  0.3871
24839W        W39970   2.551   5.840   4.422 -0.0957 -0.0266  0.0576
24840W        W39971  15.960   1.035  13.074 -0.1609 -0.1353  0.1379
24841W        W39972  16.229   9.099   5.372 -0.0403 -0.1034 -0.1932
24842W        W39973   8.294  12.625  15.279  0.4664  0.1646  0.2259
24843W        W39974   3.940  18.153   4.454  0.1821 -0.3162  0.0792
24844W        W39975   0.814   8.578  12.091  0.0791  0.0147  0.0617
24845W        W39976   1.389   6.652   3.894  0.0563 -0.1389  0.0355
24846W        W39977  12.369   2.376   4.982 -0.0242 -0.0457 -0.1171
24847W        W39978  13.105  13.673  12.795 -0.2373  0.2465  0.5913
24848W        W39979   0.038   3.578   3.922 -0.0496  0.2416 -0.2344
24849W        W39980   1.113   7.993   5.127  0.1020 -0.1059 -0.1039
24850W        W39981  16.905  11.722   4.167  0.0124  0.1721 -0.1435
24851W        W39982   4.687  12.592  11.869 -0.2166 -0.2000 -0.2400
24852W        W39983   0.010   3.546   3.257  0.4248 -0.0229  0.0739
24853W        W39984   2.312   4.052   5.392 -0.0131  0.0356  0.0166
24854W        W39985   6.029   0.732   0.760  0.3840  0.1570  0.0779
24855W        W39986  17.073   9.230   4.982  0.2230 -0.0554 -0.0951
24856W        W39987   6.620  15.366  12.463 -0.3229 -0.0121  0.0846
24857W        W39988  10.610  17.452  11.657 -0.3456  0.1504  0.2304
24858W        W39989   8.387   0.979  15.183  0.1560  0.2467 -0.0716
24859W        W39990   9.034  16.144  11.389  0.1305 -0.1427  0.0450
24860W        W39991  15.583   5.762   3.492 -0.3457 -0.0407  0.1209
24861W        W39992  14.431   6.326  12.133  0.3234 -0.0639 -0.3025
24862W        W39993   3.853  18.406  12.990 -0.0615 -0.1075 -0.0672
24863W        W39994  14.958   5.574   5.280 -0.0815  0.2592  0.2777
24864W        W39995  16.216   1.883   1.828  0.1641 -0.0844 -0.3243
24865W        W39996   0.039  10.934  10.817  0.3250  0.0507 -0.0556
24866W        W39997  10.605   8.070  10.393 -0.3866  0.2608  0.4099
24867W        W39998   0.316   7.762  11.367  0.0226 -0.0863  0.0585
24868W        W39999  10.096  11.852   9.974  0.3050  0.0849  0.2151
24869W        W40000   7.545  10.961  15.245 -0.1255 -0.0466 -0.1479
24870W        W40001   6.211   0.165   4.126  0.2099 -0.0796  0.0328
24871W        W40002  11.621  14.005   3.517 -0.0275 -0.0533 -0.0024
24872W        W40003  11.085   6.998   1.810 -0.1325  0.0806  0.3254
24873W        W40004   9.889  12.759   2.070  0.2365 -0.1428 -0.0026
24874W        W40005  15.049   3.013   4.430 -0.2636 -0.3315 -0.0630
24875W        W40006   6.865   2.938   2.506 -0.0034 -0.2573 -0.2285
24876W        W40007   7.734   6.034   3.489  0.0685  0.0431 -0.0133
24877W        W40008  13.887   1.540   2.956 -0.5750 -0.0120  0.2641
24878W        W40009   6.849  10.589  13.904 -0.1230  0.0070 -0.3377
24879W        W40010   7.867   0.817   2.157  0.4969 -0.1612  0.2536
24880W        W40011   4.045  15.879   1.558 -0.1599  0.4715 -0.0439
24881W        W40012  14.819  16.841  12.730  0.2050  0.1368  0.4456
24882W        W40013   0.056  18.314  14.682  0.0833  0.0470  0.2515
24883W        W40014   2.887  11.114  13.338 -0.0791 -0.0058 -0.3873
24884W        W40015  17.642  10.825   0.063 -0.1803 -0.1168 -0.2988
24885W        W40016  18.190   7.937   5.095  0.1872 -0.2540  0.3101
24886W        W40017  11.126   2.573   0.003 -0.0647  0.1113 -0.0355
24887W        W40018   7.474  18.318  15.217  0.0943  0.1972 -0.1572
24888W        W40019  16.428  15.850   0.691 -0.2302 -0.0282  0.2091
24889W        W40020  15.426   7.913  14.908 -0.1990  0.2527  0.0651
24890W        W40021  14.193  10.056   2.206  0.1202 -0.1440  0.1422
24891W        W40022  13.007   3.929   2.192 -0.0166 -0.1171 -0.1518
24892W        W40023   6.494   5.483  11.842  0.0068  0.2225  0.0045
24893W        W40024  13.869   0.971   1.413 -0.2286  0.0437 -0.0355
24894W        W40025   8.922   0.738   3.781  0.2669 -0.0272 -0.0220
24895W        W40026  11.262   8.427   3.539  0.0893 -0.1968  0.0421
24896W        W40027  16.671  14.068  11.572 -0.0210  0.2311 -0.3989
24897W        W40028   2.900  12.082  15.059 -0.1356  0.1488 -0.1744
24898W        W40029  13.470   0.456  11.614  0.1286 -0.4305 -0.3426
24899W        W40030   3.242   4.489   2.345  0.0441 -0.0164 -0.0081
24900W        W40031   5.026  16.651   5.197 -0.0287  0.0864 -0.0631
24901W        W40032   5.541   3.898   2.830 -0.2897 -0.1213 -0.0522
24902W        W40033  10.526   5.384  14.859 -0.0388 -0.1426  0.1694
24903W        W40034   8.041   4.850   9.967 -0.1753 -0.4089 -0.1032
24904W        W40035   8.732   7.073  12.605 -0.0493  0.0925  0.1644
24905W        W40036  12.684   2.726   3.990 -0.0180  0.1903 -0.2852
24906W        W40037   3.203   1.239  13.828  0.0450 -0.3241 -0.1757
24907W        W40038  10.117   7.514  13.164 -0.3688  0.1995 -0.1813
24908W        W40039  11.480  15.010  10.488 -0.0944 -0.0478 -0.1871
24909W        W40040  15.254  11.109   0.842 -0.3027  0.2074  0.2769
24910W        W40041   6.803   7.434  12.842 -0.0844  0.1109 -0.1856
24911W        W40042  12.962   2.072  12.454  0.2906 -0.1615 -0.0006
24912W        W40043   0.868   4.645   2.352  0.1335  0.0344  0.1119
24913W        W40044  10.100  12.031   1.646 -0.1069  0.2701 -0.1445
24914W        W40045  13.330   4.460   0.793 -0.0377 -0.1833 -0.0567
24915W        W40046  15.999   4.867  14.912  0.1777  0.1661  0.0238
24916W        W40047   8.555  10.167   2.569  0.1066  0.0891 -0.2613
24917W        W40048   6.918   7.809  14.789 -0.0344  0.0473 -0.0563
24918W        W40049  13.037   7.854  14.699  0.0591  0.4258 -0.2359
24919W        W40050   6.432   4.346  13.301  0.1577  0.3889  0.0384
24920W        W40051   7.717   8.239  15.834  0.0518  0.0169  0.0304
24921W        W40052   8.714  17.844  11.980 -0.1171  0.1370 -0.1190
24922W        W40053   4.252   2.114  14.696  0.1920 -0.1550 -0.1040
24923W        W40054   9.294   1.849  12.559  0.2052  0.0145 -0.3443
24924W        W40055  14.118  10.036   4.122 -0.1882  0.1628  0.0791
24925W        W40056   3.386   4.725   3.930 -0.0294  0.0448 -0.2133
24926W        W40057  17.688   1.811  14.681  0.3346  0.0240 -0.2966
24927W        W40058   4.923  17.575  14.644  0.1674  0.0132 -0.1478
24928W        W40059   2.098  17.871  15.506  0.0916  0.0214 -0.4766
24929W        W40060   3.751  16.341  11.050  0.0081 -0.1231  0.2845
24930W        W40061   9.573   8.247  13.631  0.2560  0.4845 -0.0399
24931W        W40062  17.521   8.607   1.447  0.0678  0.1381  0.1548
24932W        W40063   3.725  17.555  11.787  0.2939  0.3366 -0.0971
24933W        W40064  12.785  13.700  15.523 -0.3369 -0.0358  0.0957
24934W        W40065  17.216  14.627  15.048  0.1956 -0.1595  0.1747
24935W        W40066  17.808   3.603  14.070 -0.2102  0.1546  0.1084
24936W        W40067   3.044   5.395  15.834 -0.1695  0.1138  0.3935
24937W        W40068  13.688  15.255   1.994 -0.0162  0.0092 -0.2797
24938W        W40069   6.337  13.079   4.297  0.0572  0.0704 -0.2540
24939W        W40070   2.427   7.051  13.793  0.2253 -0.0135  0.1293
24940W        W40071   0.285  16.071  11.703  0.1587  0.1165 -0.0915
24941W        W40072  11.129   0.969   3.255 -0.0547  0.2760 -0.1260
24942W        W40073  16.274   3.781  13.783 -0.1160  0.1301 -0.2690
24943W        W40074  14.991  10.945  10.749 -0.6082  0.2687 -0.1591
24944W        W40075   4.167  15.451   0.206  0.1287  0.1267 -0.1223
24945W        W40076   9.403   4.040  14.590  0.1123 -0.1552  0.0112
24946W        W40077   7.788   9.281   0.690  0.1017  0.2511 -0.1296
24947W        W40078  11.153   4.509   3.212  0.3205  0.3187 -0.0457
24948W        W40079   5.401  16.229   1.531 -0.2455 -0.0467  0.0785
24949W        W40080   1.692   3.576   1.968 -0.0689 -0.1168  0.0532
24950W        W40081  11.279  14.262  15.137 -0.0758 -0.0087 -0.0180
24951W        W40082  14.075   5.156  10.874  0.0070  0.1805 -0.3434
24952W        W40083  13.924   7.680   3.931  0.4105 -0.0436 -0.0358
24953W        W40084  15.963   4.454   3.772  0.2234  0.1782  0.0789
24954W        W40085  12.111  17.102  11.988  0.1109 -0.2270 -0.1386
24955W        W40086   2.212   5.097  15.375 -0.1575  0.1425 -0.1511
24956W        W40087  10.186  11.292   3.337 -0.2265 -0.1079 -0.2961
24957W        W40088   2.319   0.213  12.768 -0.0065 -0.0274 -0.0760
24958W        W40089  10.614  16.828   0.438 -0.0693 -0.1925  0.1111
24959W        W40090   1.369  10.694  11.313 -0.3985 -0.1101  0.1839
24960W        W40091  13.450  17.344  11.767  0.0502  0.3099 -0.0204
24961W        W40092   1.524  13.639  14.421 -0.1417 -0.1688  0.1452
24962W        W40093  11.630   8.097  12.187  0.2651 -0.1946 -0.2168
24963W        W40094   8.028  16.345   0.681  0.0996 -0.1154 -0.0193
24964W        W40095  12.728  16.502   3.226  0.0282 -0.0695 -0.4267
24965W        W40096  16.772   6.134   0.768 -0.2119 -0.0024 -0.0354
24966W        W40097   1.908   4.709  15.425  0.0940 -0.2999 -0.3731
24967W        W40098   4.629  15.249  14.734 -0.0212  0.0410  0.0744
24968W        W40099   5.013  12.806   2.970 -0.0386  0.0207  0.0874
24969W        W40100   1.751  12.676  11.232 -0.1461  0.2160  0.1347
24970W        W40101   8.725   0.284   4.050  0.3475 -0.0219  0.2973
24971W        W40102   4.539  12.163  14.346  0.1521  0.0786  0.1391
24972W        W40103  16.329   0.583  10.852 -0.2601 -0.3040 -0.0879
24973W        W40104   7.954   3.060  14.061  0.2961 -0.1970 -0.1479
24974W        W40105  14.298  16.935   3.942  0.1615  0.1626 -0.1130
24975W        W40106  14.880   6.821   3.615  0.0546  0.0564 -0.0393
24976W        W40107   0.475  16.822  14.762  0.3675  0.0183 -0.0497
24977W        W40108   6.188   9.078  13.933 -0.0188 -0.0562  0.1200
24978W        W40109   7.822   4.620  11.768  0.1052 -0.1813  0.1241
24979W        W40110   8.071  18.114  10.199  0.2500  0.1515 -0.1984
24980W        W40111   1.486  11.564   0.529  0.0070  0.2517 -0.0624
24981W        W40112   3.084   8.896  12.521  0.1735  0.0547 -0.0108
24982W        W40113   8.254   6.206   3.873  0.3119 -0.0730 -0.1511
24983W        W40114   4.835  15.222  15.181  0.1258 -0.1798 -0.1504
24984W        W40115   2.945  14.927   4.038 -0.0573  0.2451  0.1276
24985W        W40116   1.744  14.792   4.256  0.2957  0.1902  0.3024
24986W        W40117  12.688  15.354  11.794 -0.2573  0.0212 -0.1928
24987W        W40118  16.215   3.549  13.038 -0.0904  0.0379 -0.1799
24988W        W40119   0.761   8.284   4.904 -0.0089  0.1675 -0.0988
24989W        W40120  12.471  12.006  13.805  0.0969  0.1416  0.2653
24990W        W40121   9.970   3.228   4.824  0.0114 -0.0883 -0.5139
24991W        W40122  10.846  17.804  12.875  0.0297 -0.1595 -0.2304
24992W        W40123  13.254   5.398   1.639  0.0548  0.0532  0.0025
24993W        W40124   6.448   9.972   4.607 -0.0881  0.1769 -0.3072
24994W        W40125   6.945  13.350  13.997  0.1723  0.1227 -0.2607
24995W        W40126   6.058  14.037   4.322 -0.0111  0.1360 -0.1526
24996W        W40127   8.607  10.464  12.562 -0.0423  0.0015 -0.2794
24997W        W40128  12.214   5.677   4.334  0.1164  0.2306 -0.1665
24998W        W40129   4.555   9.254  15.823  0.0784  0.0946  0.2127
24999W        W40130   0.259  10.593   2.709 -0.0896 -0.1918  0.2000
25000W        W40131  16.912  11.926   2.599 -0.1461 -0.0801 -0.0831
25001W        W40132  17.626   1.658   1.945 -0.0425 -0.0218 -0.0194
25002W        W40133  17.800   5.913   1.672 -0.2682 -0.2880 -0.2256
25003W        W40134  10.959  15.883   3.402  0.0484 -0.3865  0.1449
25004W        W40135   6.588  12.012  12.416  0.2148  0.0708  0.3921
25005W        W40136  16.315  12.141   1.179  0.0715  0.2829  0.0813
25006W        W40137   2.447   8.104   5.681 -0.0287 -0.0661  0.2827
25007W        W40138  11.741  17.188   3.973  0.1525  0.3724 -0.0678
25008W        W40139  13.771  11.943  10.709 -0.2746  0.0261  0.2268
25009W        W40140  11.152   4.043   4.973  0.0909  0.3115 -0.0451
25010W        W40141  10.883   5.560   1.934  0.1183  0.1087  0.1856
25011W        W40142   6.088  16.379   4.730 -0.1139  0.0147  0.3826
25012W        W40143   5.345   1.387  15.281 -0.1852 -0.3545  0.3207
25013W        W40144  15.846   5.736   1.808 -0.2418  0.4465 -0.0417
25014W        W40145   6.084  13.296   3.734 -0.0343 -0.1313 -0.0774
25015W        W40146  17.776   7.589  14.651 -0.4299 -0.0260  0.0716
25016W        W40147  12.578   9.337   3.110 -0.2490  0.0891 -0.1880
25017W        W40148  18.134   3.926  11.172  0.1402  0.0073  0.1695
25018W        W40149  13.213   6.981  15.030  0.0839 -0.0571 -0.0166
25019W        W40150  14.602  14.125   1.767 -0.3275 -0.1161  0.0236
25020W        W40151   4.939  17.917   2.736  0.0486  0.3385  0.1393
25021W        W40152   8.252  18.148   2.103 -0.0874  0.1412 -0.1260
25022W        W40153  12.940  15.355  14.413  0.2487 -0.1908  0.1331
25023W        W40154  13.953   2.891   3.720  0.3764 -0.2111 -0.0901
25024W        W40155   0.661   5.654  14.235  0.1043  0.3121  0.0437
25025W        W40156   8.181   8.325  12.065  0.0796 -0.2573  0.1766
25026W        W40157  11.552   6.179  11.069 -0.1816 -0.0835 -0.4710
25027W        W40158   4.446   2.738  15.834 -0.1245  0.4489  0.1844
25028W        W40159  13.672   2.788   2.505 -0.2071 -0.2961 -0.4049
25029W        W40160   3.211   1.426  11.152  0.1373 -0.2158  0.1285
25030W        W40161   1.560  11.545  13.591 -0.0582 -0.4614  0.0126
25031W        W40162   5.144   3.135  11.420  0.0084 -0.3335 -0.1255
25032W        W40163  12.212  17.743  12.332 -0.2210  0.3559  0.1134
25033W        W40164   7.596   1.442  14.417 -0.1597 -0.2186  0.2159
25034W        W40165   6.888  10.860   0.873  0.0249  0.3068 -0.1924
25035W        W40166  15.538  13.128  11.722 -0.4142 -0.0810  0.0658
25036W        W40167  14.516  14.242  12.006  0.2152 -0.0702 -0.3682
25037W        W40168   4.750  17.595  11.949  0.1806 -0.2352  0.3872
25038W        W40169   8.032   7.110  14.081  0.2078  0.0269  0.0135
25039W        W40170  13.424   1.150   5.274  0.4613  0.1338  0.0049
25040W        W40171   1.943   6.671  14.475  0.0281 -0.1486 -0.3972
25041W        W40172   7.180   2.796  13.420 -0.1156 -0.0838 -0.2516
25042W        W40173  16.158   7.160  11.145 -0.1095 -0.0123  0.1207
25043W        W40174   1.584   8.212  11.951 -0.0416  0.0364 -0.0711
25044W        W40175   2.639   6.501  15.602 -0.1691 -0.1359  0.0060
25045W        W40176   4.995  17.169  11.825 -0.0421  0.1490 -0.1664
25046W        W40177  17.028   5.820   2.807  0.1785  0.0768 -0.1501
25047W        W40178  11.687   9.168   3.827  0.3367 -0.1271 -0.2244
25048W        W40179   4.610  10.466   0.646  0.0880 -0.0088 -0.0346
25049W        W40180   3.896   3.557   1.525  0.0716 -0.3311 -0.0139
25050W        W40181  12.360   9.276   0.789  0.0037 -0.0920 -0.0405
25051W        W40182   9.178  12.645   9.973  0.3900 -0.0210  0.0344
25052W        W40183  16.740   6.627  13.735 -0.1124  0.0901  0.1888
25053W        W40184  15.871  12.525  11.092  0.1405  0.2381 -0.0356
25054W        W40185   0.709   2.192   1.878 -0.1345  0.0859 -0.0001
25055W        W40186   5.251   3.734  10.456  0.0141 -0.0825 -0.0676
25056W        W40187   4.953   1.580  15.637 -0.0957  0.0994  0.0350
25057W        W40188  10.938   3.591   0.246  0.3212  0.2240  0.4663
25058W        W40189   9.907  11.301  14.362  0.0702  0.1384 -0.0760
25059W        W40190   5.694   7.651   2.947  0.3054  0.1770 -0.0153
25060W        W40191  14.873   1.505   5.160  0.1955  0.2283  0.1488
25061W        W40192   9.840  16.097   4.036 -0.0468 -0.2155  0.1470
25062W        W40193   8.637   7.858   3.130  0.0929  0.0176 -0.1027
25063W        W40194   5.246  12.309   1.591 -0.1361  0.0684 -0.0406
25064W        W40195  14.414   6.800   1.433 -0.0491 -0.0351  0.0721
25065W        W40196  14.199   4.463  12.457 -0.1118 -0.3707 -0.1798
25066W        W40197   2.898   8.228  13.583 -0.1280 -0.0573 -0.1824
25067W        W40198   4.175  14.668   4.534 -0.2749  0.0798  0.1396
25068W        W40199  18.285   7.067   3.195  0.1292  0.1727  0.1679
25069W        W40200   9.377   8.307  15.032  0.2565 -0.0519  0.2343
25070W        W40201  15.510   6.238   1.167 -0.0184  0.2542  0.0307
25071W        W40202   6.236   9.337  12.309  0.3316  0.5125  0.1607
25072W        W40203   5.335  10.874  10.267 -0.3399  0.1401  0.0424
25073W        W40204   6.367  15.838   0.460 -0.0357  0.0017 -0.0180
25074W        W40205   2.263   9.257  10.915 -0.0485  0.0067  0.1345
25075W        W40206   0.122  18.098   1.219 -0.2669 -0.1103 -0.0183
25076W        W40207   0.107   4.765   3.680  0.0495  0.0728 -0.0882
25077W        W40208   7.848  11.590  12.608  0.0469  0.2016  0.1280
25078W        W40209   2.094  14.793  10.302  0.0226  0.1514 -0.0664
25079W        W40210  18.529  17.114   2.146  0.1427  0.1729 -0.0485
25080W        W40211  16.144  17.212   0.243 -0.0402  0.1980 -0.0896
25081W        W40212   7.716   9.346   5.219 -0.3273  0.0038 -0.0138
25082W        W40213   0.770  15.876   1.322 -0.1611 -0.0630  0.2238
25083W        W40214   7.026  14.295  10.493 -0.2730  0.0469  0.0708
25084W        W40215  10.790   5.195   3.613  0.1160 -0.0699  0.0035
25085W        W40216   5.337  14.979  10.958 -0.3226  0.2526 -0.3570
25086W        W40217   8.867   2.891  14.144  0.1557 -0.0695  0.2587
25087W        W40218   9.302  10.652   2.395 -0.4022  0.2080  0.0539
25088W        W40219   9.046  13.633  11.321  0.1505 -0.1474 -0.1664
25089W        W40220  17.077   9.047  13.844  0.2153 -0.1546  0.2096
25090W        W40221  16.034   2.883   3.428  0.1653 -0.0157  0.1860
25091W        W40222  16.573  13.861   5.341  0.1091 -0.1627 -0.1213
25092W        W40223  10.251  18.218  10.751 -0.1308  0.3681  0.0389
25093W        W40224   9.198   2.366   0.379 -0.0041  0.1899  0.3203
25094W        W40225   7.282   3.084  15.791  0.2976 -0.1754 -0.1590
25095W        W40226   8.087  10.147  14.996 -0.0178 -0.0130 -0.3132
25096W        W40227  14.934  13.413  15.533 -0.1966  0.2467  0.0783
25097W        W40228   7.749  10.623   4.014  0.0251 -0.2041  0.2361
25098W        W40229   5.138  13.770   1.759  0.0252  0.0955  0.1388
25099W        W40230  17.358   5.708  15.598 -0.2498  0.0370  0.1585
25100W        W40231  17.574  15.375  15.646  0.0920 -0.0560 -0.0478
25101W        W40232   7.632   2.390  14.659 -0.0791  0.3500  0.0832
25102W        W40233  15.557   8.982   0.752 -0.0753 -0.0194 -0.0701
25103W        W40234  18.318  13.895  12.849 -0.1868  0.0547  0.0031
25104W        W40235   8.549   2.697   2.040  0.2782 -0.2161  0.0603
25105W        W40236  13.424  17.563   1.835 -0.0101  0.1675  0.1891
25106W        W40237  13.612  17.787   5.670  0.2475  0.0012  0.4939
25107W        W40238   4.515   1.372  10.369  0.0113  0.2694 -0.1406
25108W        W40239  16.744  10.080   4.645 -0.1192 -0.0943  0.0711
25109W        W40240  15.081  11.333   4.280  0.1577  0.0389  0.2612
25110W        W40241  11.988   6.795  15.254 -0.0491 -0.0266  0.1893
25111W        W40242  17.830   3.057  10.907 -0.1301  0.1356  0.1646
25112W        W40243  10.027  15.918  10.803  0.2211  0.3473  0.3477
25113W        W40244   2.924   3.209   1.323 -0.2196 -0.0283 -0.0442
25114W        W40245   5.240   1.189   4.307 -0.3177 -0.1770 -0.2868
25115W        W40246  18.303  13.581   4.798 -0.3374 -0.0930  0.1465
25116W        W40247   0.701   0.152   4.300 -0.0751 -0.1932  0.0067
25117W        W40248   1.718  10.972  11.569  0.2691  0.0196 -0.0821
25118W        W40249  17.194   7.794   5.304  0.1379  0.0963  0.2148
25119W        W40250   8.916  14.302  14.028 -0.2127 -0.0415  0.3275
25120W        W40251   5.367   8.576   4.637  0.1539  0.1033 -0.3169
25121W        W40252   8.870   8.744  10.590 -0.2521 -0.2338  0.1741
25122W        W40253   8.320   4.801  11.808 -0.0269  0.0386  0.3543
25123W        W40254  13.747   6.925   0.703  0.1416  0.2009  0.1514
25124W        W40255   4.411  14.318  11.458  0.1988 -0.2761 -0.2372
25125W        W40256  16.345  12.643   2.481  0.0388 -0.1210 -0.3643
25126W        W40257  18.200   6.469  11.020  0.0999  0.1029 -0.0665
25127W        W40258   1.501  17.517  14.766 -0.0775 -0.1720  0.0177
25128W        W40259  17.402  13.274   5.727  0.1477  0.0013  0.0606
25129W        W40260  18.509  16.480  11.810 -0.0267  0.0937  0.1259
25130W        W40261  15.556   3.021  12.652  0.1504 -0.0139  0.1593
25131W        W40262  13.381  15.019   3.660 -0.0083  0.0450  0.1050
25132W        W40263   8.889   5.699   5.687 -0.0090  0.0998  0.1769
25133W        W40264  18.010  12.206   1.597  0.1757  0.2110  0.2196
25134W        W40265  10.560   0.012   4.143 -0.0609  0.0680 -0.1211
25135W        W40266  15.751  13.277  15.585  0.1939  0.1251  0.0423
25136W        W40267  12.412   4.899   2.915 -0.5498 -0.0894 -0.0791
25137W        W40268   9.215   4.381  12.551  0.0912 -0.0115 -0.0266
25138W        W40269  17.028   0.745  12.902  0.0182  0.0970  0.1066
25139W        W40270  13.474   4.366  14.646  0.5004 -0.1245  0.0860
25140W        W40271  17.359   2.914   2.148 -0.1730 -0.1309 -0.2323
25141W        W40272   2.538   5.215  12.547 -0.0714 -0.1313 -0.2396
25142W        W40273  11.182   7.384  14.837 -0.0449 -0.2174 -0.3085
25143W        W40274   8.062   0.989   3.253  0.4451  0.0607  0.0346
25144W        W40275   9.528   1.782   0.816  0.2526  0.3947 -0.1109
25145W        W40276  12.651  15.773   0.771 -0.1567 -0.1679 -0.2672
25146W        W40277   2.125  14.561   0.300 -0.0904 -0.3501 -0.0432
25147W        W40278   8.110   4.713   1.601  0.1469  0.1687 -0.0678
25148W        W40279   7.911   4.945  13.282  0.1882 -0.0558  0.0299
25149W        W40280   9.146  11.549  12.734 -0.0358 -0.0324 -0.2408
25150W        W40281  12.038  13.844  12.571  0.0198 -0.1447 -0.1537
25151W        W40282   8.389   1.336  13.993  0.1574  0.0908 -0.2567
25152W        W40283  12.647   2.768   2.234 -0.1719 -0.1334  0.0169
25153W        W40284   3.880  10.400  13.236  0.0022 -0.0833 -0.0821
25154W        W40285   5.711   8.429  10.667  0.1547  0.1587 -0.0599
25155W        W40286  10.933   8.628  11.976  0.2654  0.2488  0.0631
25156W        W40287   7.225  11.984   3.030  0.1758  0.3228 -0.5091
25157W        W40288  10.948  15.718   0.968 -0.0247 -0.1527 -0.0261
25158W        W40289  12.742  11.026   3.732  0.0394  0.0384  0.2633
25159W        W40290   2.550   1.066   0.692  0.0186  0.3532 -0.2520
25160W        W40291   2.342  15.010   1.369 -0.3381 -0.2474 -0.0641
25161W        W40292  13.020  11.212   4.153  0.3636 -0.2692  0.0323
25162W        W40293   6.735  13.903   1.874  0.3369 -0.1792 -0.0487
25163W        W40294   0.024  17.026   3.189  0.1479  0.2838  0.0488
25164W        W40295   5.414  16.036  13.316  0.0085 -0.0816 -0.0783
25165W        W40296   0.611   9.422   4.265 -0.3048 -0.2036  0.1474
25166W        W40297  11.714  12.555  11.920  0.4369 -0.1901 -0.3210
25167W        W40298   4.126  11.200  12.715  0.0348  0.2918 -0.2687
25168W        W40299   5.650   3.991  10.288 -0.1560  0.2168  0.1353
25169W        W40300   1.462   8.646  13.310  0.1194  0.0072  0.1492
25170W        W40301  10.879   2.738   0.394  0.1938  0.0915 -0.1894
25171W        W40302   5.288  11.199   5.091  0.1708  0.2130  0.2416
25172W        W40303   2.215  15.161  10.735 -0.2932 -0.0630 -0.3848
25173W        W40304   8.413   0.985  11.771 -0.0298  0.3813 -0.1728
25174W        W40305  10.538   2.317   2.261 -0.2916 -0.0878 -0.0574
25175W        W40306  11.578   6.852  12.015 -0.4411 -0.1071  0.1514
25176W        W40307  17.370   0.119  14.629 -0.1294 -0.0513 -0.2441
25177W        W40308  11.048  10.539   0.652 -0.1672  0.2653 -0.1433
25178W        W40309  14.924  17.458   1.967 -0.0230 -0.2959 -0.2739
25179W        W40310  17.128   4.753   3.722  0.0804  0.1308  0.2001
25180W        W40311  13.809   8.843  14.531  0.2223 -0.1024  0.0616
25181W        W40312  17.325   9.423   3.519  0.1077  0.2305 -0.0257
25182W        W40313   5.404  16.562   0.698  0.2660 -0.2280  0.1254
25183W        W40314   6.612  11.737  15.815 -0.1718 -0.2374 -0.0635
25184W        W40315  12.610   7.947  15.788  0.2465 -0.0192  0.1375
25185W        W40316  13.151  14.963   1.381 -0.0589  0.1027 -0.3392
25186W        W40317   5.963  17.440   3.096  0.3018 -0.0382 -0.0712
25187W        W40318   5.943   3.113   1.902 -0.1563 -0.2967 -0.1222
25188W        W40319   0.522  12.571   5.215 -0.2444  0.0982  0.1186
25189W        W40320   0.113   5.513   1.583 -0.3340 -0.1567 -0.0768
25190W        W40321   4.804  16.063   0.338 -0.1166  0.2384 -0.0569
25191W        W40322  10.990  17.860  11.566 -0.1635  0.0550  0.0744
25192W        W40323   2.172  15.281  15.175 -0.1572  0.2860 -0.0467
25193W        W40324   6.767  15.064   2.502 -0.0221 -0.4434 -0.0835
25194W        W40325  11.355  14.606  12.617  0.3111  0.1266 -0.2880
25195W        W40326   1.929   1.154   5.401 -0.1069  0.4077 -0.1503
25196W        W40327  10.675  15.640   2.215 -0.0647 -0.2222 -0.1271
25197W        W40328  12.252  12.230   3.314  0.0557  0.3694 -0.1816
25198W        W40329  17.661   1.606   0.770  0.1246  0.4516  0.1690
25199W        W40330  17.449   2.889  10.408  0.0739  0.1241 -0.1746
25200W        W40331   4.988  13.323   9.881  0.0895  0.2599  0.0225
25201W        W40332  16.943   2.596  11.003 -0.1012 -0.1451 -0.2173
25202W        W40333   7.739   3.303   0.850  0.0046 -0.1020 -0.0264
25203W        W40334  18.347   7.566   2.018 -0.1590 -0.0470 -0.1187
25204W        W40335  17.651   0.177  13.428 -0.3378  0.0019 -0.1973
25205W        W40336  12.408  11.741   2.138 -0.1132  0.1299 -0.0069
25206W        W40337   6.068   3.811  13.902  0.5169 -0.0536  0.2237
25207W        W40338  11.430   2.985  11.605 -0.1065  0.0411 -0.0484
25208W        W40339  17.419   1.700  13.379  0.4615  0.0464  0.0053
25209W        W40340  12.906  14.307   9.800 -0.0025 -0.2068  0.0193
25210W        W40341   1.247   6.702   5.204 -0.1997 -0.3264 -0.1135
25211W        W40342   0.620  12.643  15.258  0.0698  0.0692 -0.2183
25212W        W40343  17.724  18.270  14.831  0.0275  0.0496 -0.0293
25213W        W40344  17.253   0.826   5.839 -0.1357  0.0555  0.0436
25214W        W40345  12.435  17.474  11.607  0.0361 -0.0618 -0.0490
25215W        W40346   2.386   6.656  11.852  0.0261 -0.1730  0.0754
25216W        W40347  14.152   2.804  12.818  0.0243  0.3693 -0.2529
25217W        W40348   4.840  13.503  14.149 -0.1009  0.1570  0.2569
25218W        W40349  18.326   7.484  12.676  0.0650  0.0044 -0.1000
25219W        W40350   1.379   6.994   4.733  0.0097  0.2618 -0.2404
25220W        W40351   1.595  12.399   2.511 -0.0354 -0.0481 -0.0453
25221W        W40352  12.808   5.117  13.426 -0.4116 -0.0767  0.2390
25222W        W40353   2.030   0.616  13.266 -0.2233  0.0463  0.5453
25223W        W40354   8.034   1.995   3.884 -0.0986  0.0320  0.3209
25224W        W40355   3.575   3.146  13.225  0.0470 -0.5294 -0.0232
25225W        W40356   9.532   2.712   0.471 -0.1087  0.0151 -0.2893
25226W        W40357  14.930  10.474  13.588 -0.1763  0.1608  0.0379
25227W        W40358   0.068   4.366  15.618  0.1898 -0.2097 -0.1674
25228W        W40359   1.897  15.288  11.425 -0.1247  0.4658  0.2298
25229W        W40360  16.826   7.781  11.233  0.1323  0.1160 -0.1046
25230W        W40361   2.086  16.094   2.925  0.3875  0.0044  0.0485
25231W        W40362   9.885  16.702   3.740  0.3105 -0.0594 -0.2479
25232W        W40363  12.947  11.846   2.745 -0.2509  0.0351 -0.0787
25233W        W40364   4.817   3.953  10.432  0.2591 -0.1858  0.2629
25234W        W40365  12.881   2.896  13.636  0.0537 -0.0330 -0.3475
25235W        W40366  16.906  10.633   3.728  0.1179  0.0075 -0.0564
25236W        W40367   9.303   4.563  14.453  0.3704 -0.2891 -0.0169
25237W        W40368   5.491   9.503   3.269 -0.1758 -0.3453  0.3383
25238W        W40369   4.829   0.431   4.599 -0.3489 -0.1457  0.1896
25239W        W40370   7.788  17.194   2.829 -0.2913  0.0164  0.0354
25240W        W40371   3.260  11.386  12.139 -0.0691 -0.3624 -0.0359
25241W        W40372   0.598   4.555  15.135  0.5091 -0.0719  0.1933
25242W        W40373   9.201   2.357  15.635 -0.2005 -0.0419 -0.0619
25243W        W40374   8.949   8.388  13.179 -0.2562 -0.0197 -0.0484
25244W        W40375  15.418  14.619  15.506 -0.0491 -0.1960  0.3537
25245W        W40376   5.580  15.098  11.433 -0.3472  0.1268 -0.1478
25246W        W40377  16.139  11.058  13.355  0.1063  0.0477 -0.0618
25247W        W40378   6.173   0.287  13.370 -0.0078 -0.3521 -0.0469
25248W        W40379  11.241  16.179   4.640 -0.2130 -0.1934  0.0318
25249W        W40380  16.882  13.302   4.078 -0.2196 -0.1038  0.2374
25250W        W40381   1.034  18.313  10.383 -0.1272  0.0229 -0.0590
25251W        W40382  11.759  15.647   5.128 -0.0361 -0.1550 -0.0231
25252W        W40383   4.344  16.721  14.842 -0.0799  0.2037  0.0118
25253W        W40384   1.313  10.066  12.483  0.2013  0.0835 -0.1001
25254W        W40385  11.222   1.155  13.232 -0.0758 -0.2506 -0.2982
25255W        W40386   9.643   1.146   5.090 -0.1432  0.0912 -0.1660
25256W        W40387   6.124   2.680   2.861 -0.0132  0.0159 -0.1130
25257W        W40388  13.900   9.829   2.991 -0.1231 -0.1381 -0.4215
25258W        W40389   6.567  18.199   1.256 -0.1064 -0.1124  0.0043
25259W        W40390   5.442   4.227   1.666  0.1557 -0.1751  0.1613
25260W        W40391   3.024  18.050   0.696  0.2963 -0.2088 -0.3533
25261W        W40392  12.050   6.224   5.097  0.1799  0.3031 -0.0284
25262W        W40393  12.565   8.439  15.893  0.0469 -0.0331 -0.2064
25263W        W40394   3.111  12.614   5.697  0.0739 -0.1669 -0.4092
25264W        W40395  13.997   1.277   3.564 -0.0139 -0.1013  0.1708
25265W        W40396  13.050   5.420  11.064 -0.1910  0.0680 -0.0078
25266W        W40397   8.275   2.083  10.860  0.0807  0.1407 -0.2480
25267W        W40398  11.962  15.459  12.419  0.2059 -0.0204 -0.2150
25268W        W40399  16.336  14.207  13.024 -0.1934 -0.2863  0.0442
25269W        W40400   9.843   5.175  12.767  0.1472  0.0187  0.1724
25270W        W40401   4.938  16.585   2.559  0.2626  0.1038 -0.0358
25271W        W40402   2.957   8.398  15.698  0.0816 -0.0970  0.0791
25272W        W40403  11.895   0.558   2.815  0.2106 -0.1364  0.1915
25273W        W40404   9.736  12.751  12.472 -0.0725  0.0191  0.0183
25274W        W40405   8.543  15.271   0.214  0.1079  0.1793  0.4040
25275W        W40406   4.069  15.043   2.060 -0.2801 -0.1142  0.2544
25276W        W40407   6.719  14.636   0.680 -0.1727  0.1451 -0.1299
25277W        W40408   3.472   0.273   1.910  0.0952 -0.0910 -0.0314
25278W        W40409   4.240  17.456  10.268  0.4408  0.1735 -0.1011
25279W        W40410   1.633   8.256   4.030  0.1262 -0.0004  0.0195
25280W        W40411  17.877  13.100   6.356  0.0491  0.0055  0.3095
25281W        W40412   0.460  12.759  10.906  0.1598 -0.2034 -0.3852
25282W        W40413   3.050  14.376  11.851 -0.0683  0.1227 -0.2061
25283W        W40414   1.520  14.506  11.157 -0.1964  0.3655  0.1838
25284W        W40415   5.236  16.804  12.590  0.1002 -0.0043  0.3979
25285W        W40416  11.789   9.849  10.637 -0.0397  0.1192 -0.3109
25286W        W40417  12.370  12.521  11.498 -0.1269 -0.0455  0.1181
25287W        W40418   8.933  18.504  14.185  0.2269 -0.0620  0.1959
25288W        W40419   4.566  12.106   0.617 -0.2911  0.1553  0.0038
25289W        W40420  18.063  18.144   4.409  0.1912 -0.3870  0.1455
25290W        W40421   4.777   5.604  15.631 -0.0067  0.0925  0.1308
25291W        W40422   1.063   2.959   2.516 -0.1158  0.1274  0.2803
25292W        W40423  17.224   3.103   1.720 -0.0509  0.0227 -0.1961
25293W        W40424   3.811   7.021  13.663 -0.1703 -0.2480 -0.2481
25294W        W40425  12.719   8.301  14.493 -0.0691  0.3858  0.1390
25295W        W40426   8.405  13.616   1.766 -0.2012  0.0471 -0.0178
25296W        W40427  17.482  16.551   3.636  0.2484  0.1049  0.1343
25297W        W40428  16.248   9.955   1.903 -0.0104  0.0086  0.1478
25298W        W40429  11.587   7.791   4.908  0.2121  0.1688  0.0246
25299W        W40430  17.572   1.659  15.164  0.0381  0.0681 -0.0784
25300W        W40431   7.391  10.149   1.762  0.3452 -0.0047 -0.0395
25301W        W40432  16.168  17.704   1.961  0.1070 -0.1166 -0.3542
25302W        W40433   4.482   4.582   5.414 -0.2152  0.0455  0.2100
25303W        W40434   2.639   9.753  14.573  0.1543  0.2658  0.3158
25304W        W40435   4.494  12.433  12.981  0.2782 -0.0169  0.0576
25305W        W40436  14.764   6.457   2.740 -0.1543  0.1242  0.1006
25306W        W40437   4.592  14.790  15.098  0.1241  0.1304  0.0178
25307W        W40438   2.627  17.358   3.216  0.0554 -0.2121  0.2453
25308W        W40439   7.696   2.258   4.121 -0.0759  0.1444 -0.0188
25309W        W40440   2.815  12.772   0.071 -0.0085  0.0316 -0.2745
25310W        W40441   0.346   9.027  15.223 -0.0749  0.0109 -0.0127
25311W        W40442  12.416  16.450   1.926 -0.1906  0.0122  0.2514
25312W        W40443   5.589   0.266  10.105  0.1940 -0.1047 -0.1822
25313W        W40444   9.121  13.160   2.393  0.1351  0.1029 -0.1624
25314W        W40445  12.848  15.191  12.299 -0.3050  0.0397 -0.1864
25315W        W40446  17.522  10.073   2.703 -0.1231 -0.0213 -0.0865
25316W        W40447   8.165  11.572   1.337  0.0013 -0.1929  0.0191
25317W        W40448  13.582   0.587  10.234 -0.1165  0.0422 -0.0540
25318W        W40449  11.253   7.533  12.468  0.0410  0.2439 -0.1190
25319W        W40450   7.242   0.015   2.098 -0.0445 -0.0708  0.2234
25320W        W40451   9.445   3.557  15.486  0.3177  0.3401 -0.0457
25321W        W40452  18.374   1.163   2.049  0.1171 -0.0189 -0.1162
25322W        W40453   5.793   2.246  12.205 -0.2453  0.0636 -0.0812
25323W        W40454  18.015  17.879   2.632  0.2219  0.1128 -0.2436
25324W        W40455  15.181   1.153  13.554  0.2985 -0.0301  0.0850
25325W        W40456   4.912   4.891   5.286  0.0306  0.1416  0.3339
25326W        W40457  16.400   1.292   0.725 -0.1677  0.1248  0.1371
25327W        W40458  10.281  11.581   0.256 -0.0631 -0.3226 -0.1319
25328W        W40459  13.485   1.481  14.079 -0.0433 -0.2604  0.2839
25329W        W40460   9.124   8.144   2.409  0.1127  0.3755 -0.3171
25330W        W40461  15.341  14.649  14.588 -0.0037  0.0325  0.1229
25331W        W40462   2.806   3.355   0.834 -0.0200  0.0339 -0.2610
25332W        W40463   3.661   8.216  15.758  0.0245  0.0484 -0.3596
25333W        W40464  12.200  13.514   4.140 -0.0844 -0.0349  0.1339
25334W        W40465   8.243   1.365  13.077 -0.0143 -0.2922 -0.1311
25335W        W40466   4.224   6.828  13.420 -0.0423 -0.1779  0.0490
25336W        W40467  11.247   2.999  13.159 -0.2650 -0.1660 -0.1320
25337W        W40468   2.834   7.405  11.722  0.6017  0.0286 -0.2345
25338W        W40469  16.218  10.395   4.810  0.3281  0.1718 -0.0317
25339W        W40470  15.042   2.600   1.582 -0.0235  0.3993  0.0420
25340W        W40471  15.714  13.649  11.765 -0.2664  0.2985 -0.0677
25341W        W40472  13.548   4.068   2.476 -0.2896  0.3081 -0.0375
25342W        W40473   6.563  16.013  10.457 -0.2306  0.3024  0.5820
25343W        W40474   4.746   8.208  10.440  0.3063 -0.1852 -0.2570
25344W        W40475   7.321   4.104  13.550 -0.0961  0.1402  0.1510
25345W        W40476   3.091  16.686   5.502 -0.0483  0.2191  0.0205
25346W        W40477   6.380   3.415  14.072 -0.2563  0.1186  0.1396
25347W        W40478   2.491  12.213   4.410 -0.0080  0.1299 -0.4291
25348W        W40479  11.993   0.838  14.519  0.4399  0.1117 -0.0393
25349W        W40480   2.972   7.372  14.654  0.1316  0.0768  0.0845
25350W        W40481   7.727  13.319   4.119 -0.0444  0.1521 -0.0738
25351W        W40482  13.673   5.883  14.264  0.0295 -0.1558 -0.1170
25352W        W40483  17.148   2.395  11.435  0.0524  0.0786  0.3919
25353W        W40484  17.949   2.426  13.350  0.0301  0.0919 -0.1832
25354W        W40485   5.513   6.191  14.724 -0.1632 -0.2392  0.2791
25355W        W40486  12.632  15.145   1.954  0.0625 -0.4280 -0.1648
25356W        W40487   0.665  12.968  10.510  0.1663  0.0916  0.2272
25357W        W40488   0.149  16.583   3.459 -0.0976  0.1866 -0.2459
25358W        W40489  18.228  11.743   0.862  0.0405 -0.0646  0.1341
25359W        W40490   8.674   2.204  13.056  0.0996 -0.2029 -0.1331
25360W        W40491   0.458   6.840  11.891  0.0227  0.1787 -0.1112
25361W        W40492   8.809  15.826   1.884 -0.3783  0.0814  0.0026
25362W        W40493  17.933  18.270  13.290  0.1932  0.0029 -0.1027
25363W        W40494   7.507   0.817  11.082 -0.0674 -0.0567  0.2773
25364W        W40495  16.022   7.057  14.428 -0.3299 -0.1002  0.2922
25365W        W40496   6.258  18.061  15.598  0.1902 -0.0921  0.3262
25366W        W40497   2.050  10.192   3.958 -0.2580 -0.0810  0.0846
25367W        W40498   9.620   7.790   1.762  0.2031  0.1705 -0.1446
25368W        W40499   2.199   9.601  14.412  0.0758 -0.2494 -0.0277
25369W        W40500   5.679  11.209   0.043  0.0439 -0.0327  0.2522
25370W        W40501  18.061   3.087   0.668 -0.0302  0.1428 -0.2667
25371W        W40502   4.738  14.689  12.748  0.1846  0.0935 -0.2464
25372W        W40503  17.634   8.138  14.542  0.2100  0.0154  0.5413
25373W        W40504  12.008  15.228  12.887  0.0423 -0.0033  0.3784
25374W        W40505  10.894   8.384  14.856  0.0617 -0.1514 -0.1395
25375W        W40506  11.049   7.707  10.970 -0.1986  0.0820 -0.1381
25376W        W40507   2.392   2.931  12.379  0.1602  0.3151 -0.1175
25377W        W40508   6.376  11.451  14.165 -0.2739 -0.0312  0.2284
25378W        W40509   7.040   3.360   5.968 -0.0822  0.0211  0.0843
25379W        W40510  14.231   4.647  13.955 -0.2899 -0.1335  0.1155
25380W        W40511   3.817   0.479   3.336  0.0138  0.0892  0.2046
25381W        W40512  12.537  15.754   3.284 -0.0875 -0.1777  0.0459
25382W        W40513   4.089   9.276   2.663 -0.5115  0.1596 -0.1141
25383W        W40514   6.236   0.256  10.696  0.3352 -0.2275 -0.0852
25384W        W40515  15.959   4.235   4.580 -0.0527 -0.0464 -0.3237
25385W        W40516  14.570  12.063  12.717  0.0736  0.1475  0.4795
25386W        W40517   8.309  17.326   2.994 -0.3215  0.0068 -0.1976
25387W        W40518   6.284   2.659   0.439 -0.0391  0.1734 -0.0620
25388W        W40519   8.252   9.902  15.390  0.0227 -0.1094 -0.1481
25389W        W40520  10.011  13.723  15.283 -0.0463 -0.1891 -0.1606
25390W        W40521   9.827  16.763  11.499  0.0931 -0.1165 -0.0788
25391W        W40522  13.952  14.952  12.060 -0.3853 -0.0543 -0.2106
25392W        W40523   1.279   3.330  12.877  0.1577 -0.0767  0.1045
25393W        W40524  11.973  16.623  11.891 -0.2729 -0.0076 -0.0647
25394W        W40525   4.642   8.021  11.467 -0.2536 -0.2754 -0.0760
25395W        W40526   0.460  13.819   0.810 -0.0870  0.0655 -0.1897
25396W        W40527  11.846  11.496  11.295  0.0042  0.0626  0.3472
25397W        W40528  10.400  13.734  11.820  0.0979  0.0749  0.0517
25398W        W40529   2.694   2.036   2.038 -0.0766  0.0260  0.0571
25399W        W40530   6.953  16.034  14.830  0.0129  0.0971  0.0569
25400W        W40531   0.725   6.821   2.849  0.1481 -0.0789  0.2326
25401W        W40532   0.431   4.175   2.244 -0.0954 -0.0670  0.1029
25402W        W40533  14.314   0.572   0.774 -0.0227  0.1102 -0.0223
25403W        W40534   0.855  11.962   0.422  0.0908 -0.1980  0.2429
25404W        W40535  18.436   8.391   3.763  0.3354  0.0211  0.0837
25405W        W40536  17.382   5.746   2.256 -0.1565  0.0172  0.2188
25406W        W40537   0.299  15.798  14.993  0.0539  0.5237  0.2258
25407W        W40538   0.751  16.857  15.189 -0.0188 -0.1214 -0.1280
25408W        W40539   3.828   4.289   0.352  0.1285 -0.2392  0.1266
25409W        W40540  15.136   0.750   3.281 -0.2050 -0.0394  0.1447
25410W        W40541   4.145  11.732  12.748  0.1272 -0.0070 -0.1466
25411W        W40542   1.425  16.701  11.514 -0.0784 -0.0139  0.0289
25412W        W40543   9.726  12.690   1.036 -0.0822  0.1638  0.1477
25413W        W40544   3.067  15.167  14.351  0.2238  0.2136 -0.0926
25414W        W40545   5.871   7.149  13.194 -0.1465  0.1642  0.2318
25415W        W40546  13.625  18.037   1.800  0.1089 -0.0525 -0.0886
25416W        W40547   8.953  12.114   1.438  0.1290 -0.1739  0.2219
25417W        W40548  15.811  18.531   3.090 -0.1418  0.3579  0.3746
25418W        W40549   2.838   9.078   1.002  0.2478 -0.1283  0.0217
25419W        W40550   5.140   4.730  14.945 -0.1316 -0.1686  0.2263
25420W        W40551  14.307  14.569   0.836 -0.1956  0.1783 -0.0377
25421W        W40552  13.632  13.942   5.504  0.2683 -0.2107 -0.1459
25422W        W40553  11.352  18.098   1.135  0.2229  0.2736 -0.2638
25423W        W40554  11.393   0.581  15.711  0.3384 -0.0673 -0.2341
25424W        W40555   9.350   1.356  15.764 -0.0052 -0.0891 -0.1922
25425W        W40556   3.491  10.440  15.699 -0.1431  0.2535  0.1620
25426W        W40557   8.704   6.218   3.721  0.0196  0.2930  0.1510
25427W        W40558  13.551  13.424   4.440  0.2683 -0.5101 -0.2947
25428W        W40559   4.640   2.282   1.888  0.2722 -0.0691  0.4285
25429W        W40560  16.951  11.335  15.025  0.0398  0.0979  0.1187
25430W        W40561   4.752  17.708   4.864  0.1042  0.3013  0.1427
25431W        W40562   6.411   0.483  11.082 -0.2485  0.4345 -0.4274
25432W        W40563  14.237   3.379  14.729 -0.1372  0.0468  0.2800
25433W        W40564  10.200  10.672   5.568 -0.1086 -0.0320 -0.4512
25434W        W40565   9.545   7.784  12.542 -0.3159 -0.1328  0.2312
25435W        W40566   0.537   9.060   4.686 -0.1311  0.2387 -0.1400
25436W        W40567   3.097  14.073   2.194 -0.3304  0.4376 -0.2959
25437W        W40568  11.638   3.733  10.191  0.1410  0.3180 -0.1438
25438W        W40569   4.058   6.941   5.362  0.0356  0.0439 -0.2141
25439W        W40570  17.664  10.683  13.315 -0.0409 -0.1354  0.2567
25440W        W40571   6.292   5.882   2.791 -0.3414 -0.0266 -0.2471
25441W        W40572   9.776   9.441  11.635 -0.2044 -0.0604  0.1284
25442W        W40573   7.297   5.906   3.631 -0.1338  0.1493 -0.1469
25443W        W40574  17.507   1.472  12.308  0.0377  0.2456  0.1723
25444W        W40575   7.134   9.350  13.027 -0.2290 -0.0898 -0.3701
25445W        W40576  17.224   9.015   6.409 -0.0519 -0.2124 -0.2644
25446W        W40577   5.406  17.070   0.911  0.2138 -0.2778  0.1158
25447W        W40578  16.872   6.859   3.256  0.0704 -0.2400  0.1158
25448W        W40579  10.678  17.013  11.921  0.0198 -0.2063 -0.3802
25449W        W40580  12.127  14.975   1.000 -0.2074  0.3719 -0.0277
25450W        W40581  11.348  17.206   4.494 -0.1730 -0.3349 -0.0398
25451W        W40582   5.366   7.048  11.421  0.0623 -0.0806  0.2772
25452W        W40583   1.844  10.917  14.822  0.1512 -0.1118 -0.1581
25453W        W40584   2.454   8.539   1.528 -0.0935 -0.5505 -0.0244
25454W        W40585  10.355  10.964  14.988  0.1444 -0.0997  0.0506
25455W        W40586   8.325  13.169   3.650 -0.0900  0.2009 -0.0929
25456W        W40587  16.206   9.209   1.518  0.1410  0.1374  0.0953
25457W        W40588  17.014  10.922   2.641 -0.3114 -0.0812  0.4530
25458W        W40589  18.110  14.737  12.871  0.0132  0.2078  0.1194
25459W        W40590   4.632   3.829   5.322  0.3482 -0.3531  0.3508
25460W        W40591  10.069  12.230  10.346 -0.0677  0.0859 -0.3040
25461W        W40592   6.277  11.790  13.798  0.4673  0.1532 -0.1374
25462W        W40593  10.247  16.111  13.983 -0.2103 -0.0494 -0.1948
25463W        W40594  12.061   5.601  15.281 -0.4207  0.1255 -0.2572
25464W        W40595   3.023   8.934  12.015 -0.1335  0.0053  0.3043
25465W        W40596   0.666   3.505  14.435  0.3399  0.0892 -0.0939
25466W        W40597   9.289   5.034   0.230  0.3281  0.2060 -0.0435
25467W        W40598  18.334  15.953  11.737 -0.0154 -0.3228 -0.0467
25468W        W40599   9.460   9.517  15.494  0.0117 -0.1121 -0.1625
25469W        W40600  17.165   0.053   4.808  0.1396 -0.2370  0.0908
25470W        W40601  13.628  13.147  12.975  0.2075 -0.2688  0.0043
25471W        W40602  15.817   6.707  14.032 -0.2111  0.1087  0.1883
25472W        W40603  11.053   3.138  15.098  0.1142  0.1527 -0.0568
25473W        W40604  15.572   9.198  12.213 -0.1552  0.1040 -0.0925
25474W        W40605   9.277   1.833  13.785 -0.1227 -0.4518 -0.3488
25475W        W40606  12.159  10.590   0.387 -0.2118 -0.2972 -0.0185
25476W        W40607  14.090   6.669  14.530  0.0661  0.0949  0.0531
25477W        W40608   4.160   9.020   0.720 -0.1905 -0.0960 -0.2000
25478W        W40609   6.902   1.226   4.561 -0.0757  0.2228 -0.3825
25479W        W40610  14.499   1.621  11.788  0.1966 -0.2833  0.1102
25480W        W40611  16.226   3.783   0.269 -0.1351 -0.1009  0.2143
25481W        W40612   7.411   3.179   3.672 -0.0734  0.0214  0.0074
25482W        W40613   2.123  16.604   2.706 -0.0716 -0.0605  0.2016
25483W        W40614   1.172  16.211  11.255 -0.0851  0.0889  0.2764
25484W        W40615  12.777   2.084  13.887 -0.4591 -0.0091 -0.0063
25485W        W40616  12.597   6.452   0.265  0.2492 -0.0512 -0.3385
25486W        W40617   4.213   8.994  11.212 -0.2586 -0.1465 -0.2808
25487W        W40618   7.103  15.945  10.531 -0.1978  0.1049  0.1675
25488W        W40619  15.780  15.299   3.271  0.2759  0.3767 -0.2715
25489W        W40620   7.445   9.558   3.385  0.1444 -0.0311  0.0902
25490W        W40621   2.482  12.649  13.176  0.1311 -0.0059 -0.0938
25491W        W40622  10.662   6.309   2.190  0.4227  0.1513 -0.2238
25492W        W40623   0.751  14.640  10.880  0.4348  0.1095  0.1743
25493W        W40624   1.663  14.431  10.678 -0.2343 -0.3059  0.0151
25494W        W40625   3.226   4.788   1.556  0.1533 -0.2107 -0.0605
25495W        W40626  17.398   9.634  15.593 -0.0319  0.0112 -0.1809
25496W        W40627   9.202   8.075   1.869 -0.0618 -0.2441 -0.0847
25497W        W40628   4.163   6.943   4.885  0.2053 -0.2159 -0.0944
25498W        W40629   2.158   2.741   5.089 -0.3557  0.2348  0.2275
25499W        W40630   7.057  13.660   1.008 -0.0937 -0.0661  0.2363
25500W        W40631   6.072  12.684  12.738 -0.0969 -0.0050  0.0670
25501W        W40632  15.701   7.678   3.024  0.1191 -0.0481  0.1134
25502W        W40633   9.249  15.046  15.569 -0.2743 -0.2375  0.0975
25503W        W40634   0.388   2.130  13.883  0.0766 -0.0870 -0.2196
25504W        W40635  11.019   9.029  11.325  0.0117  0.0183  0.2156
25505W        W40636  18.217   9.112  14.512 -0.0806  0.0278 -0.0427
25506W        W40637   4.707   0.795  12.062  0.3845 -0.0219  0.0565
25507W        W40638  17.132   1.049   0.414 -0.0592  0.4059  0.3271
25508W        W40639  11.652  17.495   1.714 -0.3197  0.0161  0.2050
25509W        W40640  13.744  16.456   4.676  0.0820  0.1866  0.0274
25510W        W40641  11.313  15.087  15.676  0.0126 -0.0136 -0.3590
25511W        W40642   3.800   6.391   3.143 -0.1533  0.1511  0.0987
25512W        W40643   7.182  12.194  12.794  0.2852 -0.1635  0.0565
25513W        W40644   1.992   4.310   3.704  0.3367  0.0364 -0.2039
25514W        W40645   2.284   4.350  10.903 -0.0148 -0.1538 -0.3594
25515W        W40646   9.180   6.250   5.595 -0.0029 -0.2011  0.1150
25516W        W40647  17.069  11.899  13.093  0.1032 -0.2552 -0.0208
25517W        W40648   7.490  17.644  11.586  0.0565 -0.0801  0.1236
25518W        W40649  12.372  14.130  11.076  0.2435  0.2744  0.0207
25519W        W40650  10.550   7.726  14.395  0.1597  0.1093 -0.0787
25520W        W40651  18.403   0.915   5.009 -0.0966  0.1575 -0.1014
25521W        W40652   5.001  12.280  12.731 -0.1541  0.0571 -0.4395
25522W        W40653   6.192  14.826  12.870  0.2454  0.0574  0.0370
25523W        W40654  16.944   7.847   1.447 -0.0641  0.1530  0.1628
25524W        W40655  14.722   3.344   2.795 -0.0297  0.2686 -0.0875
25525W        W40656   6.963   9.396   0.224 -0.1111  0.1784 -0.1202
25526W        W40657   3.963   7.941  13.884 -0.1744 -0.3737  0.2928
25527W        W40658   8.537   4.027   4.340  0.0800 -0.1151  0.1191
25528W        W40659   1.449  12.452  14.612  0.0291 -0.1190 -0.4846
25529W        W40660   2.699   3.916  12.109  0.3438 -0.0608 -0.1947
25530W        W40661   8.464   9.518  10.369 -0.0596 -0.2419  0.1534
25531W        W40662   2.714   4.917  14.368 -0.0410  0.2733 -0.0343
25532W        W40663   8.162   1.171  12.210  0.3459  0.3052  0.0597
25533W        W40664   6.981  17.344   2.912 -0.0617 -0.0866 -0.0441
25534W        W40665   2.614   7.725  14.916 -0.2920 -0.1292  0.1629
25535W        W40666   4.392  15.468  14.129 -0.0966 -0.2358 -0.0449
25536W        W40667   5.776  15.785  11.990  0.2108  0.0333 -0.2909
25537W        W40668  14.223   2.936   5.106 -0.2364 -0.3152 -0.0541
25538W        W40669   0.988  12.525   2.068  0.1999  0.2732 -0.0580
25539W        W40670   6.842  16.680  14.661  0.1092 -0.2473 -0.0885
25540W        W40671   2.429  12.791   5.060 -0.1009  0.0304  0.0747
25541W        W40672  13.035  15.425   0.639 -0.1090  0.0628 -0.1445
25542W        W40673  12.498   1.972   2.734 -0.1607 -0.1134  0.0282
25543W        W40674   2.858   2.500   2.006 -0.0591  0.0494  0.0307
25544W        W40675   4.189   6.375   1.992 -0.0362 -0.2938  0.3856
25545W        W40676  12.089  17.996  14.436  0.1141 -0.0957 -0.1937
25546W        W40677  15.345   4.936   2.182  0.1541 -0.0716  0.1426
25547W        W40678  14.752   6.655  12.305 -0.0362 -0.2305 -0.0469
25548W        W40679  10.315  10.830   3.112 -0.3724 -0.1536 -0.3812
25549W        W40680   6.410   5.626  12.346 -0.1498  0.1678  0.0648
25550W        W40681   0.606  18.460  12.506 -0.0610  0.0060  0.1232
25551W        W40682  16.407  17.193  12.139  0.3067  0.0701  0.0808
25552W        W40683  16.220   4.923   4.881 -0.0336 -0.0329  0.1885
25553W        W40684   0.010   0.020  15.750  0.0950 -0.1601 -0.2429
25554W        W40685  16.600   6.543  11.846 -0.2892  0.0288 -0.0548
25555W        W40686   2.496  10.812   3.447 -0.0553  0.1487  0.0918
25556W        W40687   6.344  13.837  11.412 -0.2590  0.0317 -0.1069
25557W        W40688   7.492   2.950  13.055  0.2931  0.2004  0.1514
25558W        W40689   7.367   9.609   5.003 -0.0087  0.2755 -0.1944
25559W        W40690   7.853  15.816   4.274  0.0167 -0.2141 -0.3215
25560W        W40691   4.992  10.107   0.697  0.3289  0.1472 -0.0885
25561W        W40692   1.097  13.293  15.187 -0.1912  0.1392 -0.0783
25562W        W40693   1.111  15.893   2.238  0.0065 -0.2624 -0.0421
25563W        W40694  14.329   6.964   0.771 -0.0464 -0.2853  0.0328
25564W        W40695   0.206  16.267  11.023  0.1702 -0.1781 -0.0305
25565W        W40696   6.541  14.378  11.299 -0.2062 -0.3518 -0.1057
25566W        W40697   1.071   4.758   4.243  0.0394 -0.3589 -0.0011
25567W        W40698  16.166   4.098   2.762 -0.1169  0.1435 -0.1608
25568W        W40699   8.107  10.425   0.888 -0.0962  0.0434  0.2237
25569W        W40700   6.895  15.432   1.485 -0.1575 -0.2572  0.0766
25570W        W40701   7.288   3.568   4.230  0.0373  0.0265 -0.1943
25571W        W40702   0.491   0.617  14.404  0.0308  0.0758  0.2032
25572W        W40703   2.746  14.159  15.828 -0.0747  0.2068 -0.0271
25573W        W40704  11.104   5.441   5.039  0.1918 -0.2755  0.1527
25574W        W40705  17.699   4.843  12.885  0.0386  0.1971 -0.0918
25575W        W40706   9.089   0.230  12.079 -0.1019 -0.1650  0.0652
25576W        W40707  15.367  18.160  13.401  0.1535  0.0987  0.0612
25577W        W40708  10.540  16.676  14.774 -0.0887 -0.4437 -0.1714
25578W        W40709   4.873  17.305   4.558  0.1116  0.0240  0.0673
25579W        W40710   1.627  15.366   1.524  0.1014 -0.1590 -0.1137
25580W        W40711  16.989  17.331  13.291 -0.0697  0.3931  0.4306
25581W        W40712  14.987  14.457   4.761 -0.1170 -0.1609  0.1288
25582W        W40713   1.091   7.132   0.734  0.0748 -0.1429 -0.1470
25583W        W40714  16.457  10.607   3.942  0.3017 -0.0153 -0.1672
25584W        W40715   9.183  16.108  15.876  0.0485 -0.3926 -0.3528
25585W        W40716   0.464   2.053   2.835  0.0861 -0.0033  0.0283
25586W        W40717   3.928   1.119   2.537 -0.0630  0.2162 -0.3607
25587W        W40718  11.350  11.726  12.163 -0.2169 -0.2706 -0.0026
25588W        W40719   4.786   3.133  13.609 -0.1306 -0.1023  0.1012
25589W        W40720   2.998   6.788   4.443  0.4506  0.0133  0.0901
25590W        W40721  11.120  14.038   4.330  0.1904  0.3794  0.0869
25591W        W40722  13.247   8.436  11.183 -0.3592  0.0598 -0.0417
25592W        W40723   7.508  14.713   4.901  0.0865 -0.2221 -0.1132
25593W        W40724   9.192   1.842  10.602  0.2891 -0.2254  0.2587
25594W        W40725   0.373  13.271  14.337 -0.2721  0.1356 -0.0821
25595W        W40726  11.950   2.096   3.660  0.2084  0.1988 -0.0145
25596W        W40727   1.795   3.262  12.139 -0.1310  0.1731  0.0726
25597W        W40728   0.460   1.114  15.594  0.1005 -0.2186  0.1248
25598W        W40729  14.140   4.971   3.479  0.1468 -0.2981  0.1439
25599W        W40730  15.980  12.072  12.050  0.2523 -0.0829 -0.1098
25600W        W40731  14.061   7.226   3.690 -0.3209  0.3278  0.0690
25601W        W40732  11.300  13.371  14.646  0.1165  0.1199  0.0980
25602W        W40733  12.192  12.711  13.105 -0.0175  0.1350 -0.2303
25603W        W40734   4.197  11.079  11.933 -0.0842  0.1302  0.2411
25604W        W40735  10.583  11.397   1.299 -0.0064 -0.1778  0.1217
25605W        W40736   1.002   6.710  11.646 -0.2275  0.0115  0.0242
25606W        W40737   2.351  10.031   0.853  0.1217  0.2497  0.1842
25607W        W40738   0.707  13.411  11.451  0.2096 -0.2548  0.2681
25608W        W40739   2.217   4.009   2.933 -0.0415  0.3214 -0.2765
25609W        W40740  14.051  14.565   5.795 -0.0693  0.0598 -0.0983
25610W        W40741  10.673  14.100   4.629 -0.2650  0.0341  0.0287
25611W        W40742  13.441  14.572  13.615  0.0999 -0.0210 -0.2886
25612W        W40743   7.303  13.923   4.795  0.4301 -0.2528 -0.1213
25613W        W40744  15.015  15.982  13.856  0.1841 -0.4343 -0.3095
25614W        W40745  14.057   6.957  13.982 -0.0099  0.0632 -0.2995
25615W        W40746  18.082   9.882   3.817  0.0030  0.0406 -0.1618
25616W        W40747   6.738  12.206  15.021  0.3048 -0.1006  0.0511
25617W        W40748   2.503  13.242  13.211  0.3658  0.0379  0.1503
25618W        W40749  14.290  15.780   1.175 -0.0551  0.0072 -0.0638
25619W        W40750  11.232   0.621  11.542 -0.1891 -0.3087 -0.0054
25620W        W40751   5.035  17.426  13.341 -0.3389 -0.0167  0.0795
25621W        W40752  16.095   9.586  12.083 -0.3851 -0.2129 -0.0896
25622W        W40753  15.619   7.243  15.272  0.0016  0.2056 -0.2014
25623W        W40754   0.861   1.195   0.431  0.3563 -0.3068  0.0509
25624W        W40755  13.719   8.221  11.233  0.2237  0.1456 -0.1937
25625W        W40756  10.870  12.732   2.586  0.0197 -0.2736  0.1126
25626W        W40757   3.288   9.652   5.115  0.5185 -0.2280 -0.0092
25627W        W40758   6.529  16.425  13.631  0.1261  0.2293  0.0254
25628W        W40759   4.411   8.878   5.852  0.1377  0.0401 -0.2844
25629W        W40760   3.493   8.889  10.778 -0.3606  0.0403 -0.0265
25630W        W40761  18.468  12.063   2.992 -0.0251 -0.0816 -0.3342
25631W        W40762   8.422   5.934   5.214 -0.0383  0.0884 -0.1912
25632W        W40763   6.615   0.105  14.211  0.1825 -0.1717 -0.1233
25633W        W40764   3.843   0.129  13.806  0.4505  0.0190 -0.0396
25634W        W40765  18.111   0.827   0.203 -0.0952 -0.4899 -0.3477
25635W        W40766  12.032   1.136   5.191 -0.1478  0.1791 -0.0748
25636W        W40767   6.250  12.272  15.363 -0.0529  0.0095  0.1555
25637W        W40768  15.251  11.315  15.098 -0.0499 -0.1496  0.1462
25638W        W40769  15.704   9.873   5.265 -0.0424 -0.1423 -0.0943
25639W        W40770  16.653   2.280  13.668  0.1973  0.1054 -0.4815
25640W        W40771  15.109   7.526  14.269  0.2631  0.0488  0.3500
25641W        W40772   4.616  10.371  15.633  0.0425 -0.3056 -0.2698
25642W        W40773   2.076   0.873  11.533 -0.3264 -0.0660  0.0116
25643W        W40774   9.479  17.411   3.655 -0.1289 -0.0951  0.1354
25644W        W40775   1.444   0.983   3.343 -0.0690 -0.1649  0.1344
25645W        W40776  17.912   1.425   5.332  0.0805 -0.0967  0.2451
25646W        W40777  11.250   1.146   3.781  0.2257  0.2733  0.1251
25647W        W40778   2.662  15.828   2.891  0.1398 -0.0713 -0.3246
25648W        W40779   0.663  15.214   1.819  0.0719 -0.2427  0.1536
25649W        W40780  11.700   5.846   4.383 -0.1487 -0.0558 -0.2093
25650W        W40781   4.855   0.097   1.040  0.0888  0.1713 -0.2818
25651W        W40782  15.649   1.818   2.474 -0.0245 -0.1821 -0.2123
25652W        W40783  12.167   9.353  11.574 -0.0713 -0.1599  0.2137
25653W        W40784  18.337  12.399   2.643  0.1235  0.1799  0.0865
25654W        W40785   6.876   7.792  14.316 -0.0744 -0.0061 -0.0215
25655W        W40786   9.306   5.083   4.860  0.3941 -0.0103 -0.1738
25656W        W40787  17.343  11.102  10.517 -0.0974 -0.1616  0.1306
25657W        W40788  11.640   7.159   1.679  0.0615  0.1586  0.3310
25658W        W40789  10.266   6.576  10.307  0.0292 -0.2027 -0.2446
25659W        W40790   2.420   8.780   2.782 -0.0238 -0.0825  0.0754
25660W        W40791  16.370  11.461   3.736  0.0403  0.1863 -0.2102
25661W        W40792  11.198   2.849  12.481 -0.2853  0.1232  0.0416
25662W        W40793   6.758   1.841  11.541  0.2703  0.1487  0.0299
25663W        W40794   7.370   8.217  11.657 -0.1267  0.0464 -0.3688
25664W        W40795  11.383   3.752  14.685  0.0294 -0.0379  0.2637
25665W        W40796  16.878  10.217  10.026  0.3875  0.0717  0.2153
25666W        W40797  10.403   3.712   0.236 -0.0552 -0.0092 -0.1352
25667W        W40798  15.272   0.723   1.531  0.0748  0.2224 -0.0012
25668W        W40799   6.399   3.160   1.584  0.2211 -0.1369 -0.2764
25669W        W40800  18.343  18.469   0.980 -0.1726 -0.1017  0.0594
25670W        W40801   8.394  16.862   4.515 -0.2818 -0.0248 -0.0611
25671W        W40802   8.275   0.600   0.374 -0.0114  0.0461 -0.0489
25672W        W40803   0.779  15.502  12.487  0.0648  0.0410  0.0409
25673W        W40804  14.412   4.914   1.858 -0.0552 -0.2093  0.1668
25674W        W40805   2.671  15.362  13.588 -0.4032 -0.0815  0.1021
25675W        W40806   6.454   2.525  15.222  0.1377 -0.3158 -0.0178
25676W        W40807  17.551   5.402  13.515 -0.3074  0.2688 -0.0399
25677W        W40808  16.356   9.817  12.535  0.0045  0.1569 -0.1215
25678W        W40809  10.490   2.160  15.070 -0.0764  0.0467 -0.1238
25679W        W40810   9.429  11.931  15.333 -0.0448  0.1494 -0.1566
25680W        W40811   2.813   0.469   5.945 -0.3229  0.3274 -0.2659
25681W        W40812   6.234   6.030  12.573  0.0901  0.3351 -0.0957
25682W        W40813  10.990   7.095  13.922  0.2948 -0.1396 -0.0238
25683W        W40814   6.724  13.871  10.654  0.0157 -0.0727  0.0741
25684W        W40815   0.508   7.189   1.395  0.2255 -0.0872 -0.1795
25685W        W40816   5.608  15.553   3.846  0.2907  0.0612  0.2711
25686W        W40817   4.806  15.362   0.916  0.1481 -0.1028 -0.0744
25687W        W40818  10.608   6.468  13.835 -0.3450 -0.1123 -0.0229
25688W        W40819   4.192  14.118   4.400  0.0282 -0.0830  0.1273
25689W        W40820  10.725   6.375  15.085 -0.0656 -0.3580 -0.0319
25690W        W40821  12.078   6.304   4.316 -0.4123 -0.2919  0.1611
25691W        W40822   8.486   2.488  14.275  0.1429 -0.0030  0.0573
25692W        W40823   1.305  13.594   2.979  0.0473  0.2199  0.2905
25693W        W40824  16.348   8.604   4.827 -0.1647  0.0702  0.1002
25694W        W40825  10.696  11.516  10.592 -0.1242  0.1759 -0.0784
25695W        W40826  15.301   1.529  11.301 -0.2943  0.2644 -0.0956
25696W        W40827  10.476  13.873  15.482  0.1302 -0.0266 -0.1752
25697W        W40828  11.886   0.184  11.073  0.0274 -0.1184 -0.1529
25698W        W40829  12.666  11.431   2.927  0.1816 -0.1173  0.3451
25699W        W40830  11.494  11.082   2.624  0.1421  0.4981  0.1866
25700W        W40831   6.714   0.335   4.053  0.2551 -0.1827 -0.1407
25701W        W40832   4.544   6.191   5.375  0.4928  0.2003 -0.1509
25702W        W40833   7.258   8.561  10.406 -0.1608  0.0610 -0.0246
25703W        W40834   0.785   6.667   5.225  0.1906 -0.0816 -0.0833
25704W        W40835  16.087  13.424   3.619 -0.0792 -0.1774 -0.2526
25705W        W40836  12.687   3.862  10.737 -0.0224  0.5429  0.0367
25706W        W40837   2.120   5.286  14.005  0.1862 -0.1225  0.0171
25707W        W40838   6.243  11.764   1.081  0.1558  0.1937 -0.0367
25708W        W40839  11.744  11.388  14.727 -0.0866 -0.0561  0.0500
25709W        W40840   6.702  15.966   2.504  0.1755  0.2651  0.2711
25710W        W40841   7.688  12.259  14.666  0.0784  0.2588  0.2626
25711W        W40842  10.318   8.622  10.827  0.3461  0.2090 -0.1033
25712W        W40843   8.446   5.073   5.227  0.0869 -0.0239 -0.1860
25713W        W40844  13.961  17.778   1.608  0.2833 -0.0228  0.0015
25714W        W40845  14.380   1.336  14.081 -0.1180  0.3443 -0.0187
25715W        W40846   8.573   8.938   0.771 -0.0725  0.2854 -0.1918
25716W        W40847  11.855  16.355   0.287  0.2142 -0.1734 -0.2608
25717W        W40848  10.217  13.957  14.435  0.0443 -0.0166 -0.5454
25718W        W40849   2.594  16.830  13.582  0.0121  0.0472  0.1788
25719W        W40850  16.180   6.988   0.747 -0.1387  0.2326  0.0505
25720W        W40851  15.207   3.920  14.429 -0.1709 -0.1111 -0.2283
25721W        W40852   9.290  16.362   4.560 -0.0278  0.0622  0.2320
25722W        W40853   3.469   2.700   2.910 -0.3128  0.0048  0.3354
25723W        W40854   4.788  13.971   4.384 -0.1771 -0.0207  0.4931
25724W        W40855  11.104   5.009  12.491 -0.1328 -0.1567 -0.1715
25725W        W40856   3.697   2.507  10.359  0.0683  0.0994 -0.2787
25726W        W40857   7.078   7.320  11.393  0.1436  0.2274  0.1405
25727W        W40858  11.319  10.148  15.812  0.1874  0.0485  0.1733
25728W        W40859  17.233   2.426   5.393  0.1774 -0.1385  0.2392
25729W        W40860   0.319  17.135  12.525 -0.1658  0.2739  0.2302
25730W        W40861   1.160   3.118  13.894  0.0392 -0.1096  0.0405
25731W        W40862   4.830   3.021   1.272 -0.2284 -0.0470  0.2765
25732W        W40863   3.323   5.743  11.475 -0.1354  0.0299 -0.0495
25733W        W40864   5.363  15.511   0.120 -0.0655 -0.1785  0.2160
25734W        W40865   2.807  18.215   3.381 -0.0618 -0.0808 -0.0765
25735W        W40866   4.587   5.120   3.015  0.2666  0.1190  0.1735
25736W        W40867   0.516  11.634   5.382 -0.3892 -0.0958  0.0370
25737W        W40868  12.392   5.295   4.657 -0.3026  0.2340  0.1837
25738W        W40869   6.190   6.626  13.810  0.1130  0.0746 -0.0127
25739W        W40870   1.490  13.231  13.433  0.2373  0.3296 -0.0949
25740W        W40871  17.065  17.415  15.292  0.0915 -0.2333 -0.0922
25741W        W40872  11.870   8.703  11.525 -0.1173 -0.1406  0.3451
25742W        W40873   0.880   6.928  14.327 -0.0420  0.2037  0.2083
25743W        W40874  16.423   9.340  13.915 -0.3343  0.1289  0.0684
25744W        W40875  14.007   5.057   2.088  0.2236  0.0788 -0.1416
25745W        W40876  13.735   9.343  14.617 -0.1521  0.0787  0.1146
25746W        W40877   1.413  14.757   0.804  0.2629 -0.3591 -0.0654
25747W        W40878  10.265  17.041  15.000  0.1163  0.2932 -0.0921
25748W        W40879   9.348   5.127  13.672 -0.2362  0.0927 -0.2733
25749W        W40880   2.707   3.895   0.053 -0.3627  0.1230 -0.0345
25750W        W40881  13.914   8.323   2.419  0.0968  0.0648 -0.3201
25751W        W40882   0.925  13.271  13.000 -0.0969 -0.1353  0.0183
25752W        W40883   1.621   5.919  13.163 -0.0992 -0.0245  0.4350
25753W        W40884  12.886  15.430   2.425 -0.1595 -0.0307  0.1433
25754W        W40885  15.822  15.014  10.073  0.0432  0.1968  0.0745
25755W        W40886   9.263  15.157  11.695 -0.3423  0.1662 -0.1639
25756W        W40887   9.846   7.569  15.337  0.2265 -0.0003  0.1400
25757W        W40888  13.981   6.766  15.224  0.1955 -0.1600  0.0837
25758W        W40889   0.914   1.260  12.099 -0.0070 -0.2831 -0.4796
25759W        W40890  16.696   0.009   1.668  0.0308 -0.1954 -0.1454
25760W        W40891  16.655   1.159   6.295  0.3424 -0.0254 -0.0749
25761W        W40892  17.837  13.331   2.655 -0.2651 -0.1131  0.1583
25762W        W40893  16.107  12.777   4.097  0.0758 -0.0555  0.0608
25763W        W40894  10.481  11.549  13.168  0.2028  0.0074 -0.0846
25764W        W40895  18.388   8.134  13.438 -0.0457  0.0766 -0.0447
25765W        W40896   4.995   3.146  15.421 -0.0209 -0.2017  0.1640
25766W        W40897   8.520   5.962   6.156 -0.0381 -0.0155  0.0728
25767W        W40898   8.517   9.940  14.893  0.1425  0.1880  0.1797
25768W        W40899  14.253  15.877   4.199 -0.2972  0.0437  0.0384
25769W        W40900   3.502   6.410  15.177 -0.0682  0.0470  0.1241
25770W        W40901   3.024  18.077  15.565 -0.0144 -0.1652  0.2262
25771W        W40902  12.157   8.516   2.998 -0.1750 -0.2725 -0.0625
25772W        W40903   4.700  12.362   1.624  0.1939 -0.1444  0.3521
25773W        W40904  16.122   8.133   5.021  0.0122  0.2878  0.1629
25774W        W40905  17.890  11.419   2.167  0.3984  0.0995  0.0790
25775W        W40906  17.814   3.363   3.257  0.1670  0.3352 -0.0243
25776W        W40907   2.900   8.570   2.897 -0.2024 -0.0364 -0.1235
25777W        W40908  11.602   3.214  10.116  0.0322 -0.1008 -0.0028
25778W        W40909  11.730   1.115  15.044 -0.2788 -0.1320  0.1682
25779W        W40910   7.906  13.110   0.044 -0.0190 -0.1039 -0.0746
25780W        W40911   8.687  14.921  12.803 -0.2340  0.4715  0.1032
25781W        W40912   0.483   9.748  10.617 -0.1720  0.3617  0.4201
25782W        W40913   2.006   7.014   5.577 -0.1854 -0.1568 -0.1197
25783W        W40914   9.776   4.685   4.014 -0.0899  0.0127  0.0084
25784W        W40915   5.791  14.171   3.563  0.0017  0.0600  0.0810
25785W        W40916   6.566   1.372   3.599 -0.2176 -0.1374 -0.0244
25786W        W40917   4.411  14.512  14.075 -0.2366  0.1062  0.0763
25787W        W40918   7.519   2.274  12.127 -0.1877  0.2514 -0.1741
25788W        W40919  10.513  17.509   5.017  0.1316 -0.0722 -0.0553
25789W        W40920  14.455  14.531  11.651 -0.0895 -0.0927  0.1339
25790W        W40921  16.576   7.777   1.799 -0.2357 -0.0844 -0.4676
25791W        W40922   1.916  17.498   0.629 -0.1991  0.0410  0.1072
25792W        W40923   5.159  14.877  12.512  0.0695 -0.0839  0.1285
25793W        W40924  11.178   8.149  11.829 -0.2920  0.2136 -0.2528
25794W        W40925   5.826  16.078   2.391  0.0733 -0.1874 -0.0816
25795W        W40926  18.139  12.333   3.545 -0.2486  0.0466  0.1900
25796W        W40927   9.410  16.354   3.693  0.0878 -0.0980  0.0045
25797W        W40928  12.088  17.587   3.811 -0.0585 -0.1265  0.1414
25798W        W40929  17.362   0.770  12.186 -0.1877 -0.0228  0.1664
25799W        W40930  12.972   9.189  11.878 -0.1861  0.2051  0.2333
25800W        W40931  16.867   2.122   0.607  0.1166 -0.2246  0.0801
25801W        W40932  12.630   5.510   1.675 -0.0635  0.0462  0.2248
25802W        W40933  18.106   9.045   2.593 -0.3128  0.2499  0.0096
25803W        W40934  12.340  15.975  15.469  0.2685  0.1988 -0.2230
25804W        W40935  11.258   6.327   3.695 -0.1452  0.0384 -0.0368
25805W        W40936  13.193   0.790  12.969 -0.0508  0.3182 -0.3896
25806W        W40937   2.356   4.188   0.523  0.1048 -0.1463 -0.1139
25807W        W40938   6.711  15.457  11.318 -0.2546 -0.1021 -0.1401
25808W        W40939  10.705  11.342   4.174 -0.1051 -0.1757 -0.0084
25809W        W40940  10.408   0.136  13.010  0.0409  0.2150 -0.0640
25810W        W40941  11.829  10.763  11.051  0.2381 -0.1609 -0.1258
25811W        W40942   6.236  18.121   3.174 -0.0420  0.1960 -0.0950
25812W        W40943  13.527   1.758  15.037  0.0708  0.0946 -0.3194
25813W        W40944   8.572  13.124   2.579 -0.2143  0.2186  0.0923
25814W        W40945   3.404   1.756  13.488  0.1069  0.1522  0.0764
25815W        W40946  17.884   3.113   5.008 -0.1422  0.0827  0.0330
25816W        W40947   9.740  18.034  14.174 -0.3067 -0.1165 -0.0675
25817W        W40948   5.693  18.334  10.210  0.3189 -0.0574 -0.2678
25818W        W40949   0.712  13.484  10.580  0.0716 -0.2010  0.0986
25819W        W40950  10.414   0.924  12.340 -0.1231 -0.0847  0.0981
25820W        W40951  11.796  12.863  10.624 -0.1877  0.1889  0.2285
25821W        W40952   7.518  15.330  13.871  0.1876  0.3564 -0.2935
25822W        W40953   9.080   6.207  12.891  0.0387  0.0515  0.0284
25823W        W40954  10.913   5.313   6.213  0.0413 -0.0344  0.1825
25824W        W40955   0.939   6.722   0.585 -0.1574  0.2877  0.1549
25825W        W40956   6.283  14.962  15.216 -0.1128 -0.2827  0.2097
25826W        W40957  14.111   1.105  15.441 -0.3449  0.0675  0.2773
25827W        W40958  15.123   2.436   5.750  0.3374 -0.0344  0.0655
25828W        W40959   6.889  11.278  14.571  0.0849 -0.0519 -0.1108
25829W        W40960   3.882  11.851   2.673  0.1036  0.2566  0.1310
25830W        W40961   5.013  18.296   3.464 -0.2373  0.1943  0.0178
25831W        W40962   4.041  11.348  14.892  0.0979  0.0286  0.0990
25832W        W40963   4.365   4.085  15.777 -0.3175  0.1364  0.0397
25833W        W40964  18.180  10.097  10.894 -0.1604  0.1627  0.2750
25834W        W40965   0.664   2.274   0.025 -0.2358 -0.0424 -0.0669
25835W        W40966  12.333   5.764   0.419  0.1675  0.1709 -0.1084
25836W        W40967  11.774   6.208  12.348 -0.1121  0.1029  0.1853
25837W        W40968  15.273   9.309   4.994  0.1437 -0.3422 -0.1773
25838W        W40969  18.147  14.844   1.968  0.0826  0.1397  0.1347
25839W        W40970   5.040  12.862  14.894 -0.2362 -0.3346 -0.1720
25840W        W40971  16.892  10.513  11.147 -0.0826  0.1222  0.1303
25841W        W40972   8.583   3.188   2.238 -0.2240  0.0287  0.0319
25842W        W40973   0.448   2.029   0.897 -0.0572  0.1090  0.0291
25843W        W40974  13.629   6.006   0.951  0.0265  0.2097 -0.1390
25844W        W40975   7.379  11.632   4.570 -0.0981 -0.1364 -0.0848
25845W        W40976   9.596   8.188   4.598  0.1201  0.1205  0.3494
25846W        W40977   7.792  13.239   3.620 -0.0226  0.0419 -0.0919
25847W        W40978  12.554  13.145  13.253  0.0042 -0.3452  0.0988
25848W        W40979  12.248  16.005   0.697  0.2417 -0.0779 -0.0608
25849W        W40980  17.193   2.436   1.533  0.2096  0.1806  0.1869
25850W        W40981  17.724  17.653   5.750  0.3262  0.2275 -0.4851
25851W        W40982   7.473   4.319   1.041 -0.1098  0.2672  0.0711
25852W        W40983   6.156   7.477   3.830  0.1440  0.0769  0.1833
25853W        W40984   8.596   4.416   3.994 -0.1176  0.2718  0.1096
25854W        W40985  17.658  10.811   1.032 -0.1279  0.2092  0.1607
25855W        W40986  10.081  17.676   1.231  0.0804 -0.0193  0.3953
25856W        W40987   2.586  16.050   2.052 -0.1255 -0.0491 -0.0880
25857W        W40988  15.161   3.334  12.225 -0.0739 -0.1265 -0.2161
25858W        W40989  13.762  13.191  10.496  0.1531  0.2951  0.0535
25859W        W40990  15.436   7.967  11.908  0.0236 -0.1876  0.1426
25860W        W40991   3.219  12.355   3.320  0.0672 -0.1878  0.0602
25861W        W40992  14.577   9.856   1.134  0.0086 -0.0686 -0.1834
25862W        W40993  15.427  10.508  15.669  0.1245 -0.2098 -0.0247
25863W        W40994   9.426   0.200  14.755 -0.1006 -0.2945  0.0962
25864W        W40995   1.059   1.980  13.211 -0.0703  0.1683  0.3889
25865W        W40996  18.018  12.802   2.070 -0.0426  0.0662 -0.0307
25866W        W40997  12.252  13.590   1.797 -0.0641  0.1294 -0.1099
25867W        W40998   8.481  17.249  14.117 -0.1619  0.0807 -0.1877
25868W        W40999  12.867  14.979  14.035  0.1591  0.0345  0.0973
25869W        W41000  13.352  14.441  15.453 -0.0131  0.1291  0.1919
25870W        W41001  18.165   6.108   2.726  0.1388 -0.0412  0.0096
25871W        W41002  10.882   4.849   2.372 -0.2039  0.0356  0.1544
25872W        W41003   3.458   2.716  10.929  0.1040  0.1545 -0.0245
25873W        W41004   3.371   8.580  11.205  0.1031  0.2109  0.3215
25874W        W41005   1.773   7.412   2.848 -0.1778  0.0570  0.1968
25875W        W41006   3.425   3.364  14.442 -0.1470  0.2281  0.3285
25876W        W41007   0.295   9.724   0.525  0.1360 -0.0251 -0.0147
25877W        W41008  15.719  10.068  12.799  0.1436 -0.1129 -0.3259
25878W        W41009  16.600   0.519  12.930  0.1548 -0.0390 -0.0250
25879W        W41010  13.871   7.212  11.045  0.1370  0.1279  0.1432
25880W        W41011   7.717   2.943  12.538 -0.6849  0.0094  0.1203
25881W        W41012  15.944  13.543   3.002  0.4519  0.1793  0.1535
25882W        W41013   2.646  11.599   3.528  0.4629  0.2118 -0.0551
25883W        W41014   7.205  15.821  13.084 -0.1512  0.1154 -0.4107
25884W        W41015  11.407   0.528   3.098 -0.0634 -0.0597 -0.0553
25885W        W41016   9.754   5.156   1.232 -0.0705  0.3151 -0.1895
25886W        W41017   3.381   2.482   5.290  0.1758  0.4574  0.0898
25887W        W41018  12.765   1.331   5.263  0.0273  0.0176 -0.0524
25888W        W41019  10.063  11.405   0.970  0.2559  0.3328  0.0446
25889W        W41020  16.717  15.891  10.578 -0.1917 -0.1039  0.0546
25890W        W41021   3.075   2.417  14.232  0.0849 -0.0880  0.1288
25891W        W41022   6.085   8.055   3.749  0.0230 -0.0646  0.1348
25892W        W41023   8.166   2.139   4.869  0.3173 -0.0359 -0.3893
25893W        W41024  17.087   3.896   0.353 -0.0673 -0.0274  0.1343
25894W        W41025   1.623  18.029   0.622  0.2702 -0.1676  0.4368
25895W        W41026   4.952   9.167   2.773 -0.0763  0.1489 -0.2067
25896W        W41027  16.094   8.227   0.313 -0.0724  0.1678  0.2060
25897W        W41028   0.488  10.123   5.556 -0.0712  0.1975 -0.1696
25898W        W41029   1.048  10.129   2.787  0.0071  0.2156  0.0436
25899W        W41030   4.552   7.505  14.005 -0.0196 -0.0405  0.2102
25900W        W41031  14.573   2.126   0.889  0.0000 -0.2109  0.0498
25901W        W41032   6.713   9.966   5.414 -0.2472  0.1944 -0.1929
25902W        W41033  15.002   6.872   6.151  0.3990 -0.0296 -0.1300
25903W        W41034   3.442   1.502   0.319  0.1935 -0.1522 -0.3001
25904W        W41035   7.007  10.444  11.479 -0.0514 -0.0235 -0.1212
25905W        W41036   7.986  18.437   2.398  0.0132 -0.2007 -0.0778
25906W        W41037   3.473  15.800   0.421  0.2805  0.1884 -0.1429
25907W        W41038   1.372  11.613   4.937  0.2252  0.0989 -0.1945
25908W        W41039  17.699   7.182   1.254  0.0447 -0.0460 -0.0969
25909W        W41040  15.200  11.440  15.540 -0.0693 -0.0327 -0.2164
25910W        W41041  14.986  16.403   5.194  0.3875 -0.3127  0.2961
25911W        W41042   8.651  16.172  13.382  0.1041  0.2169  0.2411
25912W        W41043  17.013  12.941  10.948 -0.2015 -0.0349  0.0299
25913W        W41044  15.695   8.788   2.615 -0.1135  0.3405 -0.0204
25914W        W41045   3.065  17.905   1.783 -0.3033 -0.0429  0.1585
25915W        W41046   5.674  10.739  11.688 -0.1330 -0.3080  0.2385
25916W        W41047   2.310  13.772   5.487 -0.0705  0.0261 -0.1786
25917W        W41048   5.653   8.109   2.621  0.1085 -0.2720 -0.1444
25918W        W41049   4.690   4.450  15.178 -0.2009 -0.1903  0.0595
25919W        W41050  13.512   7.082  14.124 -0.0602 -0.0516 -0.1851
25920W        W41051  10.142   0.879   1.583 -0.0295  0.4181  0.0061
25921W        W41052  16.373   5.610   1.988  0.1198  0.0565 -0.1673
25922W        W41053   6.062  12.435  13.643  0.0154  0.1905 -0.0395
25923W        W41054   0.329   0.253  14.710 -0.1024  0.0305 -0.0060
25924W        W41055   6.187   5.612   2.302 -0.1022 -0.0529  0.0130
25925W        W41056  13.899  16.690  15.683  0.1195  0.0895  0.1292
25926W        W41057   2.438   7.373   1.691 -0.1925  0.2679 -0.1735
25927W        W41058   1.866   2.744  12.143 -0.2162 -0.0770 -0.1352
25928W        W41059   8.895  12.641   3.501  0.3585 -0.0754  0.2375
25929W        W41060  18.446  16.880   1.203  0.0646  0.3518 -0.1719
25930W        W41061  12.622   4.843  14.270 -0.0349 -0.1548  0.0643
25931W        W41062   5.883   0.747  10.821  0.2154 -0.1873 -0.0788
25932W        W41063   5.953  14.355   3.065  0.2239 -0.1737 -0.1608
25933W        W41064   9.290  11.887  12.415 -0.2678 -0.0104  0.3052
25934W        W41065   5.369  10.848  15.800  0.2114  0.0256 -0.0681
25935W        W41066   4.093  11.543  10.387 -0.3142 -0.1637 -0.1529
25936W        W41067   7.292   8.244   4.991 -0.1290  0.0276 -0.1619
25937W        W41068  18.099   7.875   5.569  0.1957 -0.0275  0.0001
25938W        W41069  11.740   5.787  12.649  0.1567 -0.0292 -0.0190
25939W        W41070  16.601  15.136   3.791  0.3324  0.1032 -0.0959
25940W        W41071  15.843   8.757   2.149  0.1099  0.2837  0.2400
25941W        W41072   0.936   9.447   1.329  0.0023 -0.5382  0.1041
25942W        W41073  13.728   0.023   1.083  0.1649  0.0956  0.0952
25943W        W41074   3.808   3.023  10.105 -0.3020  0.1342  0.1559
25944W        W41075   3.436   2.147  10.168  0.1644  0.2286  0.1759
25945W        W41076  12.910  13.622   5.241  0.3582 -0.0999 -0.1562
25946W        W41077   3.920  12.191   5.861  0.2565  0.4413 -0.1004
25947W        W41078   9.116   0.879  14.495  0.0571 -0.0073 -0.0056
25948W        W41079   2.508   1.438  13.282  0.0454  0.1240  0.3008
25949W        W41080  11.134  14.660  10.852 -0.0615 -0.0366  0.1590
25950W        W41081  12.153  14.291   5.124  0.2081  0.4551 -0.3102
25951W        W41082   1.595  15.112   1.968 -0.0551 -0.0758 -0.2292
25952W        W41083  14.801   0.776   2.216 -0.0146  0.0697 -0.0414
25953W        W41084  13.482   7.564   2.942 -0.0714 -0.3292 -0.0896
25954W        W41085   8.826   4.326  11.033 -0.0552  0.1188  0.0992
25955W        W41086  14.996   5.173  13.221 -0.0020 -0.2658  0.1364
25956W        W41087  16.014  11.218   1.790  0.0649 -0.2459  0.0992
25957W        W41088   1.622  16.253  12.376 -0.1916 -0.1348 -0.5364
25958W        W41089  10.311  14.602   3.072  0.1340  0.0040  0.1580
25959W        W41090  18.029   3.976   0.528  0.0317 -0.0942 -0.1660
25960W        W41091   9.635   1.527   2.977 -0.0152  0.3180 -0.2563
25961W        W41092   4.695   2.857   9.983 -0.2448 -0.4567  0.0102
25962W        W41093   0.702  10.745   1.617 -0.2883 -0.0945  0.2029
25963W        W41094   2.338  15.524   1.110  0.1154 -0.1456  0.1253
25964W        W41095  13.358   0.969   0.435  0.3793 -0.2578  0.0863
25965W        W41096   6.175  17.397   2.603  0.0005  0.0458 -0.1196
25966W        W41097  13.335   7.987  10.941 -0.1272 -0.1152 -0.0348
25967W        W41098   5.740   7.315   1.478 -0.0821  0.0459  0.2563
25968W        W41099   5.741   1.467   4.834 -0.0052  0.0123 -0.1854
25969W        W41100   0.103  10.491   1.137 -0.0435 -0.2436 -0.2543
25970W        W41101  15.145   4.371  13.330 -0.0284  0.1060  0.0783
25971W        W41102   4.267  16.541  11.022 -0.0444  0.2105 -0.0348
25972W        W41103   3.286   3.751   5.213  0.1331  0.0861  0.2232
25973W        W41104   3.256  16.018   2.226 -0.0154 -0.1078 -0.0851
25974W        W41105   7.587   1.499  11.711 -0.1965  0.2805  0.0871
25975W        W41106  12.987  10.895  10.344 -0.0159 -0.0621  0.2322
25976W        W41107   6.995   8.631  13.814 -0.0515  0.2936  0.0175
25977W        W41108  12.202   3.792  13.147  0.0544  0.2557  0.0679
25978W        W41109   0.945   3.845  10.926 -0.1125 -0.1166  0.1857
25979W        W41110  18.341   8.593  13.240  0.2199 -0.3885  0.0071
25980W        W41111   9.252  13.931   1.767  0.1153 -0.0280  0.0148
25981W        W41112  15.891  10.159   1.017  0.0864 -0.2023  0.0878
25982W        W41113  17.762  10.240   4.118 -0.4893 -0.3049 -0.0725
25983W        W41114  13.120  17.197   4.445  0.0831 -0.2847  0.0998
25984W        W41115  14.833  14.789   2.051 -0.0765  0.2116  0.0360
25985W        W41116   2.872  14.468   3.834  0.0616 -0.0744  0.2919
25986W        W41117   2.316   0.535  14.835  0.2053  0.0306 -0.1177
25987W        W41118  18.334   0.511  15.803 -0.2630 -0.1035  0.0596
25988W        W41119  12.618   8.238   6.029  0.1205  0.0996 -0.0011
25989W        W41120  13.554  16.997   2.131 -0.0237  0.0961  0.1680
25990W        W41121  18.216   6.070   3.434 -0.1445  0.2415 -0.0707
25991W        W41122  16.356   7.759  15.396  0.0570 -0.1062 -0.2370
25992W        W41123   0.792  14.065   1.212 -0.1250  0.1323 -0.0896
25993W        W41124  11.867   1.804  14.083 -0.3582  0.1290 -0.0688
25994W        W41125   1.521  17.883  10.996  0.0714 -0.2629  0.1112
25995W        W41126  11.937  13.963   3.109  0.0388  0.0485  0.0612
25996W        W41127   7.193  17.482   0.205 -0.0829 -0.0602 -0.2296
25997W        W41128  15.947   4.873  11.525  0.1509 -0.1492  0.2259
25998W        W41129   9.277   0.874   9.923 -0.0071  0.0580  0.2935
25999W        W41130  12.367  10.387   2.493 -0.1977 -0.0703  0.3190
26000W        W41131  12.384   8.604   4.030  0.0913  0.3372 -0.0558
26001W        W41132  18.201  18.110   3.152 -0.0751  0.2689 -0.4293
26002W        W41133  12.287   5.227   3.638  0.0310  0.1681  0.0215
26003W        W41134  15.378   9.936   0.904 -0.2919 -0.1202  0.0879
26004W        W41135   7.636  14.191  11.687  0.2283  0.2529  0.1663
26005W        W41136  15.548   2.562  11.656 -0.1064 -0.1286 -0.4651
26006W        W41137  15.144   3.474  11.721 -0.0263 -0.1076 -0.0657
26007W        W41138  13.455   6.981   9.823  0.0344 -0.1835  0.0332
26008W        W41139   5.714  17.500  14.134 -0.1155 -0.1134  0.3845
26009W        W41140  11.287   2.754   1.482  0.0928 -0.0051  0.1287
26010W        W41141  13.251   5.117  10.697  0.0306 -0.0112  0.2010
26011W        W41142   2.238  14.259   1.911 -0.0204 -0.0042 -0.2457
26012W        W41143  14.179   2.087  15.471 -0.3037  0.4277  0.0403
26013W        W41144   7.377  10.198  13.373  0.1792 -0.3257 -0.2043
26014W        W41145   1.374   0.478  13.139  0.0613 -0.1526 -0.2499
26015W        W41146   1.025   0.782  12.247 -0.1070 -0.2088 -0.1161
26016W        W41147  16.736   1.515  10.460 -0.0146 -0.2086  0.2261
26017W        W41148   1.985   1.057   4.931 -0.1925 -0.2330  0.0963
26018W        W41149  13.962   4.424  14.327 -0.0656  0.2097  0.0090
26019W        W41150  16.844  16.945   4.202 -0.0500 -0.3523  0.3058
26020W        W41151  11.398  12.484   4.414  0.2231 -0.1332 -0.0706
26021W        W41152  18.297  15.611   5.302  0.1503 -0.1073 -0.0789
26022W        W41153   0.656  17.012  12.147  0.1936  0.1271 -0.1525
26023W        W41154   7.887   2.648  11.013  0.0606 -0.1075  0.2669
26024W        W41155   1.295   8.481  13.731 -0.0648 -0.4528  0.4042
26025W        W41156   8.815  13.145  11.008  0.4007  0.0872  0.3291
26026W        W41157  10.921  18.223  12.335  0.0702 -0.0134  0.3185
26027W        W41158   6.958  17.456   4.328 -0.1188 -0.3076  0.0646
26028W        W41159   0.099  17.539  12.376  0.2917  0.0059 -0.2367
26029W        W41160   6.011  16.017   5.091  0.0655 -0.1592 -0.0420
26030W        W41161  12.306  13.819  11.537 -0.0547 -0.1314  0.0078
26031W        W41162   3.083   7.102  15.311  0.1099  0.2078  0.0390
26032W        W41163  18.464   3.008  12.059  0.0664 -0.2788  0.3056
26033W        W41164  15.386   8.889   4.197  0.0614  0.0153 -0.3129
26034W        W41165   3.614   5.104  13.285  0.0547  0.0793  0.2173
26035W        W41166  13.466   0.160   3.797 -0.2135 -0.1059 -0.1745
26036W        W41167   3.182   6.402   4.101 -0.0495  0.0477  0.0913
26037W        W41168   6.030   2.402   4.003  0.3046 -0.2979  0.1867
26038W        W41169  10.980  16.571   0.225 -0.0605 -0.1321  0.0424
26039W        W41170   7.079  14.232  11.843 -0.2200 -0.2875 -0.0036
26040W        W41171  12.239   1.752  11.422  0.2720 -0.0706  0.1188
26041W        W41172  14.760   6.075   3.141 -0.1859 -0.2654 -0.0455
26042W        W41173  18.454  17.153  10.677 -0.1215 -0.1148 -0.1526
26043W        W41174  17.964  16.744   1.300  0.0660  0.1260 -0.1651
26044W        W41175  10.105   7.660  11.566  0.0275 -0.0051  0.1857
26045W        W41176   5.632  11.474   4.224  0.3772  0.3223  0.3176
26046W        W41177  16.549  10.141  11.176 -0.3707  0.1034  0.0927
26047W        W41178   3.482   9.955   3.561 -0.0571  0.1248 -0.2280
26048W        W41179   9.618  16.771  12.026 -0.2881 -0.0455 -0.1209
26049W        W41180   2.170   0.381  11.347  0.0868  0.1373 -0.0594
26050W        W41181  15.055   3.998  11.594 -0.0340 -0.0999  0.0764
26051W        W41182   9.856   9.615   1.534 -0.2110  0.0680  0.1437
26052W        W41183  13.813  18.320  15.067  0.0892  0.3724  0.4253
26053W        W41184   3.803  16.495  12.721  0.0657  0.0463  0.0463
26054W        W41185   8.712   8.032   2.045  0.0369  0.0765  0.1831
26055W        W41186  14.871  18.392  15.829  0.2090  0.3782  0.0415
26056W        W41187   5.676  16.038   3.651  0.2511 -0.0136 -0.0414
26057W        W41188  11.431   2.446   2.647 -0.1113  0.1137  0.0639
26058W        W41189  13.635  12.279   3.674  0.0753 -0.0007  0.0653
26059W        W41190  10.521   5.947   2.530  0.1401  0.0907 -0.2144
26060W        W41191   2.281   3.659   1.090  0.0928  0.1126 -0.0370
26061W        W41192  13.266  16.093   3.805 -0.0446 -0.3460 -0.2405
26062W        W41193   4.789   0.158   1.635  0.0144 -0.0659  0.2686
26063W        W41194   3.372   5.129   0.191 -0.0192  0.0992 -0.0880
26064W        W41195   1.240  13.227  12.579  0.1811  0.2460 -0.0019
26065W        W41196  11.184   6.634  15.134 -0.0377 -0.1349 -0.0962
26066W        W41197  17.942   4.594  13.278 -0.1854 -0.1386  0.1516
26067W        W41198   0.360  10.266   3.028 -0.0123  0.0455 -0.4169
26068W        W41199  16.558   4.696   1.236 -0.2032  0.0848  0.2067
26069W        W41200   5.869  13.365   1.364 -0.0466 -0.0228 -0.0560
26070W        W41201  11.971  13.498   1.463 -0.3725  0.0299  0.1131
26071W        W41202   9.180   1.385  14.140  0.0328  0.4447  0.1651
26072W        W41203  15.515  12.134  12.434 -0.0164 -0.1132 -0.0105
26073W        W41204  16.748   8.865  14.166 -0.2246 -0.1553 -0.1163
26074W        W41205   9.811   5.180  11.474  0.1541 -0.0230  0.1586
26075W        W41206  10.622  10.231   0.618  0.0453  0.0395  0.1397
26076W        W41207   8.188   0.412   4.662  0.0570 -0.0945 -0.0616
26077W        W41208   0.043   9.309   3.164 -0.1475  0.2091  0.0100
26078W        W41209   1.996   3.871   0.751 -0.1585 -0.0177 -0.3747
26079W        W41210   7.350   0.915   0.898  0.1154 -0.0379  0.1174
26080W        W41211  14.630   7.649  12.027 -0.3234 -0.3185 -0.1449
26081W        W41212  10.343   7.700  12.733  0.0698  0.0427 -0.1619
26082W        W41213   3.407   2.336  11.224 -0.0662 -0.1532 -0.2356
26083W        W41214   0.096   6.407  13.270  0.1132 -0.2239 -0.2042
26084W        W41215   3.535  15.719  13.596 -0.2330 -0.0110  0.0721
26085W        W41216  14.066  10.453  15.040 -0.2534 -0.0030 -0.0637
26086W        W41217  18.022   5.448   0.818 -0.1681 -0.1580  0.0788
26087W        W41218   0.255   2.802  14.194 -0.0421  0.0072 -0.3711
26088W        W41219  16.266   0.938  15.655 -0.4151  0.0434  0.1317
26089W        W41220  10.143   1.876  13.443 -0.0845 -0.1937  0.2768
26090W        W41221  18.212   2.726   2.710  0.0954 -0.0813 -0.3527
26091W        W41222   2.694   5.219   3.606 -0.0832  0.0657  0.0090
26092W        W41223   4.091  10.138  12.007  0.2214  0.1041  0.1252
26093W        W41224  17.465   5.634   4.525  0.4774  0.1383  0.2121
26094W        W41225   4.077   4.598   1.197  0.1866 -0.1821  0.0611
26095W        W41226   4.758  15.304  13.741  0.0293 -0.2295 -0.3644
26096W        W41227   3.160   6.292   5.101  0.1628  0.0692  0.0117
26097W        W41228  13.021   1.359   4.416  0.3138 -0.0852 -0.0208
26098W        W41229   1.758   8.491   4.486 -0.2290  0.0489  0.0472
26099W        W41230   4.066   3.316   4.586 -0.1818  0.3284 -0.0908
26100W        W41231   2.529   3.635   4.130  0.0379 -0.1912  0.3116
26101W        W41232   6.929  14.082   6.080 -0.1459 -0.1216  0.1452
26102W        W41233   8.030  13.742  10.835  0.0338 -0.1745  0.0940
26103W        W41234   8.027   0.369  10.429 -0.0557 -0.0815  0.1885
26104W        W41235  13.115  13.141   0.816 -0.2579 -0.0780  0.3047
26105W        W41236  17.664   2.737  12.426  0.3614 -0.0811  0.4468
26106W        W41237   3.054  16.065   0.870  0.1232 -0.0706 -0.0300
26107W        W41238   2.007  17.708   3.904 -0.1558 -0.1225  0.0085
26108W        W41239   1.600   5.755  10.246 -0.2892  0.0978  0.2736
26109W        W41240  10.499  18.315   3.589  0.1078 -0.2925 -0.0139
26110W        W41241   2.922   1.711   5.172  0.0345 -0.0973 -0.3079
26111W        W41242   6.176  17.320   4.886 -0.2599 -0.0086  0.0595
26112W        W41243  16.472   4.535  14.545  0.1566 -0.0389 -0.1422
26113W        W41244  13.048   6.022   2.988  0.1229  0.0054  0.0750
26114W        W41245  13.585  18.297   5.048 -0.0818 -0.0593  0.0714
26115W        W41246   4.328   8.677  14.493 -0.0162  0.1925  0.0552
26116W        W41247   0.532  15.040  13.724 -0.0595 -0.0622  0.2315
26117W        W41248   3.912   5.687  12.221  0.0867  0.1526  0.1147
26118W        W41249   3.386  18.371  15.809 -0.3347  0.0849 -0.3436
26119W        W41250   0.111  14.472   5.269  0.1545  0.1374  0.0569
26120W        W41251   2.664  11.633  14.981  0.1645  0.0481  0.2458
26121W        W41252   2.923  13.092   4.901  0.0973 -0.0369 -0.1374
26122W        W41253   5.833  12.749   0.354  0.1526  0.0047  0.2708
26123W        W41254  16.668   1.855   1.468 -0.0127  0.2769 -0.1144
26124W        W41255  16.933   0.070  10.628 -0.2041 -0.3053  0.0750
26125W        W41256  14.681   9.193   3.747  0.0564 -0.0033  0.2472
26126W        W41257   5.689  13.110   3.456 -0.3180 -0.0169  0.0831
26127W        W41258   3.486   8.136  12.321 -0.1101 -0.0723 -0.0267
26128W        W41259  17.690  11.628   3.457 -0.2040  0.0484  0.1572
26129W        W41260   5.501  12.060   0.001  0.2000  0.1310  0.3163
26130W        W41261   6.256   1.629  11.450 -0.2074  0.2831  0.0336
26131W        W41262   9.880  14.674   1.340 -0.0360  0.0546  0.0293
26132W        W41263  14.217   9.771   0.365  0.0571 -0.0962  0.0337
26133W        W41264   8.087  17.147  11.532 -0.3085 -0.0545  0.0675
26134W        W41265  12.414  18.349  14.354  0.1132  0.0133  0.1936
26135W        W41266   4.009  10.051  14.556 -0.4814  0.0274  0.1063
26136W        W41267  14.258   3.207   2.608  0.1108  0.0958  0.0967
26137W        W41268   0.068  18.162   4.941  0.4172 -0.0148 -0.2091
26138W        W41269  12.944   1.989   2.017 -0.4543  0.1214 -0.0394
26139W        W41270   5.702   6.282  12.669  0.1816  0.2200 -0.0077
26140W        W41271   1.989   6.968  10.924 -0.4108  0.1033 -0.2216
26141W        W41272   6.765   7.724   0.554 -0.0788  0.1773 -0.0932
26142W        W41273   6.342  11.150  10.725  0.0613  0.1074 -0.3159
26143W        W41274   7.839   4.227   4.082 -0.0796  0.2673 -0.0676
26144W        W41275  14.294   7.334   2.373 -0.2597  0.3193 -0.4195
26145W        W41276   7.190   8.416  11.242 -0.1312 -0.0241 -0.0163
26146W        W41277  15.069   2.433   5.170  0.0843  0.3754 -0.0013
26147W        W41278   0.846   9.794  14.334 -0.2168 -0.1783  0.0811
26148W        W41279   2.735   2.400   0.247  0.1574  0.0144  0.2072
26149W        W41280  12.484   3.539   5.330  0.1125 -0.0876  0.0041
26150W        W41281  12.747   4.985  11.981 -0.1563  0.0530  0.0457
26151W        W41282  10.013   9.929   0.743 -0.0114  0.0419 -0.0597
26152W        W41283  11.737  18.264   0.770 -0.3152  0.3556  0.0173
26153W        W41284   6.406   5.379  14.133 -0.0774  0.0665  0.3545
26154W        W41285   7.422   1.021   3.297 -0.1257  0.0332  0.2249
26155W        W41286  12.391  12.936   0.269  0.2153 -0.0384  0.2982
26156W        W41287  10.981   7.848   4.718 -0.1264 -0.1193 -0.0500
26157W        W41288  17.613  14.411   4.425  0.0610 -0.0300  0.0309
26158W        W41289   2.379  17.401   3.650  0.0901  0.0108 -0.4515
26159W        W41290  13.786  13.314   0.547  0.3521  0.3009 -0.0405
26160W        W41291  17.797   9.776   4.337  0.0909  0.1010 -0.1031
26161W        W41292  14.461   9.835   3.483  0.0026 -0.2442 -0.0581
26162W        W41293   2.686   7.932  13.901 -0.2438 -0.1819  0.3272
26163W        W41294   6.952  15.271   4.518 -0.4000 -0.3226 -0.2585
26164W        W41295   8.239  12.059  12.606 -0.2026 -0.1292 -0.0496
26165W        W41296   7.156   2.340  14.690 -0.2039  0.1391 -0.2726
26166W        W41297   5.103   5.296  15.774 -0.3146 -0.0759  0.1877
26167W        W41298  14.996   1.230   3.421  0.2145  0.2082  0.2735
26168W        W41299   7.517   3.077  10.766  0.1009 -0.1039  0.0804
26169W        W41300   4.666   7.006   2.692 -0.3301  0.0034  0.2866
26170W        W41301   3.206  11.580  13.578 -0.0983 -0.1192  0.0702
26171W        W41302  11.692   8.979   0.415  0.0222 -0.2964 -0.0059
26172W        W41303  15.859  14.722   5.734  0.0711 -0.3051  0.0556
26173W        W41304   5.544   2.315  15.492 -0.4517 -0.0475  0.1176
26174W        W41305   7.370  11.278  14.377 -0.0260  0.1109  0.3243
26175W        W41306  16.426   1.950  13.957  0.1906  0.0547 -0.0271
26176W        W41307   0.561  14.838   2.169 -0.1668  0.0843 -0.5372
26177W        W41308  13.217   5.863  15.849  0.0564 -0.1019  0.1886
26178W        W41309   5.741  17.393   4.140 -0.2690  0.1620  0.0661
26179W        W41310   7.075   2.042  12.953 -0.1170  0.0649  0.2623
26180W        W41311   7.908  14.845  11.496  0.3024  0.0548  0.2244
26181W        W41312  14.385   3.896   5.189  0.1953 -0.1118 -0.1965
26182W        W41313  10.949   1.938   1.056  0.0103  0.0868  0.0828
26183W        W41314  10.672  15.363  10.013 -0.2873  0.1224  0.2426
26184W        W41315   1.875  10.942   1.268  0.1779  0.0663 -0.1433
26185W        W41316  15.543   8.837   0.237  0.1079 -0.6009  0.3735
26186W        W41317   4.070   4.606  11.846 -0.1454  0.0311 -0.0904
26187W        W41318   1.202   1.062  13.744  0.0599  0.1113 -0.2052
26188W        W41319  15.747  16.991   4.542  0.0795 -0.0322  0.1833
26189W        W41320  10.884  16.945  15.119  0.2357  0.2049  0.0709
26190W        W41321   7.313  12.865  15.566  0.1508  0.1182 -0.0125
26191W        W41322   6.379  11.998  14.767 -0.1072  0.0409  0.1553
26192W        W41323   0.200  14.891   4.454  0.4105 -0.0388  0.1071
26193W        W41324   9.734  16.153  13.267 -0.1061  0.0816  0.4225
26194W        W41325   6.142   5.338   5.515  0.0582  0.0008 -0.1633
26195W        W41326   9.639  14.797  15.708  0.1194 -0.0033 -0.0092
26196W        W41327   4.015   1.319   3.019  0.2576  0.1022  0.0447
26197W        W41328  18.054   8.397   4.232  0.5544 -0.0367 -0.0630
26198W        W41329  17.988  10.880   5.839 -0.0227  0.3123 -0.2623
26199W        W41330  16.627   0.852   2.679  0.0200  0.1589 -0.1115
26200W        W41331   4.199   1.970   4.245  0.0117 -0.2501  0.2037
26201W        W41332   5.392   9.255   5.131  0.1566 -0.0945 -0.2206
26202W        W41333   0.080   7.392  11.141  0.0737  0.3008  0.0823
26203W        W41334   9.508   6.372  12.599  0.1293  0.1792 -0.0255
26204W        W41335   4.784   5.822  11.309  0.1672  0.0608 -0.2138
26205W        W41336  14.410   5.520  10.801  0.0911 -0.1054  0.1795
26206W        W41337   6.885  11.338   5.731  0.0781  0.2988  0.1124
26207W        W41338   2.216   1.406  13.857 -0.1028 -0.0027  0.1758
26208W        W41339  12.296   1.302  12.143  0.0511 -0.0148  0.2707
26209W        W41340   6.732  15.102   1.051  0.0634  0.0113 -0.1472
26210W        W41341   8.920  12.656   1.528  0.0596  0.0125 -0.0710
26211W        W41342   8.908  16.276   0.450 -0.4014  0.1689 -0.1948
26212W        W41343   7.969   9.746   0.569 -0.0330  0.1966  0.0967
26213W        W41344   3.191  11.625   3.958  0.1095  0.2233 -0.1035
26214W        W41345   8.817   6.895  13.454 -0.2570  0.0399  0.0722
26215W        W41346   3.180   3.881  15.359 -0.0409  0.2437  0.0009
26216W        W41347   3.511   0.479   1.078  0.1800 -0.1369  0.3673
26217W        W41348  10.203   3.640  12.681 -0.1042 -0.0212  0.0876
26218W        W41349   4.081   1.047  10.256 -0.0190  0.5319  0.1942
26219W        W41350   2.486   6.708   4.786  0.0115 -0.0122  0.2906
26220W        W41351   6.551  15.554   2.768 -0.0623 -0.0473  0.1545
26221W        W41352  10.211  12.328  14.431 -0.0505 -0.2241  0.0239
26222W        W41353   9.881   8.615   1.942 -0.0883  0.2377  0.1758
26223W        W41354   0.231   3.893   1.396  0.2084  0.1340  0.2278
26224W        W41355  11.555  15.859   2.552  0.1131 -0.3404  0.0298
26225W        W41356   8.093  17.075  10.040  0.1285 -0.2284 -0.0010
26226W        W41357  17.256   2.789   2.948 -0.1577  0.1601 -0.3297
26227W        W41358   7.767   1.404  10.254  0.1133  0.1317  0.2838
26228W        W41359  18.187   2.057  14.586 -0.3525 -0.0286  0.0501
26229W        W41360  11.557   4.727  12.450  0.4153  0.1313 -0.0332
26230W        W41361   5.027   1.337   0.199  0.1265 -0.1707 -0.2404
26231W        W41362  10.895   1.038  14.186  0.0306  0.0572 -0.2571
26232W        W41363  15.042   7.464   0.288 -0.0254  0.0481 -0.1392
26233W        W41364  10.900   3.713   5.756 -0.0895 -0.0131  0.3759
26234W        W41365   4.642   6.679   4.186 -0.0455  0.2034  0.0224
26235W        W41366   3.355   7.537   0.662  0.0225 -0.1213  0.0861
26236W        W41367  15.938  10.429   4.393  0.2113 -0.0396  0.3559
26237W        W41368   0.228   0.007   5.342  0.2094 -0.0157 -0.2564
26238W        W41369  17.386  10.064   5.668  0.0435  0.3274  0.0768
26239W        W41370  11.973   4.541   0.981  0.0519  0.0140 -0.2588
26240W        W41371  16.935   6.900  11.768  0.1256 -0.2641  0.3373
26241W        W41372  15.172  14.518   0.472  0.1671  0.0419 -0.0318
26242W        W41373  14.914  15.949  14.803 -0.1159 -0.2974  0.0170
26243W        W41374  10.022  16.567  14.029  0.2844 -0.1675  0.3211
26244W        W41375  12.385  11.113   4.935  0.0836  0.2720 -0.0945
26245W        W41376   0.044   7.493   0.265  0.1032  0.2763  0.0429
26246W        W41377  14.034  10.916   2.141 -0.0315  0.0125 -0.2316
26247W        W41378  10.393   7.691  10.204  0.0493 -0.0711 -0.1243
26248W        W41379  15.140   2.436  11.312 -0.1536  0.0947  0.3073
26249W        W41380  14.511   1.985  15.875 -0.1598 -0.0962 -0.4192
26250W        W41381  13.655   5.260   2.661 -0.3006 -0.1214 -0.0441
26251W        W41382   0.303   8.549   3.405 -0.1228  0.4182  0.0332
26252W        W41383  12.476   6.489   5.055 -0.0465  0.1877  0.1480
26253W        W41384  12.432  10.568   3.805  0.2881  0.1555 -0.2027
26254W        W41385   9.763  15.970   4.555 -0.0124  0.0707  0.2959
26255W        W41386   2.335   0.093   1.825  0.2435  0.1132 -0.1249
26256W        W41387  16.399  11.273  14.208  0.3624  0.2840 -0.1903
26257W        W41388  17.681   4.938  13.498  0.0787 -0.0747  0.2627
26258W        W41389  12.920  16.378   2.608 -0.0167  0.0539  0.1246
26259W        W41390  11.351  17.556   0.003 -0.1598 -0.1102 -0.0933
26260W        W41391  15.121   3.247  11.211  0.2374 -0.2561  0.2156
26261W        W41392   1.913  11.996   1.356  0.2686 -0.0739  0.0861
26262W        W41393   7.451   5.267  13.208  0.0886  0.1059  0.0997
26263W        W41394   7.102   7.456   0.237 -0.1114  0.3028 -0.2769
26264W        W41395   5.612   5.410  13.482  0.1097 -0.0356 -0.0020
26265W        W41396   7.125   9.509  12.574 -0.1086 -0.2967  0.0677
26266W        W41397  16.996  10.365  15.004 -0.3707  0.0242  0.0667
26267W        W41398   9.680  16.846  12.485 -0.3061  0.3287  0.1271
26268W        W41399  17.545  16.112  11.527  0.2366 -0.2733  0.0915
26269W        W41400   0.955   9.802   0.726  0.1607  0.0506 -0.0113
26270W        W41401  13.415  11.144  13.269  0.0284 -0.0342 -0.2248
26271W        W41402   3.584  11.031   4.531 -0.0960  0.1830  0.2571
26272W        W41403  13.366  17.165   3.590  0.2525  0.0375 -0.1933
26273W        W41404   8.617   5.477  13.427 -0.1336 -0.3648 -0.2144
26274W        W41405   9.965   7.980   1.489  0.0478 -0.3583  0.1014
26275W        W41406  10.260  13.165  12.283  0.0230  0.2514  0.5471
26276W        W41407   2.309  10.949  15.761 -0.2607 -0.0598  0.1834
26277W        W41408   5.812   8.901   0.408 -0.2077  0.2748  0.0266
26278W        W41409  10.058   0.793   1.040  0.0619 -0.2402 -0.1872
26279W        W41410  10.878  14.995  13.989  0.1410  0.1424 -0.0923
26280W        W41411  10.179   7.003  14.175 -0.1291 -0.1276 -0.0539
26281W        W41412  13.601  11.683   0.041 -0.0571  0.1680 -0.3798
26282W        W41413  10.977  13.997   1.198  0.0494 -0.0538 -0.1737
26283W        W41414  13.770  14.295  12.786 -0.1724 -0.0427  0.1632
26284W        W41415   1.260   0.230  14.165 -0.0681 -0.1574 -0.3591
26285W        W41416  10.267  17.918   2.585  0.3273 -0.2779  0.0870
26286W        W41417   0.404   1.661  14.028 -0.0408 -0.0205 -0.3015
26287W        W41418  18.007   8.948  15.271  0.0967  0.1348  0.1041
26288W        W41419  17.946  14.412  14.331  0.1948 -0.2317 -0.1116
26289W        W41420  18.500  10.971  13.882  0.0834 -0.1540 -0.1264
26290W        W41421  16.860  13.498   2.632 -0.1790 -0.1086 -0.1452
26291W        W41422  11.848   4.355   3.653  0.3088  0.2434  0.1040
26292W        W41423  16.982   6.728   0.492  0.1038  0.2207  0.0499
26293W        W41424  18.140  18.171  14.533  0.4350  0.0407  0.0458
26294W        W41425  11.309   5.452   1.255 -0.0660  0.0542 -0.6727
26295W        W41426   5.241   2.652   5.284  0.1148 -0.0064  0.3476
26296W        W41427  15.274   3.479   0.533 -0.2415  0.0684 -0.1880
26297W        W41428  16.221   4.636   4.428 -0.0360 -0.2357 -0.0623
26298W        W41429   4.236  10.601  11.917  0.1018 -0.0120 -0.0211
26299W        W41430   0.228  14.418  11.534 -0.3207 -0.1044  0.1299
26300W        W41431   8.700   2.712  14.666  0.0105 -0.3427  0.2291
26301W        W41432  10.157  14.227   3.461 -0.1810  0.1335  0.1286
26302W        W41433   9.325   2.517   2.051 -0.0893  0.1969  0.0936
26303W        W41434   7.369   6.352   1.106  0.1024 -0.1186 -0.1378
26304W        W41435  10.176  17.629   0.273  0.3587  0.0377  0.2583
26305W        W41436  17.079  17.015  12.904  0.1039  0.1115  0.0713
26306W        W41437   4.318  14.868  15.469 -0.2700  0.1450  0.1073
26307W        W41438  14.663   2.768   5.621  0.2502 -0.2470 -0.0464
26308W        W41439   1.101   2.330  11.353 -0.1773  0.0468  0.0854
26309W        W41440   8.004   8.054  10.651  0.0458  0.2989 -0.1804
26310W        W41441   5.179   7.201   2.636 -0.1619 -0.0941 -0.1007
26311W        W41442   2.021   4.285  11.346  0.2355 -0.0620 -0.0276
26312W        W41443  13.159   0.554  13.807  0.1748  0.2296 -0.1907
26313W        W41444   9.113  11.032  12.945  0.0529  0.3152  0.0397
26314W        W41445   8.026   2.871  10.062 -0.1841 -0.1659 -0.2065
26315W        W41446  18.163   2.717  15.582  0.0094 -0.0540 -0.0846
26316W        W41447  15.819   1.194  13.947  0.1209 -0.1044  0.2093
26317W        W41448   2.350   8.797   1.002  0.3333  0.0702 -0.2789
26318W        W41449   7.387  12.451   2.928  0.0854  0.1005 -0.1999
26319W        W41450   4.625   3.108   0.413 -0.0354  0.0080 -0.1552
26320W        W41451  17.496  15.566  11.778  0.0451  0.1028 -0.3051
26321W        W41452   6.628   7.540  11.452 -0.0752  0.2159  0.0629
26322W        W41453  12.467  15.274  14.132 -0.0259  0.0700  0.1892
26323W        W41454   7.425   6.491  13.988 -0.3566 -0.0088 -0.0475
26324W        W41455  13.552   6.064   0.319  0.1041 -0.0737  0.3097
26325W        W41456   5.063   3.739  15.872  0.1626 -0.3702 -0.2454
26326W        W41457   8.041  18.065   3.277  0.0197 -0.0494  0.0878
26327W        W41458   6.915  17.244   1.757 -0.0527 -0.1564  0.0786
26328W        W41459  16.323   2.569  12.553 -0.1108  0.0768 -0.0444
26329W        W41460   1.274  10.435   4.209  0.0466  0.0981 -0.1634
26330W        W41461  17.706  16.652   3.029 -0.0733 -0.0689  0.0865
26331W        W41462  13.783  12.645   1.299 -0.0609 -0.0143  0.2045
26332W        W41463  10.557  10.499  14.688 -0.1100  0.0412  0.2630
26333W        W41464  14.774   0.512   0.549  0.0459 -0.3006 -0.0628
26334W        W41465  17.666  13.400  12.542 -0.1412 -0.0385  0.1549
26335W        W41466  16.667   0.826   0.490  0.1331  0.3815 -0.3111
26336W        W41467   3.401  16.532  11.406  0.1424 -0.3008 -0.0162
26337W        W41468  14.590   5.948   4.400 -0.0861 -0.3268  0.1588
26338W        W41469  10.678  13.036   4.643 -0.1340 -0.2018 -0.3469
26339W        W41470  17.581   0.299   1.984 -0.3348 -0.0974  0.0712
26340W        W41471   1.793   2.597  13.175  0.2999 -0.2031 -0.0825
26341W        W41472  14.607   8.452   3.980  0.1836 -0.0451 -0.0456
26342W        W41473  16.703   9.055   5.389 -0.0574 -0.1441 -0.0964
26343W        W41474  17.720   9.410  11.892 -0.2766  0.1434  0.3712
26344W        W41475  12.544   1.068   3.941  0.1465  0.0387 -0.1507
26345W        W41476  16.136  12.132  14.160 -0.0629  0.0211 -0.0390
26346W        W41477  15.752  17.862   5.408 -0.0969  0.1647 -0.2026
26347W        W41478   4.317  18.109  15.341  0.1851  0.0354 -0.0252
26348W        W41479   6.012  10.781  13.690  0.0128 -0.0579  0.0783
26349W        W41480  11.049   7.606  11.526 -0.0313 -0.0503 -0.0675
26350W        W41481   6.841   0.619  13.494 -0.2823  0.0712 -0.2713
26351W        W41482   5.827   3.144  11.569 -0.2539 -0.1936 -0.2194
26352W        W41483   6.081   3.665  14.458 -0.0389  0.3150 -0.0063
26353W        W41484  13.205  18.240  15.290 -0.1296 -0.0663 -0.1564
26354W        W41485  12.271   5.643  13.103 -0.1026 -0.0029 -0.2225
26355W        W41486  11.460   8.558  14.220  0.1563  0.2223 -0.0333
26356W        W41487  10.649   5.246   2.209  0.0811  0.2177 -0.1948
26357W        W41488  12.822  14.688  10.730  0.0323 -0.2109 -0.2282
26358W        W41489  11.679   0.719  10.999  0.0093  0.1087 -0.2423
26359W        W41490   4.658  17.969   3.669 -0.0493  0.1813  0.3023
26360W        W41491   3.049  11.550  15.297  0.0045  0.0598  0.0963
26361W        W41492  18.402  12.389   3.960  0.0419  0.3979  0.2001
26362W        W41493  12.092  14.771  14.072  0.1369 -0.1250  0.0296
26363W        W41494  12.199  12.621   2.083 -0.1317 -0.0970 -0.1965
26364W        W41495   4.033  14.108  12.628  0.1845 -0.1370 -0.1423
26365W        W41496   1.925   6.370   3.484  0.0784 -0.0245 -0.2759
26366W        W41497  12.282   9.559   1.839 -0.0286  0.1398  0.0620
26367W        W41498   6.427  11.632  12.062  0.3198 -0.5198  0.2116
26368W        W41499   8.615  13.188  14.051  0.3843  0.1686 -0.0005
26369W        W41500   2.160  10.704   5.884  0.0381  0.0616 -0.3811
26370W        W41501   0.582  10.190   0.415 -0.0364  0.1090 -0.1317
26371W        W41502   7.631  15.552  13.445  0.0663 -0.1262 -0.0929
26372W        W41503  11.305  12.678  11.628  0.2007 -0.0089  0.4192
26373W        W41504   3.648   9.624   2.188  0.1139 -0.2220  0.2193
26374W        W41505  15.366  18.163  15.759  0.1139  0.0682 -0.3470
26375W        W41506  10.318  16.028  13.173 -0.0425 -0.1116 -0.0051
26376W        W41507   2.767   7.417   3.874  0.3589  0.3554  0.0596
26377W        W41508   5.064  11.016  11.131  0.1044 -0.1394 -0.1573
26378W        W41509  18.006   7.053   2.753  0.0230 -0.2243  0.2539
26379W        W41510  13.721   3.732   1.394 -0.1848  0.2263 -0.2435
26380W        W41511   2.904  10.050  13.468  0.0402  0.0784 -0.1423
26381W        W41512  13.460   8.604  13.282 -0.0316 -0.1694  0.1843
26382W        W41513  13.174  10.704  12.891 -0.2913  0.1679  0.3275
26383W        W41514   0.682  11.024  15.689 -0.1902 -0.1445 -0.3256
26384W        W41515  11.997  10.869  12.394  0.0712 -0.2460 -0.4384
26385W        W41516  18.473   7.068  12.414  0.4714  0.3726  0.1264
26386W        W41517  15.443   3.143   4.150 -0.0455  0.0980  0.0498
26387W        W41518  16.597  11.502   5.537 -0.1185  0.0100  0.1047
26388W        W41519   8.109   2.255  11.359  0.0966  0.4601 -0.0682
26389W        W41520  14.650   8.538  12.133 -0.3537  0.3187  0.1723
26390W        W41521   4.319  10.417  14.481 -0.0090 -0.0518  0.0978
26391W        W41522   2.460  16.959   0.238  0.0962 -0.1122  0.1407
26392W        W41523   0.574   0.305  11.001  0.0738 -0.2010  0.0524
26393W        W41524  15.806  18.073   3.298 -0.1295 -0.1892 -0.2618
26394W        W41525  15.830   8.201   5.392 -0.0262 -0.4580  0.3696
26395W        W41526   8.114  13.862   3.773  0.1394  0.0337 -0.0709
26396W        W41527   6.161  17.103  14.001 -0.2727  0.0289 -0.4405
26397W        W41528   4.407  13.715   0.128  0.0482 -0.1895  0.1047
26398W        W41529   4.929   3.273   1.696 -0.0923  0.0288 -0.2246
26399W        W41530  11.346  13.564   5.050  0.0323  0.0401 -0.2430
26400W        W41531   1.377   5.006  11.479  0.2670 -0.1516 -0.4076
26401W        W41532  17.692  14.099   2.658 -0.0233 -0.0937  0.1661
26402W        W41533   1.215   1.205  15.349 -0.0607 -0.3019 -0.1032
26403W        W41534   9.831   5.607   4.380  0.0596 -0.0964 -0.1265
26404W        W41535   3.777  16.838   3.859  0.1633  0.1395 -0.0601
26405W        W41536   8.146  11.291  11.702 -0.0473 -0.1453 -0.0448
26406W        W41537  18.371  13.544   2.816  0.3845  0.0676 -0.3607
26407W        W41538   2.364  14.005   5.936 -0.1009 -0.0332  0.0651
26408W        W41539  10.939  16.085   1.338 -0.1360  0.2050 -0.3741
26409W        W41540   1.703   1.822  12.507  0.4460  0.0835 -0.4132
26410W        W41541  14.878  10.841   1.038  0.0098  0.1004  0.2462
26411W        W41542  14.704   2.485   4.672 -0.1261 -0.3343  0.0448
26412W        W41543   7.458  13.917   1.493 -0.1467 -0.0890 -0.1201
26413W        W41544  10.562   2.262   0.643 -0.0673 -0.2455 -0.0272
26414W        W41545   2.347  17.087  14.838 -0.2374 -0.0674  0.1163
26415W        W41546  17.643  14.157   3.152  0.3709  0.3037 -0.0027
26416W        W41547   3.725  10.883   3.540  0.3740  0.1814  0.2746
26417W        W41548   0.818   1.756   2.184 -0.0767  0.2821 -0.2369
26418W        W41549  11.973   6.402  13.999 -0.2740  0.1362  0.1748
26419W        W41550   9.286   0.988  10.384 -0.0610  0.0015 -0.2842
26420W        W41551   6.675   9.702   3.427 -0.0177  0.3395  0.3077
26421W        W41552  10.796  12.937   3.803 -0.0035 -0.3504  0.1432
26422W        W41553   9.561   1.964   0.324  0.2392 -0.0553  0.0332
26423W        W41554  16.560   2.532  13.237  0.0354  0.0127  0.1067
26424W        W41555  15.726   6.767  12.858  0.2013  0.2204 -0.0407
26425W        W41556  15.807   8.581   0.583  0.3065 -0.1935 -0.4036
26426W        W41557   2.639   7.540  12.471 -0.3531  0.0479  0.1116
26427W        W41558   2.722   5.467  14.489  0.0213 -0.1971 -0.0448
26428W        W41559  13.970   3.577   4.333 -0.1873 -0.1321  0.1095
26429W        W41560   1.744   4.894   2.161 -0.4127 -0.0624  0.0013
26430W        W41561  17.519   2.024  11.620  0.1764 -0.3410 -0.2909
26431W        W41562   7.822  14.932  13.917  0.1988 -0.1788  0.3220
26432W        W41563  18.041  17.248  11.154  0.0933  0.1453 -0.0452
26433W        W41564   3.751  13.782   3.533 -0.2393 -0.3080  0.0075
26434W        W41565  18.237  15.108  13.242  0.2162 -0.0455 -0.1182
26435W        W41566  14.610   8.693  14.495 -0.0731 -0.0923 -0.3334
26436W        W41567  15.280   4.222   3.167 -0.0443  0.0314 -0.0525
26437W        W41568   2.841  15.799   2.442  0.3696  0.4916  0.0007
26438W        W41569   5.995   9.845  10.740  0.0031 -0.2655 -0.1149
26439W        W41570   0.835  10.763  12.131 -0.0600 -0.0235  0.0967
26440W        W41571   2.114   1.956   1.889 -0.1286  0.0327  0.2113
26441W        W41572   2.011   5.898   4.326  0.3308 -0.0156 -0.2325
26442W        W41573   0.130   6.228   4.596  0.2152 -0.2131 -0.4913
26443W        W41574   8.933  10.628  13.282 -0.0619 -0.1287 -0.0481
26444W        W41575  10.492  10.568   4.499 -0.3113 -0.0930  0.1454
26445W        W41576  17.421  13.330   4.607 -0.3710  0.2783 -0.0337
26446W        W41577   1.110   4.222   1.107  0.0782 -0.2158 -0.2884
26447W        W41578  15.456  17.762  14.525 -0.3234  0.0105 -0.2105
26448W        W41579  12.315   2.331   3.073 -0.0693  0.2320  0.1032
26449W        W41580   2.050  14.719   1.098  0.1136  0.3834 -0.1318
26450W        W41581   4.559  18.319   1.331  0.0445 -0.1307 -0.0518
26451W        W41582   3.508  16.063  11.446  0.1982 -0.1270  0.2496
26452W        W41583  14.231  11.019  12.353  0.2504  0.0376 -0.2460
26453W        W41584   8.641   2.019   0.583  0.0690 -0.0081 -0.3122
26454W        W41585   1.100   2.422  12.957 -0.0745 -0.0010  0.1872
26455W        W41586   6.891   0.281  12.251  0.3345  0.1224 -0.0123
26456W        W41587  17.223   2.414   3.318 -0.1720 -0.1018 -0.1850
26457W        W41588  14.876  13.420   1.061 -0.0760 -0.2523  0.1045
26458W        W41589  15.658  11.672   5.593  0.1273  0.4556  0.3913
26459W        W41590   5.512  16.630  11.136  0.1061  0.2058  0.1496
26460W        W41591   5.511   4.017   2.318  0.3075 -0.0656  0.0357
26461W        W41592   6.852  12.563  13.308 -0.2814 -0.3641 -0.0034
26462W        W41593   7.013   9.521   3.094  0.0256 -0.1189  0.1922
26463W        W41594  16.001   5.468  13.260 -0.0159  0.2816  0.1384
26464W        W41595   9.424  12.907  13.729 -0.3432  0.0294 -0.1297
26465W        W41596   9.105   1.230   2.037  0.0327 -0.1919 -0.0735
26466W        W41597  17.544   6.915  15.406  0.0322  0.1100  0.4024
26467W        W41598   1.261  17.520   1.362  0.0607  0.2759 -0.0331
26468W        W41599   6.451   3.004  14.361 -0.0172  0.2408  0.4528
26469W        W41600  14.215   8.921   3.123 -0.0539  0.1009 -0.1401
26470W        W41601   6.088   0.165   4.614 -0.1045  0.0778 -0.1000
26471W        W41602  15.397  14.014   2.288 -0.2307  0.0334 -0.0263
26472W        W41603  12.797   9.005  12.315  0.0365 -0.1419 -0.0611
26473W        W41604   8.881  14.783   3.163  0.0167 -0.0818  0.0712
26474W        W41605  11.183   9.206  13.154  0.0792  0.0386  0.2062
26475W        W41606   5.939  14.656  14.907 -0.0774  0.1157  0.0466
26476W        W41607   9.435   2.805  11.548  0.1415  0.0973 -0.1398
26477W        W41608   8.630  15.660   4.591 -0.0610 -0.1486  0.1414
26478W        W41609  12.517  12.622   0.662  0.1488 -0.0335  0.0579
26479W        W41610  11.643   1.138   1.858  0.2852 -0.0284  0.0033
26480W        W41611  13.167   1.893   0.941 -0.0294 -0.2840  0.0393
26481W        W41612  13.759   5.259   6.290 -0.4321  0.0415  0.1679
26482W        W41613  13.572   1.748   2.673 -0.0742  0.0303  0.2939
26483W        W41614   2.645   1.887  10.786  0.0377  0.0775  0.2145
26484W        W41615   9.455   7.037   2.492  0.0656 -0.0658  0.1652
26485W        W41616   2.812  13.972   5.658 -0.0902 -0.0613  0.1457
26486W        W41617  14.631  17.718   3.959  0.1130 -0.3716  0.1890
26487W        W41618   5.390   6.390   2.430  0.0527 -0.0998  0.0928
26488W        W41619  16.082  11.375   5.732  0.0023 -0.0864 -0.1324
26489W        W41620  18.392   3.805   2.859  0.1244 -0.4483 -0.0484
26490W        W41621   9.546   6.075  15.708 -0.1433 -0.2372 -0.0799
26491W        W41622   0.678   1.660   4.904  0.2093  0.0810 -0.1932
26492W        W41623   4.309   5.381   2.230  0.0644  0.0062  0.0031
26493W        W41624   6.813   3.014  14.780 -0.2327 -0.1912 -0.2373
26494W        W41625  14.643  16.212   4.067 -0.0389  0.1736  0.1212
26495W        W41626   4.633  10.350  11.492 -0.2800 -0.0563 -0.0542
26496W        W41627   6.631  15.467   3.685  0.0967 -0.3603 -0.0385
26497W        W41628   9.884  14.857   2.180  0.1099  0.1341  0.2189
26498W        W41629  11.900   8.698   9.560 -0.1129 -0.1100  0.2389
26499W        W41630   4.835  12.470  14.668  0.1840  0.1254  0.2777
26500W        W41631   0.756   5.980  14.960  0.2162  0.1370  0.2549
26501W        W41632  15.115   0.962  14.406  0.3096  0.0793 -0.1324
26502W        W41633  13.811   3.102  13.427 -0.0078  0.1507 -0.0479
26503W        W41634   2.722  10.231  14.599 -0.1449 -0.0402  0.0006
26504W        W41635  10.034  13.783  15.794 -0.1854 -0.2700  0.0643
26505W        W41636   1.614   0.091  14.945 -0.2841 -0.0371  0.1444
26506W        W41637  14.685   1.610  14.738 -0.2054  0.1935  0.0149
26507W        W41638   4.335  17.915   2.819 -0.2758  0.3043  0.2207
26508W        W41639  11.941   0.635  14.992  0.3475 -0.1342 -0.0983
26509W        W41640   9.191  14.602   2.572 -0.0316 -0.0551  0.2259
26510W        W41641   9.051   5.508   0.325  0.2052 -0.1235  0.0975
26511W        W41642  17.205   0.617   2.712 -0.0820  0.0217 -0.2839
26512W        W41643   1.264   3.563  10.597  0.5140  0.1027  0.1885
26513W        W41644  11.159   1.856  11.365  0.1906  0.1112  0.1027
26514W        W41645   0.922   9.510  10.519  0.0511  0.1188  0.0018
26515W        W41646  16.982   3.412   6.236 -0.2145 -0.2119  0.0815
26516W        W41647   1.418   4.478   5.406  0.0486 -0.0688 -0.1681
26517W        W41648   8.828  16.119  14.614 -0.0789  0.2655 -0.2655
26518W        W41649  14.296  13.501  12.842 -0.1615 -0.2323  0.0374
26519W        W41650   8.664   0.484   2.082 -0.1514 -0.0346  0.4016
26520W        W41651  10.116   0.553  14.432  0.1024 -0.4793 -0.0457
26521W        W41652   6.176  10.299  11.880 -0.0857 -0.1109 -0.0944
26522W        W41653  12.717   3.677   2.782 -0.2638  0.1282 -0.0134
26523W        W41654  18.469  15.948   0.842  0.1526 -0.0269 -0.1119
26524W        W41655   9.188  11.864   4.632 -0.5337  0.2982 -0.1589
26525W        W41656  15.713  13.775   0.754 -0.0582  0.4580  0.1031
26526W        W41657  11.423   0.918   0.923  0.1531  0.1765  0.0738
26527W        W41658   1.534   5.574   9.733 -0.1444 -0.0110 -0.1965
26528W        W41659  17.874  15.540   2.056  0.4488  0.1721 -0.3685
26529W        W41660  11.155   3.052   3.825 -0.2095 -0.0736 -0.1377
26530W        W41661  10.630   0.085  12.086  0.1906  0.0896  0.2569
26531W        W41662  12.607  14.644   3.565  0.2190 -0.1257  0.2025
26532W        W41663   7.758  17.694   4.365  0.1314  0.3094 -0.0035
26533W        W41664  13.084  18.191   2.428 -0.1204 -0.1676  0.2746
26534W        W41665  17.545   1.527  15.663  0.0058  0.1320 -0.0873
26535W        W41666   1.349  11.841   0.066  0.1273  0.2209  0.0779
26536W        W41667   1.334   4.894  12.929  0.1156  0.1635  0.2195
26537W        W41668   7.965  11.084   4.894 -0.0005  0.4646  0.1562
26538W        W41669  10.257   0.124  15.194 -0.4319 -0.0522  0.0609
26539W        W41670   5.306  13.043  10.290  0.1101 -0.2002  0.0333
26540W        W41671   7.954   8.302  13.470  0.0468 -0.1708  0.0990
26541W        W41672   6.631  13.020  14.800  0.0884 -0.1762  0.4390
26542W        W41673  11.099   8.749  10.874 -0.2228 -0.0526  0.2308
26543W        W41674  11.696  12.193   0.136 -0.0328  0.0378 -0.0511
26544W        W41675  17.294  14.443   3.540 -0.1450  0.1413  0.0342
26545W        W41676  10.889   0.853  12.914  0.0046 -0.2364  0.0688
26546W        W41677   7.760   7.003  13.624  0.0587 -0.0972  0.1068
26547W        W41678  12.496   9.534  11.148 -0.1983 -0.1033  0.0293
26548W        W41679  15.691   0.583   2.409  0.1217 -0.1687  0.0780
26549W        W41680   8.720  15.276  12.394 -0.2077 -0.0955 -0.2211
26550W        W41681  11.721   5.264   5.146  0.3952  0.3381 -0.0771
26551W        W41682   2.608   1.209   0.193 -0.2050  0.2284  0.3103
26552W        W41683  16.154   8.228   4.526 -0.2301  0.0979 -0.1970
26553W        W41684  10.069   7.131   0.331 -0.2544  0.1918 -0.3743
26554W        W41685   9.871   8.982  14.201  0.1398  0.0814  0.1989
26555W        W41686  12.810   8.280  10.518 -0.1021  0.1161  0.1816
26556W        W41687  14.258   2.584  11.009  0.1327  0.2959 -0.2956
26557W        W41688   2.349  16.702  12.146  0.1833 -0.1671 -0.3595
26558W        W41689  13.007   1.928  14.726 -0.2244  0.1741  0.0897
26559W        W41690  13.881  17.991   3.012  0.2416 -0.1037 -0.1518
26560W        W41691   5.868   3.167  12.172  0.2182  0.0187  0.0661
26561W        W41692  12.035   8.417  12.572 -0.0977  0.1864  0.1033
26562W        W41693  10.894  14.377   0.862  0.1724  0.2361 -0.1606
26563W        W41694   5.453   3.118  11.885 -0.1487  0.1405 -0.0529
26564W        W41695  10.511  15.385   1.157 -0.0408 -0.0469  0.2850
26565W        W41696  15.800   1.356  11.041  0.2506 -0.0981  0.2274
26566W        W41697   3.438  10.379   5.550  0.0803  0.2066 -0.4437
26567W        W41698   3.289   9.747  13.390  0.0253 -0.2990  0.0350
26568W        W41699  14.504   6.442   5.736  0.1074  0.3372 -0.3378
26569W        W41700  15.970   5.463  12.493 -0.0120 -0.0326  0.1297
26570W        W41701  17.725   2.177   3.436  0.0066  0.0799 -0.0938
26571W        W41702  10.587   5.099  10.816 -0.0720  0.0317 -0.0574
26572W        W41703   8.836  16.416   3.186  0.1701 -0.2337 -0.2548
26573W        W41704  17.325  12.655   4.079  0.1609  0.4295  0.1468
26574W        W41705  11.904   2.115   2.864 -0.0744 -0.0221  0.4450
26575W        W41706  13.815   3.165   0.106  0.1393 -0.1241 -0.2277
26576W        W41707  17.838  16.962   3.569  0.0099  0.1894 -0.2046
26577W        W41708   8.736  18.486  11.784 -0.0080 -0.0835  0.1929
26578W        W41709   5.658  12.058  10.617  0.0000  0.2971  0.2682
26579W        W41710  15.362   9.750   0.247  0.2153 -0.2818  0.1329
26580W        W41711  14.186  12.956  13.077 -0.2497  0.1849  0.0304
26581W        W41712   3.317   0.351  14.954  0.0558 -0.1012 -0.0438
26582W        W41713   2.937  13.060  14.864  0.1961  0.0461  0.1649
26583W        W41714  15.947  10.462  15.698 -0.0186  0.2329  0.0791
26584W        W41715  16.680  11.916  13.476 -0.1611  0.2447 -0.2989
26585W        W41716   7.198  18.470  12.684 -0.2187  0.1354  0.1759
26586W        W41717  12.620  18.233  13.242  0.2230  0.1700  0.0653
26587W        W41718   2.637  16.756  15.093  0.3627  0.0687 -0.0646
26588W        W41719   4.684  10.982   5.914  0.4518  0.0168  0.0839
26589W        W41720   8.896  10.769   3.247  0.5739 -0.3069  0.1794
26590W        W41721   5.765  16.553   9.601  0.1406  0.2233 -0.1167
26591W        W41722  15.833   4.526   2.784 -0.0467  0.2651 -0.2809
26592W        W41723   2.851   7.419   0.613 -0.1264 -0.0944  0.0387
26593W        W41724   8.898  14.690   3.819  0.1916 -0.1624 -0.1424
26594W        W41725   5.680   8.683   1.756 -0.0297 -0.0964 -0.0152
26595W        W41726   5.460   5.090  15.266 -0.0204  0.1893 -0.0063
26596W        W41727  13.224  13.029   4.634 -0.0632  0.4629 -0.0793
26597W        W41728  15.437   6.489  14.924  0.2662  0.0126 -0.3390
26598W        W41729  12.726  11.650  12.124 -0.0873  0.0113  0.3832
26599W        W41730  10.709  10.564   3.483 -0.1282  0.2639  0.1087
26600W        W41731  11.874   4.032  12.286  0.2526 -0.0169  0.0134
26601W        W41732  11.099  15.206   0.842  0.2628 -0.0271 -0.0884
26602W        W41733   7.824  17.309  15.339  0.0936 -0.0639 -0.0557
26603W        W41734   7.556  15.779  14.261  0.2556 -0.0353 -0.3380
26604W        W41735  11.544  17.943  11.189  0.2570  0.0680  0.3811
26605W        W41736   1.179   3.474  15.569 -0.0840  0.0988  0.1509
26606W        W41737   1.009  14.592  15.044  0.1010  0.0225  0.1856
26607W        W41738  12.117   0.392  11.822  0.0310 -0.0731 -0.0749
26608W        W41739   2.514   8.255  15.083 -0.3386 -0.0495 -0.2612
26609W        W41740   7.570  18.209  14.061 -0.3113 -0.0328  0.0394
26610W        W41741  11.581  18.483  15.464  0.3204  0.0168 -0.1117
26611W        W41742   3.951  16.365   1.673  0.2107 -0.2578 -0.2240
26612W        W41743   4.915   3.513   1.285  0.3701 -0.1371  0.1319
26613W        W41744  15.234  14.266  11.271  0.0486  0.0536 -0.0264
26614W        W41745  17.163  13.447  11.886 -0.1080  0.1977 -0.1206
26615W        W41746  10.743  16.258  14.572 -0.2271 -0.0743  0.0182
26616W        W41747   9.785  15.196   0.579  0.0949  0.1130  0.1465
26617W        W41748   4.489  11.000  13.022 -0.2759  0.0741 -0.2189
26618W        W41749  18.221  15.952   4.146 -0.0557  0.1427  0.2133
26619W        W41750  10.931   5.518  10.585  0.0879  0.1970 -0.2045
26620W        W41751   9.451  13.652   0.587  0.4111  0.1536  0.2177
26621W        W41752   8.305  16.112   3.711  0.2634 -0.0051 -0.0888
26622W        W41753  16.192   6.521   5.433 -0.0564  0.1686 -0.4116
26623W        W41754  14.885   9.833   2.427  0.3278 -0.0770 -0.2190
26624W        W41755   4.237   6.471  11.921  0.0560  0.3752  0.2327
26625W        W41756   2.095   0.859   2.852 -0.1304 -0.2282 -0.0577
26626W        W41757   7.824   0.864  10.203 -0.1983 -0.3153 -0.1898
26627W        W41758   0.614   7.500  14.993 -0.0081  0.1674  0.3208
26628W        W41759   7.143   5.187  11.611  0.2916  0.0838  0.4049
26629W        W41760  18.511   3.003   2.188  0.0607  0.1698 -0.3563
26630W        W41761   7.195  12.485   4.278  0.3006 -0.0530 -0.1403
26631W        W41762   6.871  11.556   3.306 -0.0360  0.0051  0.0405
26632W        W41763  17.163  14.894   5.907 -0.0050 -0.0619  0.0920
26633W        W41764   2.672  15.459  10.647  0.0543  0.2513  0.2318
26634W        W41765  17.259  14.377   6.005  0.0752 -0.2355  0.0730
26635W        W41766  15.063  17.487   4.201  0.0094  0.1756  0.0819
26636W        W41767  15.094   7.031   0.457  0.0519 -0.2329 -0.2565
26637W        W41768   3.133  12.491   6.238  0.0099  0.1133 -0.0056
26638W        W41769   8.951   6.699  12.885 -0.3460  0.0067 -0.1420
26639W        W41770   5.341   3.143   5.351 -0.2163  0.6080  0.0671
26640W        W41771   4.378  17.087  15.250 -0.0140  0.1503 -0.0811
26641W        W41772  13.488   3.027   3.838  0.4500 -0.2639 -0.0829
26642W        W41773   8.366   5.963   0.971 -0.0532  0.0046  0.1697
26643W        W41774  12.785  14.442   0.911 -0.3954 -0.1285 -0.1531
26644W        W41775   6.361   9.411   3.636  0.0861  0.1171 -0.0658
26645W        W41776  11.892  15.894  14.737  0.2255  0.1552 -0.5843
26646W        W41777  15.819  10.939  15.830  0.0799  0.2154 -0.1696
26647W        W41778   2.118   9.822  13.925 -0.3066  0.2450 -0.2454
26648W        W41779   9.177   9.897   0.497 -0.0365 -0.1283  0.1186
26649W        W41780  17.693   8.402   3.252 -0.0771  0.1726  0.0746
26650W        W41781  13.364   2.919  13.341 -0.2006 -0.0566  0.3398
26651W        W41782   4.758  17.539  12.583  0.0410 -0.0847 -0.2935
26652W        W41783  11.477  15.145   1.695 -0.1189 -0.0595 -0.0867
26653W        W41784   9.593  10.408  15.293 -0.1516  0.0895  0.1144
26654W        W41785  12.558   7.652   3.196 -0.3521  0.0660 -0.1804
26655W        W41786  18.226   1.724  11.772 -0.0164 -0.0151 -0.1938
26656W        W41787  12.715  12.402   4.850 -0.0951  0.3399 -0.1526
26657W        W41788  13.874   2.087   3.941  0.2755  0.2374  0.2041
26658W        W41789  16.550   1.206   4.791 -0.4974 -0.0757  0.3574
26659W        W41790   9.283  15.253  13.300  0.0702 -0.0103 -0.0398
26660W        W41791   3.328   1.228  13.298  0.0614 -0.0235  0.0850
26661W        W41792   4.976   5.957  10.835 -0.0973 -0.4443  0.1664
26662W        W41793  17.893  17.731  14.746  0.0388 -0.0460 -0.1637
26663W        W41794   6.966   3.792  13.442 -0.3089 -0.1209  0.1589
26664W        W41795   0.501   0.907  15.107 -0.2457 -0.0413  0.0276
26665W        W41796  11.365   6.802   1.429  0.0792  0.0932 -0.0157
26666W        W41797   2.055  13.753   0.094 -0.1219 -0.2853  0.1273
26667W        W41798  16.459   2.766  13.637  0.0320 -0.3902  0.0409
26668W        W41799   6.654   1.470  14.827  0.0640 -0.3387 -0.1566
26669W        W41800  15.520  15.021   2.083 -0.4463 -0.1056  0.0403
26670W        W41801   5.078  11.075   4.108 -0.0968  0.0160 -0.0742
26671W        W41802   8.178   9.966   4.616  0.2585 -0.1765  0.2814
26672W        W41803  13.853   8.645   1.553 -0.1975  0.4060  0.0335
26673W        W41804  12.488   1.943  14.811  0.1230  0.1250  0.1181
26674W        W41805  11.058  16.587  12.199 -0.1589 -0.1363  0.1284
26675W        W41806  11.272   0.388   0.835 -0.0023  0.3691 -0.0262
26676W        W41807  16.644  11.132   0.868 -0.3424  0.0193  0.0938
26677W        W41808   8.004   8.698  15.830  0.2357 -0.1658  0.0292
26678W        W41809  10.028   2.496  12.888 -0.0511 -0.0129  0.3216
26679W        W41810  12.963   5.898   1.557  0.0069 -0.1230  0.0699
26680W        W41811  16.507   8.820  13.152  0.0903 -0.1062 -0.2173
26681W        W41812  14.691  12.062   1.512  0.0539 -0.0154  0.3268
26682W        W41813  18.390   6.442   0.999 -0.0794  0.0593  0.3591
26683W        W41814  12.084  13.864   2.649 -0.1405  0.3200  0.1621
26684W        W41815  13.534  15.025  11.553  0.0782 -0.2614  0.0760
26685W        W41816   1.279   6.348   2.783 -0.0164 -0.1428 -0.0508
26686W        W41817  15.160   4.439  14.388  0.3495 -0.3574 -0.0133
26687W        W41818   0.557   6.488   3.318 -0.1647  0.0755 -0.3801
26688W        W41819   4.592   1.978   4.590  0.0175 -0.0664  0.2042
26689W        W41820   5.000   4.456   0.121  0.1174 -0.1057 -0.3282
26690W        W41821   4.580   3.184  12.949  0.1746  0.0787  0.1086
26691W        W41822  11.006   6.085   0.469  0.0553 -0.0429 -0.0050
26692W        W41823  13.759  11.076   5.017 -0.1774  0.1770 -0.0845
26693W        W41824   9.024  10.194   4.150  0.1327  0.0790 -0.0836
26694W        W41825  15.271  14.171   2.757 -0.1129  0.0642  0.0119
26695W        W41826   2.303  14.685   5.177 -0.2963  0.0904  0.1894
26696W        W41827   6.030   0.146  11.195  0.0879 -0.1937 -0.0885
26697W        W41828   3.998   1.008  14.329  0.0498 -0.0960 -0.1588
26698W        W41829   7.441   6.926   2.041  0.0814  0.2375 -0.1250
26699W        W41830  14.956   8.224   6.232  0.1825  0.0349 -0.2462
26700W        W41831  13.124  12.698   5.017  0.0057  0.2425  0.0128
26701W        W41832   9.522   6.741   3.754  0.3661 -0.1191 -0.1140
26702W        W41833   2.970   5.104  12.872  0.0336 -0.2964  0.2773
26703W        W41834  14.008  11.787   0.967 -0.1362  0.1886  0.2772
26704W        W41835   7.969   6.805  11.365  0.0438 -0.2601  0.1360
26705W        W41836   5.929  17.817   0.956  0.0349  0.0886 -0.0571
26706W        W41837   1.093   0.522   9.759  0.0526 -0.0121 -0.0285
26707W        W41838  15.416   5.837   1.450  0.4670 -0.0065 -0.2437
26708W        W41839   2.569   8.520   4.984  0.1587 -0.0423  0.2266
26709W        W41840   7.711  12.523   1.852 -0.1745  0.1951  0.2242
26710W        W41841  11.907  11.445  13.588 -0.0763 -0.1186  0.2810
26711W        W41842   7.315  14.478   4.118  0.3219  0.1494 -0.0579
26712W        W41843   4.458  13.598  14.482  0.2799  0.0211 -0.0060
26713W        W41844  17.601  16.355   2.641 -0.3760  0.1016  0.0841
26714W        W41845   9.357   4.207  10.211 -0.2762  0.0187 -0.0192
26715W        W41846  15.199  15.053  14.839  0.0764  0.1219  0.0947
26716W        W41847  14.345  12.996  14.002  0.1357 -0.1380  0.0565
26717W        W41848  16.056  10.525   5.722 -0.0896  0.1210 -0.0025
26718W        W41849   9.222  16.620   1.161 -0.0928  0.0628 -0.1876
26719W        W41850  16.209  11.206   1.306 -0.1857  0.0600  0.0931
26720W        W41851   0.820  16.263   5.620  0.1096  0.0289  0.0396
26721W        W41852  10.447  10.133   4.344  0.1579  0.0760  0.2309
26722W        W41853   7.656  11.328   1.308  0.3304  0.2445 -0.1468
26723W        W41854   6.989  12.020   0.784  0.2122 -0.0840  0.0740
26724W        W41855  16.908  17.926  15.103  0.3623 -0.1019  0.1476
26725W        W41856   1.394   2.619  15.054 -0.1336  0.0683 -0.1203
26726W        W41857  18.231  16.527   0.955  0.2081  0.0899  0.3125
26727W        W41858  14.855   2.901   4.953 -0.2611 -0.1737  0.5557
26728W        W41859  11.137  11.075   2.305  0.1003  0.1066 -0.2544
26729W        W41860   3.126   6.851  13.449 -0.0596  0.1644  0.3160
26730W        W41861   9.209   6.825  15.416  0.0101 -0.1967  0.0454
26731W        W41862   9.769  13.853   3.653  0.3055 -0.0303  0.0603
26732W        W41863  11.495  13.506  15.827  0.0111 -0.0476 -0.4169
26733W        W41864   8.375   9.672  13.993  0.2022 -0.0537 -0.0015
26734W        W41865  14.942   7.309   3.726 -0.3616 -0.1129 -0.0522
26735W        W41866   3.768   0.726   0.656  0.1105  0.1669 -0.2057
26736W        W41867   9.881   0.031   1.043 -0.0679  0.0678 -0.1104
26737W        W41868   9.013   4.313   5.217 -0.1670 -0.0429  0.0971
26738W        W41869   7.175   1.289  15.830 -0.1613  0.0941 -0.2024
26739W        W41870   0.387   8.349  14.313  0.0986  0.2256  0.0505
26740W        W41871  16.339   1.223  13.768 -0.0443 -0.3096  0.0126
26741W        W41872   2.390  12.379  10.391 -0.2639  0.0199 -0.3204
26742W        W41873   6.578   0.523   5.714  0.1471  0.0099  0.0016
26743W        W41874  18.011   0.242  12.921  0.0453 -0.1036  0.1931
26744W        W41875  15.945   3.177   1.394  0.0898  0.1887 -0.2500
26745W        W41876   9.974   5.741  13.507 -0.3891 -0.2838  0.0040
26746W        W41877  13.559  12.318   1.635 -0.3829 -0.3149  0.2033
26747W        W41878  11.180   9.705   2.624 -0.0311  0.0078  0.1746
26748W        W41879  15.551   0.188  10.969 -0.1379 -0.2842  0.1940
26749W        W41880   3.310  11.891   0.534 -0.1791  0.1952  0.0194
26750W        W41881  15.356  14.125  13.867  0.2105 -0.3901  0.3478
26751W        W41882   2.844   7.230   2.491 -0.2787 -0.3842 -0.3043
26752W        W41883  14.045   2.042   0.790 -0.2168  0.2144  0.2048
26753W        W41884  15.442  18.271  14.696  0.0843 -0.1653 -0.0559
26754W        W41885  16.922  13.842   0.244 -0.1137  0.3789  0.0391
26755W        W41886   2.667   2.809   3.726  0.1779 -0.1773  0.0930
26756W        W41887   9.691  16.017   9.642 -0.2367 -0.0575 -0.1557
26757W        W41888  13.367  16.000   0.347 -0.1895  0.1870 -0.2638
26758W        W41889  17.868   2.346   1.197 -0.0204 -0.1898  0.2426
26759W        W41890  14.395  12.052   5.283  0.0378 -0.1591 -0.0311
26760W        W41891  12.023  18.210  10.982 -0.1719 -0.0115  0.2517
26761W        W41892  13.534   5.992  11.210  0.0971 -0.0189 -0.1117
26762W        W41893  10.093  16.772  13.552  0.1476  0.1572 -0.2192
26763W        W41894  17.063   6.955   5.498 -0.2912 -0.2562  0.1242
26764W        W41895  16.310  16.497   5.689  0.0859 -0.1164 -0.1713
26765W        W41896   6.919  12.886  13.711 -0.1605  0.1265  0.1078
26766W        W41897   2.704   4.708   2.250  0.2692 -0.3892  0.0811
26767W        W41898   2.153  16.573   4.923  0.3024 -0.3811  0.2583
26768W        W41899  11.709  12.168   2.349 -0.1309 -0.0990 -0.2343
26769W        W41900  16.517   7.451  15.891 -0.0386  0.2773  0.4640
26770W        W41901   0.982  10.564  11.667 -0.0482  0.0814 -0.0525
26771W        W41902  12.598  18.141   3.624  0.1509 -0.0258 -0.0251
26772W        W41903   1.865   4.417  12.220  0.2579 -0.0687 -0.0776
26773W        W41904   3.242   3.387   0.481 -0.3339  0.2562  0.0315
26774W        W41905   7.229   3.304  13.262 -0.0223  0.0693  0.1045
26775W        W41906   2.257   0.795   1.446  0.1799  0.0531 -0.1037
26776W        W41907   1.683   8.592  11.194 -0.0224  0.1763 -0.2019
26777W        W41908   2.197  11.967  15.885  0.1186  0.2804 -0.1840
26778W        W41909  17.628   7.769  10.240  0.0734  0.2769  0.0704
26779W        W41910   0.074   3.888  14.410 -0.1807 -0.1795 -0.0936
26780W        W41911   3.485   0.230  12.750  0.1801 -0.0470 -0.1403
26781W        W41912   5.621   7.670  15.774 -0.1816  0.2359  0.1738
26782W        W41913  11.222   9.759   1.290 -0.2987  0.0953 -0.3225
26783W        W41914  15.345   0.320  15.808  0.0732 -0.0335  0.4126
26784W        W41915   4.517  14.818   0.044 -0.2177  0.0490  0.0058
26785W        W41916  17.514   2.189  14.986  0.1824  0.1347 -0.1461
26786W        W41917   6.723  17.899   3.369  0.5403 -0.0800  0.0266
26787W        W41918  14.327   8.019  14.219 -0.1558 -0.0313 -0.0876
26788W        W41919   7.057   3.848   9.980 -0.1399  0.1903 -0.1795
26789W        W41920   6.116   0.544   1.185 -0.1218 -0.1036  0.0929
26790W        W41921  12.443   6.994  12.478 -0.0724 -0.0875  0.0619
26791W        W41922  16.106  16.596  14.371 -0.0477 -0.1996  0.1874
26792W        W41923   3.914   6.722  12.676  0.3050  0.2188  0.1750
26793W        W41924   6.459   1.384  11.821 -0.1252 -0.1263 -0.1397
26794W        W41925   0.393   3.062  15.612 -0.0697 -0.2846 -0.2148
26795W        W41926  15.527   1.409  15.565 -0.0081  0.1843  0.3406
26796W        W41927  18.380   6.586   1.822  0.2443 -0.1668 -0.0896
26797W        W41928   9.381   4.725  10.333 -0.4375  0.0035  0.1560
26798W        W41929   4.883  10.584   1.631  0.3184  0.0159 -0.2732
26799W        W41930   0.975   0.921   4.826 -0.2401 -0.1056  0.1202
26800W        W41931  15.741   2.363   5.004  0.1378  0.0829  0.0114
26801W        W41932   2.921  10.472  13.071  0.1572  0.0327 -0.1156
26802W        W41933   1.378   4.179  11.258  0.0164  0.1155 -0.0285
26803W        W41934   8.441   7.328  12.294 -0.0339  0.1359  0.2521
26804W        W41935  14.194  15.400   3.121  0.1400 -0.0984  0.3481
26805W        W41936   2.154   1.040   4.068 -0.0258 -0.2545 -0.1276
26806W        W41937   7.421   4.212  14.609 -0.0457  0.1306 -0.0189
26807W        W41938   6.560   9.586   2.367  0.3026 -0.1348  0.0592
26808W        W41939  12.038  17.283  14.134 -0.2240  0.0170 -0.1911
26809W        W41940   9.186  16.592  12.091  0.3302 -0.1726  0.0243
26810W        W41941  16.038  17.572  14.210  0.0378  0.2442  0.0965
26811W        W41942   3.835   9.946   0.723 -0.2506 -0.3886  0.0489
26812W        W41943   4.391   3.513   4.227  0.0348 -0.1375 -0.2533
26813W        W41944  10.548  13.374   3.897 -0.0914  0.0649 -0.2387
26814W        W41945   6.912   5.412  12.095 -0.0386  0.0643  0.0221
26815W        W41946   7.674  14.932  14.708  0.1027  0.0704 -0.2460
26816W        W41947  16.872   4.981   4.093 -0.0066 -0.2241  0.1577
26817W        W41948  16.609  15.664   3.973 -0.2129 -0.3091 -0.0275
26818W        W41949  15.537  17.452  12.787  0.1312  0.3732  0.1003
26819W        W41950  13.452   9.665  12.483 -0.3785 -0.0365  0.0045
26820W        W41951  13.615   8.627   4.456 -0.1208  0.3412 -0.0605
26821W        W41952   7.413   9.130  14.528  0.2400  0.1550  0.1730
26822W        W41953  16.279  12.951   3.415  0.1929  0.1627  0.2003
26823W        W41954  10.983   2.853  11.999  0.0988 -0.3051 -0.1099
26824W        W41955   7.701   8.815   3.231 -0.0423 -0.3629 -0.2965
26825W        W41956  17.900   5.823  13.782  0.1515  0.1163 -0.1887
26826W        W41957  14.017   9.734   3.687 -0.1106 -0.0633  0.0550
26827W        W41958  15.032  14.996   1.603  0.0155 -0.5378 -0.2217
26828W        W41959   6.751  18.365  12.335  0.0901  0.0986  0.0525
26829W        W41960   5.491  11.141  14.330 -0.0312 -0.0148 -0.0035
26830W        W41961  11.831  17.853   1.342  0.0735  0.2262  0.1628
26831W        W41962   0.394   1.269  12.138  0.0794  0.1583 -0.4199
26832W        W41963   8.475  13.085   1.719 -0.0639  0.1147  0.1303
26833W        W41964   2.665   8.895  11.327 -0.1332  0.0198  0.0565
26834W        W41965   4.093  14.066   0.450  0.2201 -0.1948  0.2101
26835W        W41966  14.761  10.033  15.422  0.0332  0.2780  0.1557
26836W        W41967   6.760   6.538   2.553 -0.1905  0.1897 -0.0505
26837W        W41968   7.723   2.077   9.707  0.2785 -0.2194  0.2400
26838W        W41969   7.545   5.676   2.214 -0.1097 -0.0825 -0.3566
26839W        W41970  17.964   5.127  11.546  0.2748  0.0637  0.0944
26840W        W41971  13.230  12.959   3.040 -0.0092 -0.1134  0.0940
26841W        W41972   8.132   6.742   0.392 -0.0540 -0.3682  0.1788
26842W        W41973   1.438  13.515   1.684 -0.1173 -0.3234 -0.0461
26843W        W41974  17.306   7.550  13.417  0.0445  0.2219 -0.0320
26844W        W41975   3.235  13.929  11.793 -0.0677  0.2771  0.2930
26845W        W41976  18.431   1.670  13.338 -0.1598  0.1495 -0.2144
26846W        W41977   3.200  16.163  14.520 -0.1839 -0.1829 -0.0235
26847W        W41978   1.372   1.424  10.717 -0.1369 -0.3665  0.2716
26848W        W41979  16.766   2.084  13.187 -0.5755 -0.1410  0.2112
26849W        W41980   3.562  16.844  13.079  0.0944 -0.4819  0.2129
26850W        W41981   2.347   9.536  12.848 -0.0561  0.2123 -0.0544
26851W        W41982   0.612   7.858  12.537 -0.1677  0.1439  0.2655
26852W        W41983   8.077   3.195  12.749  0.0606  0.0256  0.0415
26853W        W41984  10.239  15.537   5.263 -0.0866  0.2150 -0.0683
26854W        W41985  11.070  15.316  15.232 -0.2246  0.2248 -0.2763
26855W        W41986  12.894   5.444   2.089 -0.1529  0.0741 -0.1925
26856W        W41987  14.284   8.151  12.214 -0.0694  0.0432 -0.0101
26857W        W41988   9.423  18.503  14.291  0.0502  0.0638 -0.0888
26858W        W41989  17.681  18.162   3.385  0.1856  0.0732 -0.2774
26859W        W41990   5.502  17.687   3.632  0.1353 -0.0803  0.1827
26860W        W41991   4.570   8.632   0.311 -0.2424 -0.0933 -0.2921
26861W        W41992  10.421  12.738  15.197  0.0518 -0.0056 -0.0548
26862W        W41993   4.001   3.531   3.812 -0.1354  0.1803  0.0961
26863W        W41994  14.450  17.944  15.054 -0.2056 -0.3270 -0.1490
26864W        W41995  10.364   4.169  13.436  0.0335  0.0307 -0.0116
26865W        W41996  10.551  14.874   1.264 -0.0547  0.0268  0.2145
26866W        W41997   3.000   5.953  11.849 -0.1038  0.0541 -0.2624
26867W        W41998   2.097  14.186   1.137 -0.1942 -0.2693  0.2634
26868W        W41999  16.603   6.492   4.074 -0.1488 -0.0296  0.1569
26869W        W42000   6.110   9.915   5.379 -0.0030  0.1953 -0.1182
26870W        W42001  12.354   1.817  13.936 -0.1481 -0.1035  0.0835
26871W        W42002   9.362   0.874  14.066 -0.2278 -0.1041 -0.0656
26872W        W42003  14.205  16.222  12.210 -0.1571 -0.3321  0.1809
26873W        W42004  14.607   4.014   3.685  0.0820  0.0885 -0.0687
26874W        W42005  13.767  15.877   4.171 -0.1282  0.2898 -0.3252
26875W        W42006   1.824   0.029   4.876 -0.1995 -0.3380 -0.2707
26876W        W42007   6.549   9.055   2.148 -0.0419 -0.1637  0.1080
26877W        W42008   2.574  16.179   5.058 -0.0171 -0.1407 -0.0277
26878W        W42009   1.284  18.298  15.238 -0.1631  0.1407  0.0014
26879W        W42010   8.990   5.946  15.449  0.1493 -0.2262  0.3247
26880W        W42011   6.496   6.397   1.314 -0.2436  0.2276  0.1693
26881W        W42012  10.695  11.683  15.327  0.2533 -0.0039  0.4630
26882W        W42013  11.695  16.943  13.193  0.1042 -0.3039  0.0185
26883W        W42014   7.748   9.250  11.037 -0.0877  0.1375 -0.1494
26884W        W42015  12.905  14.925   0.813  0.0004 -0.0785 -0.2245
26885W        W42016  14.382  11.004  11.203 -0.0479  0.2572  0.0895
26886W        W42017   3.855   0.770   2.932  0.0048  0.0941 -0.2710
26887W        W42018  17.319   4.427   5.569  0.1896 -0.1178 -0.0680
26888W        W42019   8.551  18.014  15.384 -0.0182  0.0493 -0.3591
26889W        W42020  12.893   6.677  11.254  0.0832 -0.1351  0.0899
26890W        W42021  12.144   7.879   2.808 -0.3997  0.1321  0.1123
26891W        W42022   5.116   9.480  15.821  0.3275  0.3167 -0.0301
26892W        W42023  15.318  15.720  11.637  0.0214  0.1426  0.0940
26893W        W42024  17.915   2.956  13.039 -0.0519 -0.0861  0.2068
26894W        W42025  16.841  13.946  13.151 -0.0510  0.0330  0.3367
26895W        W42026   5.670   3.013  11.128  0.0967 -0.2835 -0.0484
26896W        W42027  12.615   7.641  14.907 -0.2068  0.0524 -0.0468
26897W        W42028   8.962   8.726  10.102 -0.0904 -0.2573 -0.3649
26898W        W42029   6.608  17.686   1.839 -0.2495 -0.0250 -0.2393
26899W        W42030   3.332   4.336   3.126 -0.1371 -0.0293  0.0109
26900W        W42031  10.850   5.385  12.943  0.2385  0.0887 -0.2626
26901W        W42032   4.972  12.709  10.579 -0.1272 -0.2733  0.2217
26902W        W42033   9.909   6.597   4.286  0.0218 -0.0082 -0.2640
26903W        W42034  16.156   7.303   4.832 -0.1047  0.3935 -0.0289
26904W        W42035  11.534  17.327   0.417  0.1571  0.1304  0.1487
26905W        W42036  12.490  14.771   4.354 -0.1354 -0.0761  0.0899
26906W        W42037  14.378   5.039   1.253 -0.1532  0.2280  0.2815
26907W        W42038   1.551   6.029  11.258 -0.3479  0.1179 -0.0087
26908W        W42039  16.656  10.972  11.075  0.1036 -0.0648  0.0938
26909W        W42040  15.368   3.453   4.637 -0.0803 -0.3121 -0.2159
26910W        W42041  15.362  15.978   4.271 -0.0369 -0.0664  0.4119
26911W        W42042   4.212   8.714  15.034  0.0516 -0.0346 -0.1749
26912W        W42043  16.004   7.515   0.027  0.3632  0.1544  0.0210
26913W        W42044   0.412  16.972  13.021  0.0778  0.1637  0.0383
26914W        W42045   4.986  16.411  10.237 -0.2461 -0.2257  0.0814
26915W        W42046  16.627   7.760   3.302 -0.0639 -0.0325  0.2735
26916W        W42047  16.203  12.788  13.887 -0.2228  0.0034  0.3114
26917W        W42048  12.303  17.553  15.828  0.3060  0.0765  0.0700
26918W        W42049  10.757   8.931   2.350  0.2299 -0.0479  0.1121
26919W        W42050   8.306   5.734   0.468  0.0582  0.3224 -0.1233
26920W        W42051   7.769  17.289  12.405  0.1264 -0.0109  0.2766
26921W        W42052  14.269  17.015  12.850  0.2856  0.0400 -0.2501
26922W        W42053   8.677   1.135  15.547 -0.1175  0.3096 -0.0277
26923W        W42054   8.670   2.620   0.706  0.1718 -0.1001 -0.2838
26924W        W42055  12.127   3.615   4.923 -0.0393  0.1928 -0.1262
26925W        W42056   9.811  17.642  12.848 -0.0230  0.0879  0.3388
26926W        W42057   7.118   7.580   1.815 -0.1768 -0.0650  0.3437
26927W        W42058   4.151   3.418  12.618  0.0398  0.1947  0.1305
26928W        W42059   8.567  13.255  11.442  0.0172  0.0616  0.1692
26929W        W42060  16.892   1.706  12.606 -0.0524  0.3476  0.2695
26930W        W42061  10.413   7.073   5.101 -0.1247 -0.2512  0.2538
26931W        W42062  12.098   4.308   0.532  0.0196 -0.1185  0.0991
26932W        W42063  12.683   8.096   2.135 -0.1000  0.0962 -0.2597
26933W        W42064   5.003  14.539  10.712 -0.0152 -0.1870 -0.2784
26934W        W42065  15.869  11.318   3.904  0.1295 -0.2962 -0.1269
26935W        W42066  13.162  12.412  14.793  0.0166 -0.0900  0.2555
26936W        W42067  16.611  12.715  14.320  0.0486 -0.0774 -0.2020
26937W        W42068   3.439   0.844  13.538  0.1060 -0.1187 -0.0261
26938W        W42069   1.308  13.938  14.057 -0.0645  0.1770 -0.0164
26939W        W42070   5.903  13.903   1.277 -0.1750 -0.0469 -0.1060
26940W        W42071   1.177   8.964   6.364 -0.0218  0.0762  0.2648
26941W        W42072   7.099   7.026   0.452 -0.0718  0.3296  0.4293
26942W        W42073   1.539   4.025   3.145  0.0474  0.1848 -0.3124
26943W        W42074   5.288   6.187   0.751  0.1514 -0.1744  0.1523
26944W        W42075   9.547   7.460   2.162  0.1036  0.3195  0.2326
26945W        W42076   4.871   0.068  12.875 -0.2239  0.3778  0.0711
26946W        W42077  16.037   9.627   2.781 -0.2661 -0.0635 -0.1606
26947W        W42078  10.617  17.341   0.553  0.1747  0.1620 -0.1649
26948W        W42079   9.148  13.724   2.262  0.2206 -0.0360  0.0276
26949W        W42080   4.244  16.183  11.927  0.0301  0.2320  0.1890
26950W        W42081  14.143   0.554   5.699 -0.0736  0.0071  0.0893
26951W        W42082  12.903  18.016  13.986 -0.3707  0.0760  0.1267
26952W        W42083   7.867  11.799   4.742 -0.1298 -0.0509  0.2284
26953W        W42084   5.799   0.703  11.738 -0.1510  0.3277 -0.2816
26954W        W42085  10.211  15.516  14.685  0.0128 -0.0377  0.1133
26955W        W42086   7.131   9.379  11.757  0.0295  0.0192  0.0888
26956W        W42087   0.474   4.426  12.782  0.0383  0.1687 -0.0632
26957W        W42088  13.040   7.178  12.496  0.2382  0.0075  0.2065
26958W        W42089   3.365  14.891   3.801 -0.2914  0.0809 -0.0059
26959W        W42090   4.733  13.940  11.837 -0.1662 -0.3749  0.1655
26960W        W42091  14.065   0.598  15.643  0.1994  0.0145  0.0816
26961W        W42092  18.087   8.198  11.049 -0.3517 -0.0842 -0.0036
26962W        W42093   2.943   4.726  13.916 -0.2180  0.3520 -0.0142
26963W        W42094  12.531  17.261  14.088  0.3618  0.1913 -0.1443
26964W        W42095   4.288   2.912   2.323  0.5721  0.0911  0.0043
26965W        W42096  13.913  15.726  13.057  0.0487 -0.1202 -0.0192
26966W        W42097   2.215   5.632  12.396  0.0882 -0.2055  0.2450
26967W        W42098   8.815   0.966  11.545 -0.0261  0.2956 -0.0756
26968W        W42099   2.153   9.364   1.064  0.0616  0.4989  0.0929
26969W        W42100   9.045   6.473  14.762  0.1948 -0.2699 -0.0807
26970W        W42101   2.934   7.337   1.122  0.0533  0.1335  0.1808
26971W        W42102  13.995   9.852  10.798  0.3754 -0.0156 -0.0586
26972W        W42103  10.829  12.402  15.234 -0.1141 -0.2459  0.0756
26973W        W42104   1.542  17.564  12.335 -0.1795  0.0363  0.1742
26974W        W42105  13.197  18.006   4.915 -0.0631 -0.0799 -0.2771
26975W        W42106   7.169   4.033  15.029  0.0564 -0.1787  0.4044
26976W        W42107   7.374  11.526  15.346  0.0786  0.1186  0.1772
26977W        W42108  16.135   9.284  11.188 -0.1055 -0.1712  0.1243
26978W        W42109   6.950   1.710  12.413 -0.3332  0.1588  0.1910
26979W        W42110   5.825   2.753  11.902 -0.0213  0.1878 -0.0737
26980W        W42111  17.354   5.937  13.735  0.1363 -0.2256  0.0646
26981W        W42112  13.376   6.832   2.019 -0.0134  0.1659 -0.1892
26982W        W42113  10.856   9.462  13.476 -0.3062  0.0185 -0.4761
26983W        W42114  13.507   8.356  11.729  0.3901  0.1260 -0.0498
26984W        W42115   1.427   5.957   0.506  0.1699  0.3037  0.0556
26985W        W42116  18.459  10.346  13.589 -0.0054 -0.0954 -0.1640
26986W        W42117  14.730   8.593   0.872  0.2218 -0.2174 -0.3436
26987W        W42118   3.355  14.479  10.907  0.0028  0.3208 -0.3581
26988W        W42119   1.206   9.181  10.913  0.3574 -0.2328  0.0021
26989W        W42120   3.224   3.052  11.961 -0.0395 -0.0616  0.1440
26990W        W42121  10.803  11.836   0.337 -0.0568 -0.0261 -0.1816
26991W        W42122  11.237   0.653   5.859 -0.0287 -0.0104 -0.1190
26992W        W42123  11.299  17.897   3.792 -0.1551 -0.0837  0.1220
26993W        W42124  12.705  12.687   5.261  0.1279  0.0528  0.2305
26994W        W42125  16.984  15.934  12.429  0.0671 -0.1335 -0.0318
26995W        W42126   6.977   7.545   5.217  0.0931 -0.1309  0.0832
26996W        W42127   6.245   2.199   2.661  0.2388  0.1143  0.2542
26997W        W42128   9.458   0.689   3.583 -0.2261  0.0690 -0.0830
26998W        W42129  13.527  12.298   0.352  0.1470 -0.0266  0.1518
26999W        W42130   9.907   6.895  10.749 -0.0817  0.1904  0.0804
27000W        W42131   8.613  18.311  13.073  0.1505 -0.1719 -0.0266
27001W        W42132   8.643   8.348  15.435  0.1616  0.2255 -0.3581
27002W        W42133  14.654   1.431   0.107  0.0524  0.2582 -0.0981
27003W        W42134   9.629  12.655   4.710 -0.0278 -0.0240  0.2256
27004W        W42135  14.277   8.607  12.470 -0.1224  0.0430 -0.0992
27005W        W42136  16.759   1.139  13.942 -0.3248  0.1001  0.0923
27006W        W42137   7.710   6.551  13.422 -0.5032 -0.2094 -0.2535
27007W        W42138  12.449   6.900   0.144  0.3490 -0.0661  0.1987
27008W        W42139   1.390   2.803  12.166 -0.0306 -0.2687  0.0658
27009W        W42140  18.390   5.276  14.241 -0.1173 -0.1461  0.1879
27010W        W42141   1.500  13.743   2.495 -0.3130 -0.1062  0.3151
27011W        W42142  11.864   0.962  13.978 -0.0222 -0.0911 -0.0034
27012W        W42143  17.252   9.795   4.381 -0.0694 -0.3083  0.2225
27013W        W42144  14.302  12.030  15.517 -0.1824  0.1413  0.2099
27014W        W42145  18.493   9.669   1.810 -0.0293  0.0424  0.1998
27015W        W42146   7.665   2.500   5.495 -0.1087 -0.1078 -0.1626
27016W        W42147   1.877  16.163  10.596 -0.1937 -0.2040 -0.1643
27017W        W42148   7.368   6.060   2.497  0.2019 -0.1814  0.0623
27018W        W42149  16.380   4.829  15.736 -0.2322  0.1968 -0.0207
27019W        W42150   1.738   7.966   1.180  0.1678  0.2217  0.1577
27020W        W42151   2.837   9.164  13.488 -0.2517 -0.3917 -0.0165
27021W        W42152   8.382   1.268   4.712 -0.0596  0.0446  0.0047
27022W        W42153  14.990   7.748   0.679  0.2271  0.1748 -0.3128
27023W        W42154  13.709   1.900  13.643 -0.0557 -0.0623 -0.2940
27024W        W42155   3.246   6.344  10.881 -0.3770  0.3840  0.1604
27025W        W42156   1.061   5.923  13.255 -0.2502 -0.2075  0.1970
27026W        W42157   4.037   7.037  10.898 -0.1637  0.1608  0.1288
27027W        W42158  15.960  16.593  11.145  0.1202 -0.0572  0.2093
27028W        W42159   5.342  11.604  11.764 -0.1246  0.0722 -0.1021
27029W        W42160  15.485  11.500  11.690  0.0850  0.2418  0.1774
27030W        W42161  13.593  10.417  11.252  0.0674 -0.2966  0.0699
27031W        W42162   1.179  10.402  13.621 -0.0969 -0.3445  0.5014
27032W        W42163  13.876  17.697   0.586  0.0956 -0.1111  0.0651
27033W        W42164   5.554   9.730   4.830  0.2838  0.2642  0.0856
27034W        W42165  16.912  10.323   1.355  0.1393  0.2453  0.0632
27035W        W42166   4.766   4.591  12.828  0.1805  0.0720  0.0081
27036W        W42167  13.817  10.039   2.542 -0.3483 -0.2994 -0.3602
27037W        W42168   8.368   1.422  15.816  0.0913 -0.2603 -0.0288
27038W        W42169  15.054   0.829   4.440  0.0304 -0.1410 -0.2508
27039W        W42170  15.073  16.723   2.756  0.2007 -0.0507  0.0625
27040W        W42171  11.181   9.831  10.775 -0.0096 -0.0712  0.0102
27041W        W42172   5.632   9.933   0.515  0.1478  0.1741  0.0220
27042W        W42173   8.227  14.156  12.477  0.3263  0.0431  0.1437
27043W        W42174  18.376  12.393  12.706  0.1299 -0.2959 -0.0992
27044W        W42175   2.497   5.730  10.384  0.3407  0.3075  0.0794
27045W        W42176  16.860   3.738   0.953  0.0540  0.1993  0.0003
27046W        W42177  15.989  12.524   3.408  0.2826  0.2807  0.2301
27047W        W42178  15.727   8.549   6.207 -0.0146  0.1477 -0.0364
27048W        W42179  12.476  10.908   1.696  0.1175  0.0027 -0.1989
27049W        W42180   6.959  14.666  10.794  0.1947  0.0139  0.3520
27050W        W42181  16.752   1.295  11.145  0.1094  0.0986  0.1052
27051W        W42182   2.837   9.199   3.822  0.1298 -0.0306 -0.0012
27052W        W42183   0.237  12.263   2.427  0.1570 -0.0525 -0.0577
27053W        W42184  17.763  18.222  15.594  0.0956  0.3463  0.0592
27054W        W42185   5.923   4.195  14.606 -0.2911  0.0487 -0.0922
27055W        W42186  13.436   1.608  14.559  0.0917  0.0991  0.1264
27056W        W42187   0.154  15.521   0.070 -0.0615 -0.1242  0.0511
27057W        W42188  11.882  13.965   1.720  0.4144  0.0914 -0.2102
27058W        W42189   4.301   2.262   3.709  0.0546 -0.3706 -0.2964
27059W        W42190  14.042  14.298  11.364 -0.1913 -0.0287  0.1474
27060W        W42191   1.232  11.777   3.804  0.1525  0.0716  0.1359
27061W        W42192   3.700   5.501  11.773  0.2647  0.2610  0.1165
27062W        W42193  12.490  16.982   0.458 -0.1421  0.1977 -0.3138
27063W        W42194   4.856   4.927   0.124 -0.0496 -0.2256 -0.0014
27064W        W42195  17.456   9.274   4.184 -0.0162  0.4416  0.1727
27065W        W42196   6.887   0.746   1.439  0.2091  0.0581  0.0314
27066W        W42197  18.019  11.584   4.640  0.0616 -0.1759  0.0551
27067W        W42198  11.575   7.866   2.771  0.0615 -0.0595  0.1387
27068W        W42199  10.623  10.639  15.828 -0.0504 -0.0786 -0.0511
27069W        W42200   7.240  13.768   1.895 -0.1046 -0.1644  0.2176
27070W        W42201   6.001  13.428   2.411  0.0004 -0.3565  0.1053
27071W        W42202   9.953  12.813  15.453 -0.0929  0.3414  0.3361
27072W        W42203   6.208   9.930   3.759 -0.1901 -0.3249  0.3081
27073W        W42204  18.058   9.835  12.853 -0.0694  0.0989 -0.2826
27074W        W42205  13.008  10.007   2.708  0.0543 -0.0327 -0.3075
27075W        W42206   9.600  17.174   2.397  0.1964 -0.3879  0.0360
27076W        W42207  13.469   1.373   1.560 -0.1084 -0.4290  0.1917
27077W        W42208  12.902  16.752   4.655 -0.0775 -0.2562  0.0121
27078W        W42209  11.207   1.047  11.262  0.2146 -0.1204  0.3590
27079W        W42210   6.592   6.360  12.270 -0.2202  0.0352 -0.2862
27080W        W42211   1.542   2.765  14.222 -0.2843  0.3209  0.0681
27081W        W42212   9.652   9.018   0.544  0.3871  0.0922  0.1678
27082W        W42213   9.678  15.481  14.740  0.2153 -0.0687  0.2538
27083W        W42214  17.055   5.329  15.542 -0.2466  0.5262  0.3388
27084W        W42215   0.366  16.291  14.856 -0.0794  0.0258 -0.1275
27085W        W42216  13.720   6.627   5.666  0.2020 -0.0507  0.0023
27086W        W42217  14.261   2.083  11.914  0.1196  0.5298 -0.2022
27087W        W42218  12.510   7.885  12.061  0.1513 -0.2184  0.0431
27088W        W42219   9.535   6.198   3.099 -0.0326  0.0539  0.1978
27089W        W42220   0.682  18.109   1.418 -0.1968 -0.1612 -0.0343
27090W        W42221  16.333   1.992   2.366 -0.0850 -0.1245 -0.0608
27091W        W42222  10.523   7.126  14.653 -0.0029 -0.2079  0.2239
27092W        W42223   8.364   9.357   0.094 -0.1061  0.3204 -0.1778
27093W        W42224   9.123   8.406   3.741  0.0924 -0.0431 -0.4066
27094W        W42225  13.219  11.049   5.044 -0.1788  0.0647 -0.0029
27095W        W42226   5.026   2.574  15.465  0.0513 -0.2571  0.3143
27096W        W42227  10.725  18.085  10.747 -0.0605 -0.0138  0.1681
27097W        W42228  15.415   2.188   0.869  0.1379  0.0510 -0.1131
27098W        W42229  12.645   4.863   4.371 -0.1914  0.0704  0.0747
27099W        W42230   3.886  13.726   4.641 -0.1977  0.0370  0.2058
27100W        W42231  17.897   4.923   2.224 -0.0207 -0.3332 -0.0264
27101W        W42232   4.235   0.706   1.609  0.0744  0.0913 -0.0990
27102W        W42233  10.804  11.413  12.745 -0.0055 -0.1565 -0.0272
27103W        W42234  16.683  13.645  11.890 -0.1617 -0.1163 -0.0140
27104W        W42235  13.739   3.610  15.038 -0.1294  0.0634  0.4615
27105W        W42236  15.560  11.663   0.108  0.3759  0.0701 -0.0020
27106W        W42237   0.873  18.395   4.000  0.2749  0.2521  0.0597
27107W        W42238   4.116   1.931  13.796  0.0065  0.2240 -0.2749
27108W        W42239  17.241  17.673  13.605  0.3368  0.3494 -0.2763
27109W        W42240  13.704  11.208   5.743  0.1686 -0.0399  0.0868
27110W        W42241  18.507   6.833  11.864  0.0944  0.0057  0.1315
27111W        W42242  10.219  14.972   5.126 -0.2640 -0.0426 -0.0553
27112W        W42243  11.796  12.811   0.151 -0.1645  0.0812  0.0999
27113W        W42244   9.489  12.641  14.489 -0.0642  0.0751 -0.0435
27114W        W42245  18.498   9.588   1.290 -0.1327  0.3331 -0.1259
27115W        W42246   7.085  13.295   0.609  0.1938  0.2792 -0.1036
27116W        W42247  17.000  13.737  13.766  0.0227  0.0144  0.0097
27117W        W42248   9.988   6.809   3.849 -0.1127  0.0947  0.3944
27118W        W42249   2.926  11.609   0.740 -0.2396  0.1949  0.2885
27119W        W42250  16.741   9.594  11.284 -0.0804  0.1700 -0.2424
27120W        W42251  16.765   9.182   1.911 -0.4517  0.0090 -0.0847
27121W        W42252   5.059   4.914   2.202  0.2765 -0.0172 -0.0523
27122W        W42253   5.995   2.784  15.416 -0.2326 -0.1418 -0.3326
27123W        W42254   0.009  14.244  14.670 -0.0341 -0.3197  0.2070
27124W        W42255  14.385   6.375   0.556  0.0556 -0.0538 -0.1523
27125W        W42256  15.105  15.188   0.167  0.3525 -0.1618 -0.0917
27126W        W42257  12.339   8.064  10.793 -0.3038 -0.0724  0.1022
27127W        W42258  13.316  13.531   4.938  0.2292  0.4665  0.0205
27128W        W42259   2.130  15.159  12.852 -0.3629 -0.0085  0.1950
27129W        W42260   1.699  17.847   1.473 -0.0155  0.0117 -0.1815
27130W        W42261   4.413  16.086   1.962  0.3960 -0.2269 -0.0007
27131W        W42262  16.714  15.084   6.045  0.1493 -0.0331 -0.0054
27132W        W42263   3.693  11.406  13.494 -0.4482  0.3363 -0.2518
27133W        W42264   0.430   3.847  12.929 -0.0243  0.1601 -0.1600
27134W        W42265   2.135   3.769   4.569 -0.1289  0.2290  0.1001
27135W        W42266  17.264  15.241   4.990  0.3699  0.2122 -0.2218
27136W        W42267   2.175   4.297  12.870  0.0439 -0.1697  0.1475
27137W        W42268  16.415  13.406   1.461 -0.1854  0.0308 -0.1915
27138W        W42269   4.493  16.929   1.242  0.0438  0.1684  0.1174
27139W        W42270   4.012   1.918  10.952 -0.0275  0.1667  0.1042
27140W        W42271   2.828  14.684   5.125 -0.0559  0.0457 -0.2140
27141W        W42272  11.746  10.399  14.716 -0.0622  0.2346 -0.2152
27142W        W42273   2.283  17.957  13.821  0.0880  0.0405  0.2513
27143W        W42274   7.670   8.917   1.325 -0.2830 -0.0818  0.2270
27144W        W42275  17.471  14.890   0.642  0.0856  0.0007 -0.2045
27145W        W42276   9.753   3.672   4.498  0.0300  0.2252  0.0912
27146W        W42277   8.942  17.390   3.793  0.0742 -0.0766  0.3385
27147W        W42278   8.651   0.305  13.160  0.1152 -0.2016 -0.0779
27148W        W42279   6.428  10.030  15.340 -0.2536  0.1206 -0.5372
27149W        W42280  11.960   1.606  15.055  0.2335 -0.2331  0.0356
27150W        W42281   1.376   0.481  14.801  0.0537  0.0222  0.4819
27151W        W42282   3.399  14.176   1.306  0.2726 -0.1972 -0.1719
27152W        W42283   6.715  11.829   1.216 -0.1099 -0.0318 -0.0812
27153W        W42284  16.305   8.794   2.593 -0.0831  0.1045  0.0672
27154W        W42285  18.425   9.646  15.222 -0.1739 -0.0808  0.0169
27155W        W42286   6.965   0.601  10.686  0.0118  0.0236 -0.3051
27156W        W42287  10.875   8.262   0.867  0.2504 -0.0756 -0.0311
27157W        W42288  16.745  14.213   2.150 -0.0264  0.0772  0.2351
27158W        W42289   7.970  14.480   1.104  0.0807  0.0535 -0.0259
27159W        W42290   4.779   8.368   3.652 -0.1232  0.1766  0.0240
27160W        W42291  16.380  17.084  11.637  0.0949 -0.3090 -0.0876
27161W        W42292   5.978  15.006   3.954  0.2302 -0.1175 -0.1173
27162W        W42293  11.797  14.581   5.068 -0.2976  0.0049  0.1913
27163W        W42294   3.084  17.828  12.351  0.3852 -0.2738  0.0673
27164W        W42295  18.264  12.956   3.577 -0.0998 -0.2703 -0.3367
27165W        W42296   9.639  14.014   9.560 -0.2412 -0.2762  0.2082
27166W        W42297  12.411  13.556   5.629 -0.1294 -0.3230  0.3850
27167W        W42298   5.217  12.533  14.317  0.0429 -0.2143  0.0727
27168W        W42299   0.648   0.763   9.825 -0.0111 -0.1421 -0.2822
27169W        W42300  16.049   8.654  15.338  0.0383 -0.1866 -0.1292
27170W        W42301   5.274  17.809   1.197 -0.3239  0.0740  0.1218
27171W        W42302  18.021  10.934   2.899 -0.2577  0.4111 -0.4533
27172W        W42303   7.617   9.540   2.693 -0.0300 -0.1034  0.4753
27173W        W42304  13.672   1.703  10.979 -0.1582  0.0016  0.0961
27174W        W42305   0.892  18.032  12.526 -0.0160 -0.2492  0.0119
27175W        W42306  11.537  10.704   5.082  0.0468 -0.1923 -0.0099
27176W        W42307   1.312  18.356  15.740 -0.2789 -0.2084 -0.0611
27177W        W42308   5.147  15.954  10.379  0.0481  0.1817 -0.0477
27178W        W42309  12.345   0.755  14.049 -0.0283  0.0771 -0.0800
27179W        W42310   4.127   8.361  14.155  0.1309  0.1134  0.0554
27180W        W42311   5.003  14.954  11.316 -0.0074  0.1436  0.1457
27181W        W42312  16.953  17.234   1.376  0.3433  0.1298  0.0992
27182W        W42313   7.419  11.168   4.211 -0.1766 -0.0361 -0.3040
27183W        W42314  16.778  12.569  11.442 -0.1121 -0.2833  0.0003
27184W        W42315   7.077   7.366  13.787  0.0420  0.0393 -0.1242
27185W        W42316  14.349   1.292   2.964 -0.0408 -0.1304 -0.1901
27186W        W42317  10.855   7.970  13.117  0.2769 -0.0946 -0.0843
27187W        W42318   8.749  18.167   2.119  0.0167 -0.2195  0.2071
27188W        W42319   5.773   5.171  15.865 -0.1118  0.3909  0.2054
27189W        W42320  10.485  12.211   1.356 -0.0899 -0.0519  0.0499
27190W        W42321   1.347   3.242   3.869 -0.1817  0.1707 -0.0974
27191W        W42322  16.263  12.024  13.183 -0.2020 -0.1682  0.1974
27192W        W42323   9.683  12.103   4.587  0.3582  0.0832  0.0400
27193W        W42324  11.453   3.210   3.277 -0.1091  0.1452 -0.2032
27194W        W42325  16.772  14.459  12.880 -0.1929 -0.2955 -0.0639
27195W        W42326   7.115  12.750  12.097 -0.0659 -0.0555  0.1773
27196W        W42327  12.136   5.918   1.421 -0.2124 -0.0583 -0.3563
27197W        W42328   3.666  15.992   2.529  0.0236  0.0911  0.0143
27198W        W42329  13.648  13.682  10.698 -0.1817  0.0901  0.2794
27199W        W42330   8.963  12.031   0.944 -0.1197 -0.0373  0.2540
27200W        W42331   1.151   6.072   5.845  0.2783  0.3438 -0.1330
27201W        W42332  18.041   4.702  13.742 -0.2789 -0.3870  0.0870
27202W        W42333   9.830  17.515   3.312 -0.0550  0.0030  0.1833
27203W        W42334  11.076   3.518  12.305 -0.0131  0.1435  0.2239
27204W        W42335   4.279  16.301  10.606 -0.0435 -0.5638  0.3499
27205W        W42336   5.741   4.414   5.222  0.0891 -0.3121 -0.0523
27206W        W42337   8.006  14.806   3.689 -0.1113 -0.2452 -0.0536
27207W        W42338   5.216  18.519  12.243  0.2652  0.3525 -0.0322
27208W        W42339  12.515   1.033  14.431  0.2590  0.1107 -0.1946
27209W        W42340  14.681   4.226  11.145  0.0971  0.2967  0.4583
27210W        W42341   4.257  12.207   2.830  0.0438  0.0787 -0.0193
27211W        W42342   0.642  17.750   5.734 -0.1824  0.1015  0.0195
27212W        W42343   0.125   5.727  10.411  0.0326 -0.3141 -0.2769
27213W        W42344  12.600   0.102   2.942  0.2166  0.0087  0.0170
27214W        W42345   9.022   5.333   0.894 -0.4604  0.0228 -0.0691
27215W        W42346   3.311   2.644   2.160  0.1370  0.1462 -0.0787
27216W        W42347  10.704   6.643   1.728 -0.1432  0.1013  0.0708
27217W        W42348  17.826  12.469  14.919 -0.1521  0.2364 -0.1561
27218W        W42349  11.349  14.943  12.245  0.2096  0.0448  0.0940
27219W        W42350   2.788  16.597  12.775 -0.0036 -0.2059  0.1664
27220W        W42351  17.095  15.088   1.041  0.0154  0.1137 -0.1271
27221W        W42352   6.459  16.374   3.879  0.1429 -0.3839 -0.3650
27222W        W42353  14.118  14.120   1.995 -0.1653  0.1022  0.0511
27223W        W42354   9.796   6.196  14.013 -0.1539  0.0624 -0.1687
27224W        W42355   6.554  10.269  11.323  0.3228 -0.1143 -0.3215
27225W        W42356   2.201  12.138  14.146  0.2616  0.0004 -0.0687
27226W        W42357   5.579  17.901   4.381  0.2620 -0.0188 -0.2224
27227W        W42358  10.156  11.313  11.787  0.1108  0.0561 -0.0480
27228W        W42359  18.234   6.754   1.339  0.0025 -0.2395 -0.1326
27229W        W42360  14.180   2.688   3.324  0.1998 -0.2700 -0.1448
27230W        W42361  13.615   1.055   0.923  0.3793  0.0123 -0.0072
27231W        W42362  11.740  13.850  10.584  0.0556  0.0177 -0.2367
27232W        W42363  10.683  11.970  13.341 -0.0782 -0.4623  0.2794
27233W        W42364  15.837   2.249   0.123  0.1116  0.0305 -0.0282
27234W        W42365   0.346   9.692  14.451  0.0278  0.3342  0.1568
27235W        W42366  17.149   5.613   5.530  0.0851 -0.5886  0.0641
27236W        W42367   7.414  15.614  12.604  0.1077 -0.5363  0.0997
27237W        W42368  11.642  10.417   0.915  0.3535  0.1623  0.3156
27238W        W42369   7.627   0.151   1.417 -0.3414 -0.1825  0.0474
27239W        W42370  18.280  14.281  11.185  0.1340  0.0147  0.0619
27240W        W42371   3.877  11.864   0.622  0.0822 -0.5632 -0.0918
27241W        W42372   8.043  14.137   1.596  0.0884 -0.0951 -0.1034
27242W        W42373   8.761  14.353   3.394 -0.0947 -0.1331  0.1873
27243W        W42374   2.874  15.270  11.429 -0.1472 -0.1768 -0.0786
27244W        W42375  13.645   8.333   3.370  0.0522  0.1935 -0.0920
27245W        W42376   0.928   7.486  12.625  0.0905  0.0519  0.0436
27246W        W42377   2.055   8.378   4.905 -0.1582  0.2896  0.3799
27247W        W42378   5.657  17.119  14.671  0.3411  0.3539 -0.0127
27248W        W42379   3.727   7.607   5.461  0.1778  0.0495 -0.0881
27249W        W42380   0.010   7.080   1.665 -0.1060 -0.1000  0.2313
27250W        W42381   3.802  13.279   0.602  0.1100  0.2042  0.1407
27251W        W42382  14.679  10.670   1.457 -0.0111  0.0350 -0.2884
27252W        W42383  10.270   1.732  15.161 -0.0008  0.1744  0.1365
27253W        W42384  12.034  14.863   3.098 -0.0735  0.0460 -0.0171
27254W        W42385   5.232   5.778  14.708  0.0186  0.1363 -0.2777
27255W        W42386  17.440   2.665  10.852 -0.1787  0.0337  0.0315
27256W        W42387   1.034   0.854   0.822 -0.1094 -0.4041 -0.0748
27257W        W42388  13.062   3.789   9.907  0.0683  0.0461 -0.2033
27258W        W42389  17.734  10.154   3.588  0.1940  0.2157 -0.1640
27259W        W42390   1.732   6.224   4.669  0.3524  0.1148 -0.0455
27260W        W42391  13.182  15.721  10.450 -0.0479  0.0883  0.2986
27261W        W42392   1.626   3.067  12.664  0.1387 -0.0756  0.3008
27262W        W42393  15.904   5.472   4.865 -0.1599  0.2553 -0.1092
27263W        W42394  17.819  14.067   1.451  0.2363 -0.3208  0.0110
27264W        W42395   7.169  14.232  13.119  0.1412  0.1696 -0.0357
27265W        W42396  13.599   1.871   1.761  0.0813 -0.0635 -0.1471
27266W        W42397  15.467  14.588  14.105  0.1038 -0.4023  0.0829
27267W        W42398  14.430   5.199  15.352  0.1836  0.2359  0.0644
27268W        W42399   7.163   7.754  10.460  0.2078  0.2864 -0.0296
27269W        W42400   2.709  16.796  15.731 -0.2388  0.1068  0.0027
27270W        W42401  13.109   7.821   4.923  0.2274  0.2054 -0.0169
27271W        W42402  15.600  10.431   5.241 -0.0098 -0.1155  0.0315
27272W        W42403   3.480  10.109   5.073  0.2204  0.1917  0.4018
27273W        W42404   5.809   4.090   1.948  0.1630  0.2359  0.2990
27274W        W42405  15.646   4.052  12.587  0.3356  0.2257 -0.0405
27275W        W42406  16.968  16.341  12.176  0.1140  0.0977 -0.2747
27276W        W42407  12.640  11.919   0.036 -0.1938 -0.1837  0.1857
27277W        W42408   3.119   2.397   4.832 -0.0604 -0.1346 -0.1939
27278W        W42409   2.553   7.874   1.851  0.0917  0.3013 -0.2174
27279W        W42410   2.858   0.627  11.279 -0.3472 -0.0544 -0.2341
27280W        W42411  17.440   6.680   0.633  0.0837 -0.0983  0.1158
27281W        W42412  14.222  14.319  13.555  0.1207 -0.0729  0.3811
27282W        W42413  17.899  16.414   5.317  0.1048  0.0021 -0.2156
27283W        W42414  13.926  17.723  10.639 -0.1748  0.2257  0.4161
27284W        W42415   0.114  13.709   0.314 -0.2062 -0.1216  0.2491
27285W        W42416   8.024   6.413  11.616 -0.2571  0.1839  0.1485
27286W        W42417   3.978   4.401   3.093  0.0130 -0.0139  0.1524
27287W        W42418  16.036   3.768   1.438 -0.2353  0.0923  0.3280
27288W        W42419  15.602  13.314   3.729 -0.0451  0.3887 -0.1032
27289W        W42420   0.845  11.500  15.717 -0.0244 -0.0149 -0.1473
27290W        W42421  16.812  18.372   2.501 -0.1402 -0.0380  0.0024
27291W        W42422  17.652  14.081  11.791 -0.2031  0.2459 -0.1084
27292W        W42423  10.560  18.401  11.630 -0.0569  0.1037 -0.2211
27293W        W42424   2.606  18.058  12.244  0.0972 -0.2474 -0.2117
27294W        W42425   8.576   1.465  12.631  0.0682  0.0660 -0.4025
27295W        W42426  11.008   8.793  14.186  0.2021  0.2349  0.1185
27296W        W42427   0.382   6.753  14.420  0.1452 -0.1096  0.0412
27297W        W42428   1.259   3.493   1.670  0.2721 -0.1821  0.1461
27298W        W42429  18.207  17.572  12.017  0.0799 -0.0439 -0.1120
27299W        W42430  12.548  11.210  14.789 -0.2458 -0.0459 -0.2574
27300W        W42431  13.126  16.612   2.188 -0.1457  0.0560  0.0354
27301W        W42432  10.146  16.274  13.552  0.2666 -0.0896 -0.0302
27302W        W42433  16.787   0.047  13.995  0.1400  0.2745 -0.3423
27303W        W42434  18.044   1.415  12.119 -0.2037 -0.3545 -0.1268
27304W        W42435  17.567  14.205  15.043  0.0374 -0.5956 -0.2712
27305W        W42436  15.866   7.243   3.588  0.1240  0.0546  0.1377
27306W        W42437   1.831   4.652   4.366  0.3123 -0.0043  0.3383
27307W        W42438  17.225  10.236   3.763  0.1451 -0.1509  0.0594
27308W        W42439  18.525  10.967  11.665 -0.1227  0.2462  0.0512
27309W        W42440   0.967   8.566  12.746 -0.1315 -0.0567  0.1300
27310W        W42441  13.152   7.035   3.609 -0.1732  0.2483 -0.0483
27311W        W42442   8.975   5.732   2.641 -0.1371 -0.0453 -0.0629
27312W        W42443   5.804   7.306   4.443 -0.3577  0.1102  0.2950
27313W        W42444   1.880  18.442   0.909 -0.0853  0.0359 -0.1922
27314W        W42445  10.533   5.237   4.086 -0.3579 -0.1892 -0.1611
27315W        W42446  11.387   7.486  15.323 -0.2136  0.0359 -0.1052
27316W        W42447   6.839   7.830  13.734 -0.3059 -0.1087 -0.0105
27317W        W42448   1.321   8.251  10.904 -0.0766  0.1337 -0.1767
27318W        W42449   7.353   3.668   4.884  0.0722  0.1750 -0.1655
27319W        W42450  14.475   6.245   2.323  0.0057  0.1486 -0.1270
27320W        W42451  16.841  14.526  14.294  0.0100 -0.3513 -0.1190
27321W        W42452  12.760   8.721   1.419 -0.0779 -0.0848  0.1009
27322W        W42453   0.328   7.879  14.224  0.2599  0.1459 -0.1064
27323W        W42454  10.582  17.380  11.152 -0.0434 -0.0843 -0.1093
27324W        W42455   6.646  10.655   3.831  0.0723 -0.0028  0.0809
27325W        W42456   9.965   3.865   3.588  0.1834 -0.1513 -0.0955
27326W        W42457   5.079   6.301  13.318 -0.1460 -0.1993 -0.0125
27327W        W42458  13.184   2.577   3.784 -0.0557  0.2019  0.0548
27328W        W42459   7.711   1.098   0.558  0.0408  0.0856  0.1351
27329W        W42460  13.197   1.746   1.383  0.2539  0.2433 -0.3311
27330W        W42461   6.697   9.893   3.875 -0.0462  0.4506 -0.1006
27331W        W42462  12.766   1.290  10.770 -0.1651  0.1288  0.2183
27332W        W42463   6.975   9.485  11.293  0.1758  0.0291  0.0746
27333W        W42464  12.140   7.819  13.917  0.2879 -0.0499 -0.3218
27334W        W42465   8.078   5.386  13.071 -0.3085  0.3185  0.3740
27335W        W42466  13.739   1.279  11.312 -0.0505 -0.0900 -0.1835
27336W        W42467  17.566   9.850   0.682 -0.0936 -0.0258 -0.0100
27337W        W42468   7.050   1.194   3.703  0.5076  0.0182  0.0048
27338W        W42469  15.645  14.087   5.163  0.1566 -0.3510 -0.1725
27339W        W42470  14.955  15.452   1.513  0.1673  0.2457 -0.0499
27340W        W42471   0.279  17.629  14.760 -0.1065  0.0476 -0.1319
27341W        W42472   2.690   9.858  12.364  0.2463  0.0102 -0.1462
27342W        W42473  14.609  14.690  13.650  0.6603 -0.1665 -0.2552
27343W        W42474   9.810   3.189  15.582 -0.3440  0.0278  0.2837
27344W        W42475   9.663  12.299  12.329 -0.2518 -0.2454  0.3785
27345W        W42476   1.405   8.051   5.620 -0.0525 -0.2276 -0.2451
27346W        W42477  12.962   5.148   2.952 -0.0242  0.0210 -0.1252
27347W        W42478  13.258   7.397  10.937  0.3954 -0.0821  0.2790
27348W        W42479   5.160   5.494  12.499 -0.1580  0.1202 -0.1405
27349W        W42480  18.210  16.979  12.112  0.5759  0.1489  0.0172
27350W        W42481   8.776  16.265  12.775  0.0911 -0.0465 -0.0731
27351W        W42482   7.016  10.539  13.435 -0.1869 -0.0713  0.2463
27352W        W42483   2.181   7.293  10.598 -0.1662 -0.2321  0.1744
27353W        W42484   3.093   8.372   0.622  0.1625 -0.0616 -0.0893
27354W        W42485  18.214   3.697  13.566  0.1338 -0.1453 -0.1726
27355W        W42486   2.511  13.766  12.388  0.0493 -0.4659 -0.3680
27356W        W42487   2.633  18.392  13.054  0.2103  0.0697 -0.0664
27357W        W42488   5.716   9.253   2.370  0.2405 -0.3284  0.0614
27358W        W42489   2.236  16.836  15.610 -0.1891 -0.2556 -0.0344
27359W        W42490  15.766   4.472   3.295 -0.0143  0.0744  0.5270
27360W        W42491  15.575   4.940   1.495  0.0817 -0.4004  0.1437
27361W        W42492   4.221  12.414  12.035 -0.3674  0.2428 -0.2612
27362W        W42493   4.596   5.212  12.107  0.1358  0.2170 -0.0421
27363W        W42494   0.992   6.797  15.181 -0.0551  0.3289 -0.2385
27364W        W42495   9.174   1.278  11.814 -0.2041 -0.2486  0.0108
27365W        W42496  11.383   8.107   1.275  0.1681 -0.0756 -0.0677
27366W        W42497   2.456  14.807  12.620 -0.0974  0.2768 -0.2933
27367W        W42498   7.746   1.683  15.260 -0.1687 -0.2677 -0.2817
27368W        W42499   8.120   1.417  11.591  0.1994  0.0024  0.0455
27369W        W42500   6.263  16.818   1.144 -0.2090  0.0828 -0.2258
27370W        W42501   7.071   2.071  13.871  0.2025  0.1720 -0.2534
27371W        W42502   0.319  15.810  12.216 -0.0971 -0.3012  0.0985
27372W        W42503  11.432   3.157  12.200 -0.1516  0.0756 -0.0120
27373W        W42504  10.878   6.585  12.555 -0.0225 -0.0576  0.1252
27374W        W42505   6.463   2.514   3.734 -0.0372 -0.1363 -0.4880
27375W        W42506  13.041  11.692  15.767  0.1968  0.2600 -0.0229
27376W        W42507  10.110  17.784  11.142  0.0649  0.0726 -0.2008
27377W        W42508   8.024   4.463  12.160  0.4853  0.2620 -0.1694
27378W        W42509   4.570   6.736  15.598  0.1553  0.3497  0.1241
27379W        W42510   7.976   3.029  12.128  0.0829  0.1091  0.2319
27380W        W42511   8.686  13.583   5.457  0.4506  0.0281 -0.2870
27381W        W42512   1.182   5.266   4.670 -0.1332  0.0340 -0.0660
27382W        W42513  13.587   1.372   5.747  0.2617 -0.1326 -0.2418
27383W        W42514   2.222  15.839   5.131  0.1678 -0.0457 -0.1513
27384W        W42515   7.066  13.740   5.292 -0.1669  0.0488  0.4089
27385W        W42516   4.704   6.003  13.190  0.0716 -0.0724 -0.2960
27386W        W42517  10.971   0.870   5.442  0.0001  0.0886 -0.0529
27387W        W42518   3.198   7.930   0.077 -0.1791 -0.3262  0.3007
27388W        W42519   0.539   2.417  11.392 -0.3703 -0.0021  0.2577
27389W        W42520   2.147   8.304   1.925 -0.2901 -0.3935 -0.2058
27390W        W42521  13.195  16.452   3.037  0.0948  0.1839 -0.0336
27391W        W42522  10.199  15.215   9.876 -0.0627  0.0193 -0.3373
27392W        W42523   8.337  15.573   1.993 -0.0142 -0.0426  0.0143
27393W        W42524  16.136   3.215   0.395 -0.1974  0.3653  0.0497
27394W        W42525  10.241  14.412  12.798 -0.0016 -0.0455  0.0199
27395W        W42526  16.484  16.413   3.564  0.1542  0.1912  0.0263
27396W        W42527  17.481  15.441   1.090 -0.1588 -0.1535  0.2349
27397W        W42528   0.990  15.758   5.335 -0.3171 -0.0084 -0.1486
27398W        W42529  11.689  17.945  10.636 -0.0370  0.1510 -0.3932
27399W        W42530  18.213  11.847   3.356 -0.2762 -0.0395 -0.2768
27400W        W42531  11.867  15.150  10.922  0.0393 -0.0937 -0.0851
27401W        W42532   9.109  13.112  10.547 -0.2317  0.0814 -0.0137
27402W        W42533  17.190  10.720   1.130  0.0455  0.0328 -0.1159
27403W        W42534  14.092  14.010   3.951 -0.0335  0.1289  0.3581
27404W        W42535   3.810   9.816   2.598  0.1204  0.0244 -0.0757
27405W        W42536  14.253   3.425  11.484  0.0456  0.1186  0.0956
27406W        W42537  11.396  11.770   4.637  0.0030  0.1989 -0.1967
27407W        W42538   2.772   3.306  12.074  0.0634 -0.1425  0.0062
27408W        W42539  18.002  16.372  10.661  0.2329 -0.5117 -0.3048
27409W        W42540  15.500  18.205   3.764  0.0037 -0.0430  0.2754
27410W        W42541   6.439   6.938   1.285 -0.1214 -0.0286  0.1043
27411W        W42542   6.250   1.036  15.266 -0.3612 -0.0174 -0.1590
27412W        W42543   6.880   0.240  13.164  0.1412  0.4173  0.0305
27413W        W42544   1.756   0.889  12.916  0.1535 -0.2857 -0.3655
27414W        W42545   7.413  17.643  12.183  0.2263  0.0736 -0.2576
27415W        W42546  13.296  13.849  13.643  0.0661 -0.1249  0.2615
27416W        W42547   3.246  10.652   4.366  0.1224 -0.0952  0.2896
27417W        W42548   4.446  12.533  15.645 -0.2317 -0.0420  0.1018
27418W        W42549   0.541   1.614   1.220 -0.0442  0.0087 -0.0073
27419W        W42550  10.355   0.326   9.770 -0.1287  0.0837 -0.1831
27420W        W42551  15.284   8.725  12.408 -0.0159  0.4566 -0.0091
27421W        W42552  10.718   5.209  13.939  0.2539 -0.0722 -0.2928
27422W        W42553   1.071   6.349   0.227  0.2001 -0.0749  0.2216
27423W        W42554  14.106  14.743   2.716  0.1510 -0.2578  0.0844
27424W        W42555  18.022   2.814  13.824 -0.1003 -0.2556 -0.2065
27425W        W42556   8.769  16.073   1.425  0.3883  0.1287  0.0882
27426W        W42557   1.479  18.246  14.407  0.1451  0.1796 -0.1271
27427W        W42558  14.775  17.019  11.532 -0.0400  0.0115 -0.1721
27428W        W42559   7.335  18.424  11.519 -0.0243  0.0953 -0.1324
27429W        W42560   4.053  17.018   3.286  0.1684  0.0526 -0.0218
27430W        W42561   1.949  13.624   2.687  0.0814  0.2616  0.0674
27431W        W42562   6.313   3.672   1.465 -0.3489 -0.1351 -0.1054
27432W        W42563   4.084   6.045   0.895 -0.3845  0.2824  0.1258
27433W        W42564   9.713  16.616   0.994  0.1828  0.0747 -0.1735
27434W        W42565   8.669  13.966   3.009  0.0780 -0.1370 -0.2839
27435W        W42566  18.471  14.366  15.202 -0.2067  0.3031  0.1614
27436W        W42567  16.932   8.274  10.997  0.2726  0.2542 -0.1836
27437W        W42568  16.384  17.424  12.564 -0.1056 -0.0978 -0.1760
27438W        W42569  10.822   6.975   3.380 -0.0285  0.3400 -0.0262
27439W        W42570  17.469  14.387   1.574  0.0659  0.0328  0.1259
27440W        W42571   3.342   9.771   0.639  0.2044 -0.0402 -0.2642
27441W        W42572   7.852   3.923   4.999 -0.0369  0.0888 -0.0051
27442W        W42573   6.952   0.079   2.643  0.0644 -0.1818 -0.1857
27443W        W42574   1.618  12.467   4.617  0.0192 -0.0924 -0.1332
27444W        W42575   0.820   6.397   1.991 -0.1509  0.0278 -0.1684
27445W        W42576  15.742   1.204   3.571 -0.0813  0.1356  0.0271
27446W        W42577  15.022   0.260   1.514 -0.1783  0.0800 -0.3658
27447W        W42578   5.101  16.069   2.800  0.0411 -0.1360  0.2112
27448W        W42579  17.709  10.915   9.907  0.2051  0.5068  0.3237
27449W        W42580  10.506  12.835  13.152 -0.1389 -0.1371 -0.3026
27450W        W42581   4.256  13.198   0.334  0.0015 -0.2910 -0.0772
27451W        W42582   4.850   1.426   2.075 -0.0101 -0.1082  0.1680
27452W        W42583   5.811   6.246   0.697  0.3515 -0.1170  0.1596
27453W        W42584  12.125  16.803   4.071  0.0402  0.1559  0.1324
27454W        W42585   3.322   1.966  10.578 -0.3990 -0.3162 -0.3338
27455W        W42586   7.104  15.130  12.556 -0.0632  0.1759 -0.1691
27456W        W42587   5.506   6.276   3.048  0.0116 -0.1450  0.1630
27457W        W42588  13.405   2.142   3.641  0.1914 -0.0709 -0.2310
27458W        W42589   3.092  15.215  14.947 -0.2552 -0.0183  0.1603
27459W        W42590  18.001   1.496   2.159  0.2281 -0.2598  0.0309
27460W        W42591  15.152  14.762   5.911 -0.1589  0.2384  0.2230
27461W        W42592  12.763  13.124  14.353  0.3335 -0.1451  0.2819
27462W        W42593   4.842  11.748  14.146 -0.1773 -0.0254  0.4288
27463W        W42594  13.660  13.481   5.786 -0.2944  0.1608 -0.1005
27464W        W42595  14.079  14.618   4.842  0.2927  0.0206  0.0436
27465W        W42596  15.844   5.703   1.081 -0.0684 -0.1036 -0.1240
27466W        W42597   0.449   4.280   0.298 -0.2091  0.2176 -0.2141
27467W        W42598   7.653   2.588  15.824 -0.0992  0.2352 -0.2052
27468W        W42599   4.269   3.596  15.592  0.2941 -0.0429 -0.0658
27469W        W42600  13.812   6.649  11.240 -0.1980  0.5583  0.0660
27470W        W42601   8.527   0.080   2.508 -0.2391  0.1158  0.0824
27471W        W42602  10.941   5.776   1.368  0.0793 -0.2444  0.0742
27472W        W42603  13.758  16.280   3.783 -0.0741 -0.0226  0.1002
27473W        W42604   5.927  12.831  12.150  0.2042  0.4813  0.2492
27474W        W42605   6.265   6.540  11.970 -0.0822  0.4293 -0.0972
27475W        W42606   7.050  18.381  11.889  0.3685 -0.0001 -0.1246
27476W        W42607  13.948   8.693  13.177  0.0903 -0.0373  0.2183
27477W        W42608  15.156  10.655   0.628  0.3440 -0.0475  0.0310
27478W        W42609  17.306   0.453  12.601  0.0551  0.0951  0.0116
27479W        W42610   4.881  11.934   1.813 -0.1060  0.0821 -0.1687
27480W        W42611   1.424  16.095   3.820  0.0078 -0.1692 -0.2995
27481W        W42612   4.882   4.843   3.715 -0.3515 -0.1251  0.2396
27482W        W42613   0.993  11.553   5.596  0.2204  0.0467 -0.1880
27483W        W42614  12.470   2.550  13.434 -0.3509  0.0525  0.1350
27484W        W42615   9.952  18.384   3.359 -0.0487 -0.0805 -0.1525
27485W        W42616   0.729   8.976  14.888 -0.1792 -0.0553 -0.0376
27486W        W42617   1.176   0.834   0.240 -0.0933 -0.3460  0.2360
27487W        W42618   4.998  10.397   3.106  0.0872 -0.1008 -0.3041
27488W        W42619  13.002   2.342  12.904  0.2320 -0.0588  0.2345
27489W        W42620   8.930   7.588  15.003 -0.0655  0.3049  0.3398
27490W        W42621   2.275   6.801  11.369 -0.0440  0.2923  0.0543
27491W        W42622   5.292  13.818   4.621  0.0710 -0.1438 -0.1799
27492W        W42623   2.671  14.297   2.255  0.0278  0.0818 -0.1992
27493W        W42624   8.494   6.878  15.738 -0.0577  0.4321  0.1844
27494W        W42625   3.185   1.120   3.471 -0.0094 -0.1889 -0.0464
27495W        W42626  11.686  11.702  10.857 -0.1878 -0.1944 -0.4422
27496W        W42627  14.779   7.149  12.149  0.1949  0.0255  0.1904
27497W        W42628  16.807  11.542   2.977 -0.0045 -0.2645 -0.2522
27498W        W42629  11.001  10.216   2.655  0.2601 -0.3595  0.1821
27499W        W42630  12.228   2.440  10.523  0.3436 -0.2675 -0.3369
27500W        W42631   6.368   0.775  10.697  0.1381 -0.1626 -0.1680
27501W        W42632  12.417  12.592  12.573  0.1582 -0.0622 -0.0759
27502W        W42633   3.175   1.873  13.954  0.0780  0.0675 -0.3133
27503W        W42634  12.855   1.173   0.586 -0.0115 -0.2718 -0.0439
27504W        W42635  17.997   8.590  11.858  0.0575  0.1250  0.0897
27505W        W42636   4.415   6.575   5.144 -0.0002 -0.1266 -0.2670
27506W        W42637  10.306  10.491  15.129 -0.0253 -0.2125 -0.0758
27507W        W42638   2.365  14.901  11.295 -0.0389  0.1357  0.0418
27508W        W42639  18.118   9.210   3.088  0.0810 -0.0246  0.6152
27509W        W42640   9.743   3.260  11.407 -0.1234 -0.0992  0.3908
27510W        W42641  16.734  17.774   6.523  0.1420  0.3104  0.2372
27511W        W42642  13.475  14.345  12.261  0.5827 -0.0828  0.1642
27512W        W42643   9.698   0.638   3.146 -0.1448 -0.2304 -0.0045
27513W        W42644  10.170   9.147  13.795  0.1446  0.0219 -0.1877
27514W        W42645  17.758   9.209   4.988  0.4805 -0.2440 -0.0392
27515W        W42646  14.948   8.432  14.858  0.1624  0.1376  0.3247
27516W        W42647  16.877  12.096  14.491 -0.5152  0.1128 -0.2146
27517W        W42648  11.426  12.564  10.743 -0.1780  0.2130 -0.0808
27518W        W42649  13.070  15.673  12.135  0.3137  0.1620 -0.0084
27519W        W42650  13.274  15.807  13.069 -0.2314 -0.1223 -0.1165
27520W        W42651   0.412   0.456   5.687  0.1967 -0.0835 -0.0811
27521W        W42652  16.840  14.731   3.044  0.2849  0.0615 -0.2759
27522W        W42653   6.091   3.125   2.585  0.0411 -0.0002  0.2643
27523W        W42654  17.646  14.610  13.952 -0.1698  0.0115  0.3278
27524W        W42655  14.244   1.926   2.621  0.2471 -0.3530 -0.0652
27525W        W42656   1.860   2.338   0.594  0.3239  0.1292  0.0295
27526W        W42657   5.294  15.582  13.077 -0.0541  0.1835 -0.0906
27527W        W42658  12.621   3.713   4.851  0.1694  0.1474  0.2802
27528W        W42659   6.689   7.581   2.155 -0.0638 -0.0704  0.0457
27529W        W42660   4.347  15.320  10.690 -0.0979 -0.1426 -0.0806
27530W        W42661  17.578   7.224   2.920  0.1876 -0.2862 -0.0632
27531W        W42662   5.632   1.224  13.232 -0.1208 -0.2852  0.0889
27532W        W42663   5.178   7.326  13.443  0.0137  0.0798  0.1309
27533W        W42664  17.554  11.314   5.390  0.2859  0.0970  0.0033
27534W        W42665  16.196   9.500   0.378 -0.0504 -0.1342  0.1715
27535W        W42666  14.243   4.151  15.883  0.0514 -0.2189 -0.2096
27536W        W42667  18.162  12.515  11.723  0.5450  0.2116 -0.0600
27537W        W42668  18.312   1.972   3.392  0.1196  0.1492  0.1214
27538W        W42669   8.559   6.061  11.386  0.0293  0.3211 -0.1825
27539W        W42670  11.131   3.782  10.461 -0.0401 -0.1120  0.1304
27540W        W42671   0.498  10.862   1.163 -0.1760  0.2656 -0.0245
27541W        W42672  15.745   0.138  11.406  0.0316  0.2050  0.0100
27542W        W42673   9.599   8.114   2.641  0.1929 -0.0833  0.0493
27543W        W42674   5.218  13.578  15.558  0.3443  0.0435 -0.3220
27544W        W42675   8.859   0.422   5.018  0.1800 -0.2013 -0.1348
27545W        W42676  14.836   1.883   1.809  0.0594 -0.1305 -0.0004
27546W        W42677   7.581  17.001  14.072 -0.0885  0.0234  0.2223
27547W        W42678  10.962   0.118  13.505 -0.0073 -0.3106 -0.1920
27548W        W42679  14.702   3.461   1.200  0.1119  0.2848  0.1265
27549W        W42680   4.633  16.565   0.309  0.0821 -0.4444  0.0033
27550W        W42681   6.387  13.536   4.605  0.0679  0.0832  0.1802
27551W        W42682   1.538  11.466   5.718  0.2402  0.2534 -0.0216
27552W        W42683  12.295   1.285  13.873  0.0390 -0.0470  0.1687
27553W        W42684  14.856  12.442  10.191 -0.1270  0.1285  0.0905
27554W        W42685   0.836   2.378   2.718  0.1897 -0.0581  0.2008
27555W        W42686   2.710  14.578  12.132  0.2900 -0.0168 -0.2334
27556W        W42687   8.820   9.626  12.640  0.2247  0.0625  0.1773
27557W        W42688   3.043   3.943   0.482  0.2151  0.1332  0.1962
27558W        W42689  16.995  10.488  12.394 -0.1941 -0.1686 -0.1205
27559W        W42690  10.420  15.852   1.653 -0.1367 -0.0549  0.1101
27560W        W42691   8.244   9.846   5.124  0.2196 -0.1946 -0.1017
27561W        W42692  14.957  14.965   4.567  0.0509  0.1401 -0.0056
27562W        W42693  18.441  10.137   1.625  0.1970 -0.2402  0.0847
27563W        W42694   7.635   1.317  11.253  0.0772  0.0357 -0.2272
27564W        W42695   2.346  16.849   1.117  0.1445 -0.0710 -0.1455
27565W        W42696   3.737   7.158  12.613 -0.2363  0.1290  0.2169
27566W        W42697   8.231  12.512  10.426  0.2938 -0.0200  0.2496
27567W        W42698   6.920   9.428   0.795  0.0155 -0.1207  0.1076
27568W        W42699   2.449  17.418   0.461 -0.1727  0.1256  0.1432
27569W        W42700  14.304  13.791  14.395  0.2411  0.0278 -0.0547
27570W        W42701  15.976  12.521  13.269 -0.0914 -0.0165 -0.2197
27571W        W42702   9.695  12.014  13.652  0.0296 -0.2707 -0.2080
27572W        W42703  14.268  11.696   4.772 -0.1737  0.4448  0.0620
27573W        W42704  10.986   1.610  13.535 -0.2487 -0.4240  0.0290
27574W        W42705   1.509  13.591  11.202  0.0208  0.1296 -0.0341
27575W        W42706   7.723   8.303  13.964  0.3293  0.0541  0.1612
27576W        W42707  10.883   2.691  15.002 -0.0178 -0.2004 -0.0648
27577W        W42708   2.086   8.582   4.104  0.1247  0.0025  0.2542
27578W        W42709   9.783   4.606   2.008  0.2978  0.1227  0.0295
27579W        W42710   9.936   8.372  11.047  0.3227  0.1388 -0.0978
27580W        W42711   7.398   3.891  11.400 -0.0629  0.2653  0.1207
27581W        W42712   5.432   8.017   0.225  0.0359  0.1956 -0.0834
27582W        W42713   3.364   1.956   5.285 -0.0787  0.1596  0.1959
27583W        W42714   6.388   1.410   1.250 -0.1527 -0.0677  0.1455
27584W        W42715  10.252   3.193  13.538  0.5629 -0.0331 -0.1155
27585W        W42716  16.545  17.669  13.906  0.0968 -0.1128 -0.2096
27586W        W42717  16.321   5.034  12.363  0.0214 -0.1012 -0.0305
27587W        W42718   3.991  16.560   2.630  0.0680  0.3498 -0.0158
27588W        W42719   4.602  11.997  12.648  0.1390 -0.0059  0.2283
27589W        W42720   5.469  18.271   4.115  0.1868 -0.1716 -0.2533
27590W        W42721  15.956  10.316   2.717 -0.3079 -0.0003 -0.1084
27591W        W42722   3.415  14.041   4.709 -0.0965 -0.2265  0.3172
27592W        W42723   1.243  15.656  12.064  0.0321  0.1580 -0.1303
27593W        W42724  17.175  13.475   3.637  0.0206  0.3465  0.1682
27594W        W42725  12.640  13.773  14.584 -0.0861 -0.1723  0.2495
27595W        W42726   9.210  13.302   4.132  0.0073  0.0380  0.1398
27596W        W42727  13.778   4.278  11.569  0.1287 -0.1211 -0.1038
27597W        W42728   3.833   1.745   3.598 -0.2584  0.0958  0.0544
27598W        W42729   0.349   8.548   4.780  0.1528  0.3403 -0.0659
27599W        W42730  14.959  15.465  15.229  0.0987 -0.3288  0.0949
27600W        W42731  13.797   2.917   1.301 -0.0048 -0.1163  0.1544
27601W        W42732   8.643  11.785   2.603 -0.2519 -0.0998 -0.0101
27602W        W42733  10.488  14.762  13.631  0.0311  0.2142 -0.3581
27603W        W42734   3.457  13.771  14.242  0.0790  0.4048 -0.0447
27604W        W42735  12.084   1.167   3.282 -0.2984 -0.0330 -0.3572
27605W        W42736   0.580   8.303   5.861  0.3880 -0.1740 -0.0057
27606W        W42737  13.959  10.866   4.523 -0.3819  0.3127  0.0639
27607W        W42738  16.650   8.262   5.169 -0.0535 -0.1984 -0.0303
27608W        W42739   2.994  13.153   5.814  0.1603  0.3110 -0.3235
27609W        W42740  15.561   3.402  14.582  0.1915 -0.2441 -0.3191
27610W        W42741  18.278  12.259  15.019  0.0687 -0.0029 -0.0864
27611W        W42742  17.135  11.096  13.734 -0.1243 -0.0508  0.2215
27612W        W42743   2.122   1.518   1.584 -0.0251 -0.0937  0.2108
27613W        W42744  10.824   6.486   0.877  0.0261 -0.3434  0.3623
27614W        W42745   1.704   4.216   4.151  0.0572 -0.1781  0.2667
27615W        W42746  12.047   3.101   4.289 -0.0006  0.2342 -0.1088
27616W        W42747   4.745  10.310   4.165  0.0457  0.6522  0.1449
27617W        W42748   3.413   5.285  11.252  0.2541  0.4391  0.2191
27618W        W42749   1.826  17.014   2.972  0.1629  0.0460 -0.1945
27619W        W42750  11.809   2.499  12.857 -0.0425 -0.1249  0.0616
27620W        W42751   6.668   7.147   4.983  0.1643 -0.0325 -0.0045
27621W        W42752   3.254   9.044   1.475  0.0121  0.3375 -0.0959
27622W        W42753   2.395  12.530  12.693 -0.0420  0.2788  0.2214
27623W        W42754  17.889   1.797   3.157 -0.1055 -0.0201 -0.0039
27624W        W42755  16.714   8.621  11.397 -0.2765 -0.3603 -0.1324
27625W        W42756  10.222  10.372  10.276 -0.1074  0.0994 -0.0678
27626W        W42757   4.213   7.646   2.731 -0.2138  0.1351  0.4438
27627W        W42758   3.223   5.480   4.394  0.0799 -0.1693 -0.0653
27628W        W42759   2.885  15.016   1.611  0.3490  0.1101  0.0250
27629W        W42760  17.838  18.095  12.441  0.0016  0.0906  0.0060
27630W        W42761  10.617  17.272  12.327  0.0997  0.0710 -0.1787
27631W        W42762   4.433   5.481   4.595 -0.3164  0.2738  0.1736
27632W        W42763  14.493   2.935   4.516 -0.1874 -0.2136  0.0115
27633W        W42764   6.346   8.847   0.718 -0.1675  0.1167  0.0570
27634W        W42765  17.372   2.463   1.025 -0.0736  0.0661  0.1511
27635W        W42766   1.724  11.313   5.244  0.1655 -0.1576  0.1321
27636W        W42767  13.364   4.879   2.762  0.2883 -0.1916  0.3493
27637W        W42768  16.290   8.385  12.411 -0.3806 -0.0755  0.0171
27638W        W42769   0.274  17.015   5.647  0.1059 -0.0948  0.0079
27639W        W42770  13.089  13.416  13.643  0.2121 -0.2952 -0.0062
27640W        W42771  12.006   9.584   3.553  0.0519  0.0363 -0.0205
27641W        W42772  11.622   6.687   3.167 -0.1443 -0.0115  0.3852
27642W        W42773   0.910  15.553   5.854  0.2707 -0.0245 -0.0726
27643W        W42774  11.642   3.823  15.664 -0.1414  0.2559  0.0684
27644W        W42775   3.309   5.882   1.458 -0.1611 -0.0754 -0.0331
27645W        W42776   5.637   9.248   1.872  0.1091  0.1103 -0.2651
27646W        W42777  12.731  13.308  10.943  0.2526  0.1982  0.0007
27647W        W42778   0.746   2.009  11.036 -0.0167 -0.1692  0.0539
27648W        W42779   6.704   5.847  12.679  0.0745  0.0457 -0.1597
27649W        W42780  13.633  15.513  11.505  0.5376  0.1590 -0.4838
27650W        W42781   1.098  12.901  10.793  0.2677  0.1957 -0.1756
27651W        W42782   7.684   1.138  15.883  0.1046  0.1533  0.3335
27652W        W42783   4.713   9.702  11.321  0.0638 -0.1857 -0.3574
27653W        W42784   6.809  10.519   2.940  0.0612 -0.0873 -0.0125
27654W        W42785   5.806  18.128  11.658 -0.0008  0.0693  0.3281
27655W        W42786  12.372  18.468   1.680  0.0034  0.0906  0.1994
27656W        W42787  16.424  14.658   3.722  0.1108 -0.0546  0.0651
27657W        W42788  13.720   9.796   4.241 -0.0662  0.4576  0.1180
27658W        W42789  10.587  13.145  11.834  0.6546 -0.2540 -0.0706
27659W        W42790  15.241  17.477   1.535  0.0402  0.3706  0.0842
27660W        W42791   3.119  17.038  13.702 -0.0128  0.2919 -0.0700
27661W        W42792  16.625   2.494   1.281 -0.0676 -0.2084 -0.0632
27662W        W42793  18.050   1.976  13.528 -0.1479  0.0582 -0.2084
27663W        W42794   3.471   2.124  15.155  0.3575  0.0948  0.1971
27664W        W42795   4.789   1.870   1.717  0.2308 -0.1481 -0.4226
27665W        W42796   5.381   3.908   3.340  0.1071  0.1472  0.2896
27666W        W42797   5.727  13.572  15.780 -0.1792 -0.0083  0.0390
27667W        W42798   1.883  13.519   5.412  0.2355 -0.5336  0.0164
27668W        W42799  11.245  15.979  13.672  0.0360  0.0052 -0.2011
27669W        W42800   9.064  11.847  11.160  0.0083 -0.1666  0.1994
27670W        W42801   4.186  13.881  11.776 -0.0400 -0.0117  0.1116
27671W        W42802   4.795  10.050  14.326  0.6030 -0.2106 -0.3044
27672W        W42803   0.341   1.368  13.629  0.3544  0.0856 -0.0004
27673W        W42804   9.978  11.215   3.850  0.0609 -0.0713 -0.1048
27674W        W42805  12.128   9.746   2.471 -0.1834  0.1409  0.4821
27675W        W42806   1.855  15.798  15.653 -0.2252  0.1642  0.1937
27676W        W42807   2.281   6.939   1.372 -0.0973  0.2931 -0.0948
27677W        W42808   5.522  10.020   6.258  0.0186 -0.2544  0.2617
27678W        W42809  11.178   5.510  12.222 -0.2633  0.2882 -0.1407
27679W        W42810  17.024   8.867   3.544 -0.3455  0.0134 -0.0654
27680W        W42811  13.762  17.742  14.590 -0.3169  0.0350  0.0329
27681W        W42812   7.542  14.080  14.136  0.2122 -0.1163  0.0939
27682W        W42813   9.791  17.642  13.351  0.1572 -0.1132  0.3092
27683W        W42814   1.962   8.754  14.346 -0.0007 -0.5630 -0.2289
27684W        W42815   8.855  13.521  11.794  0.1708 -0.2824  0.2715
27685W        W42816   6.889   0.786   4.333  0.2399 -0.1418  0.1229
27686W        W42817   7.211   8.119  10.091 -0.4553 -0.1621  0.3044
27687W        W42818   8.020   6.863   4.658  0.0565  0.0262 -0.1525
27688W        W42819  17.618  16.909   0.165  0.0983  0.0637 -0.1544
27689W        W42820   9.054   6.451   4.886  0.0164  0.1515  0.1738
27690W        W42821   7.813  10.851  11.811 -0.2345 -0.0241  0.1612
27691W        W42822   4.745   2.641   2.258 -0.2100 -0.1492  0.1427
27692W        W42823  18.500   6.882  13.346  0.2790  0.1415  0.1660
27693W        W42824  15.427  16.205  14.057  0.0392  0.2148 -0.1640
27694W        W42825  16.338   6.000   0.578 -0.2493  0.1337  0.2196
27695W        W42826   1.410  13.241   2.631  0.0912  0.2011 -0.0546
27696W        W42827   3.083   7.843  12.238 -0.1101  0.0276 -0.0235
27697W        W42828   1.830   8.842  13.063  0.0301  0.3505 -0.3450
27698W        W42829   0.788  16.459  11.502  0.4057  0.2021  0.0691
27699W        W42830  16.866   1.784   0.075  0.0328 -0.1216 -0.2985
27700W        W42831  11.606   7.395  12.195  0.2005 -0.0399  0.0327
27701W        W42832  11.740   5.831   2.993  0.1692 -0.0116  0.1018
27702W        W42833  14.666  10.375  15.749 -0.2667  0.0590  0.1574
27703W        W42834  13.237   2.772   5.156  0.1510 -0.1095 -0.2221
27704W        W42835   8.588   1.128   1.953 -0.1569  0.4241 -0.0702
27705W        W42836   9.202   4.897   0.696  0.0136 -0.1407  0.2151
27706W        W42837   0.977   8.654  13.211 -0.0895 -0.1909  0.1512
27707W        W42838  15.230  11.374   1.288 -0.1775 -0.0226 -0.1306
27708W        W42839   1.566  14.692   3.759  0.1081  0.4352  0.2108
27709W        W42840   2.725  11.053  11.328  0.2820 -0.1453  0.0141
27710W        W42841  11.935  11.742  12.662 -0.1293 -0.1311  0.1529
27711W        W42842   0.739   2.485  14.319 -0.1531  0.4582  0.2473
27712W        W42843  16.632   4.956   4.492  0.0356 -0.2819  0.0719
27713W        W42844   1.617   6.921   9.981  0.0499 -0.0893  0.0437
27714W        W42845  17.318   8.013   2.394 -0.4555  0.4437 -0.1149
27715W        W42846   3.572  18.064  12.452 -0.1224 -0.1131 -0.2766
27716W        W42847   3.649   1.082   0.309  0.2634 -0.0473  0.0183
27717W        W42848  16.988   8.323  11.932  0.2485 -0.1529  0.0099
27718W        W42849   8.808  13.222   0.632 -0.1964  0.0625 -0.0756
27719W        W42850   4.939   6.466   5.509  0.2453 -0.2289  0.0051
27720W        W42851   9.173   9.584   1.768  0.2078  0.0314  0.3213
27721W        W42852  13.091   3.663   1.187 -0.1049 -0.1430 -0.1055
27722W        W42853   2.601  13.586  13.647 -0.1704 -0.1799  0.0670
27723W        W42854  14.704  18.318   5.314 -0.0936 -0.1987 -0.0945
27724W        W42855   5.565   6.579   4.342  0.1602  0.0228  0.2226
27725W        W42856  15.362  18.287  15.227 -0.3065  0.0348  0.2270
27726W        W42857   2.171   9.984   0.289 -0.2657 -0.3113 -0.2032
27727W        W42858  16.390  18.070   3.691 -0.0940 -0.1127 -0.0848
27728W        W42859  15.738   6.741   0.680 -0.3427  0.0172 -0.0613
27729W        W42860  17.949  10.547  15.626  0.0547 -0.1649 -0.0105
27730W        W42861  14.498   1.816   5.282  0.2257  0.0445  0.2439
27731W        W42862  14.687   5.165  12.807 -0.0953 -0.2222  0.1009
27732W        W42863   3.769   4.345   4.909 -0.0211  0.1392 -0.0764
27733W        W42864  10.167   7.867   0.616 -0.2309  0.1009  0.0208
27734W        W42865  17.661  13.559  15.366 -0.0823 -0.1472 -0.2939
27735W        W42866  15.616  15.330   3.817 -0.0671  0.3726 -0.2050
27736W        W42867  16.957   5.796  15.321  0.2323 -0.1608 -0.0221
27737W        W42868   6.792   2.789  15.465  0.1058  0.0143  0.2316
27738W        W42869  18.460  12.811  14.941 -0.1521 -0.0346  0.1272
27739W        W42870  11.524   8.811  14.672 -0.0896 -0.1181 -0.3089
27740W        W42871   2.722  16.997   5.237 -0.1771  0.0161  0.3759
27741W        W42872  15.924  17.433   2.835  0.0487  0.2240  0.0337
27742W        W42873  16.839  12.390  13.537 -0.0260  0.0438  0.4211
27743W        W42874   4.594  17.519   4.182  0.1411  0.2254  0.0298
27744W        W42875  16.033  10.079  12.189  0.0011 -0.2108  0.0660
27745W        W42876   0.413  13.140  12.863 -0.1545  0.2958  0.2653
27746W        W42877  17.327  17.949   1.975  0.0161  0.1507  0.1478
27747W        W42878   2.802  14.558  13.041 -0.1999 -0.0286 -0.0539
27748W        W42879  14.650   0.152   4.119  0.1321  0.1907  0.1272
27749W        W42880   0.181   2.768  11.127  0.0694  0.0134  0.0841
27750W        W42881   5.678   3.671   3.690  0.1593 -0.2748  0.1192
27751W        W42882   3.796   7.919   5.017  0.1195 -0.0614 -0.2464
27752W        W42883   7.422  16.183  13.485  0.4440 -0.2637 -0.3366
27753W        W42884  13.097   1.452  14.954  0.2206 -0.1039  0.0139
27754W        W42885  17.078   0.525  14.673 -0.0034 -0.0342  0.1897
27755W        W42886   4.500   4.164   1.077  0.0263  0.1418 -0.1050
27756W        W42887  14.090   8.537   9.630  0.2120  0.1966 -0.1707
27757W        W42888   1.540   7.831   4.316 -0.0057 -0.2485 -0.2845
27758W        W42889  16.218  15.863   1.540 -0.1896  0.3412 -0.1516
27759W        W42890  14.310   4.127  13.247  0.0064  0.0499  0.1790
27760W        W42891   7.978   5.696  13.923  0.1496 -0.0885  0.0130
27761W        W42892   2.748  12.369  13.531  0.0231  0.0110  0.1761
27762W        W42893  17.936   6.012   5.179  0.2597  0.0208 -0.0135
27763W        W42894  13.868  16.958   1.079  0.0265  0.2686  0.1433
27764W        W42895   0.553  17.134   0.335 -0.3003  0.1969  0.1144
27765W        W42896   8.024   3.971   3.311 -0.3395 -0.0396  0.1619
27766W        W42897  11.034  16.705   4.599 -0.2049  0.0308 -0.2552
27767W        W42898   7.219   2.880   5.067  0.0945  0.0022  0.2274
27768W        W42899  17.589   9.086  13.306 -0.1748 -0.0922 -0.2443
27769W        W42900   0.610   2.006   4.540  0.4632 -0.2449 -0.0608
27770W        W42901   9.419  13.590   9.508  0.0207 -0.1522  0.0633
27771W        W42902   1.014  12.890   5.744 -0.4069 -0.2370 -0.0319
27772W        W42903  13.658  10.568  14.377  0.3769  0.3698  0.0769
27773W        W42904   7.015  14.599  11.362 -0.2009 -0.0765  0.1403
27774W        W42905   2.509   6.152  11.964  0.0471  0.0309  0.3225
27775W        W42906  14.361  10.935  15.150 -0.1222 -0.1812  0.1067
27776W        W42907   8.134  17.322  15.848 -0.0679  0.0533 -0.0691
27777W        W42908   6.055  11.984  13.366  0.0711  0.1065  0.0748
27778W        W42909  13.524  16.462  14.736  0.1025  0.3826 -0.1014
27779W        W42910  10.126  12.300   2.206 -0.1988 -0.0989 -0.0441
27780W        W42911  11.155   6.149   4.868  0.1058  0.0128 -0.1623
27781W        W42912   8.215   3.005   0.668  0.1393 -0.4283  0.1443
27782W        W42913   6.585   8.831  13.247  0.0944  0.1372 -0.0652
27783W        W42914  11.089   5.663  15.467  0.1317 -0.1634  0.0076
27784W        W42915  18.530   8.119  11.451 -0.2709  0.1752 -0.1559
27785W        W42916   5.924   3.161   1.247  0.0082 -0.1502 -0.1953
27786W        W42917   7.633   3.934  14.995 -0.0991  0.0208  0.0736
27787W        W42918  18.262   3.334  14.906  0.0879 -0.3030  0.2402
27788W        W42919   2.338   0.071   0.099  0.2511 -0.2539  0.1900
27789W        W42920   0.740   8.567  13.724 -0.1684  0.4015  0.0134
27790W        W42921  10.420  13.240   5.208 -0.0231  0.0744 -0.0232
27791W        W42922   6.929  15.781  15.885  0.0769  0.3707  0.1353
27792W        W42923   9.530   6.137  13.074 -0.0579 -0.0341 -0.1181
27793W        W42924  14.073  15.087  12.977 -0.4907  0.0767  0.0534
27794W        W42925  13.594  17.477  15.047  0.2487 -0.2660  0.1710
27795W        W42926   5.707  12.810  13.562  0.2004 -0.2268 -0.5435
27796W        W42927  11.761  12.093   3.454  0.4256 -0.2719  0.1611
27797W        W42928  12.413  13.320  11.373 -0.0350  0.3137  0.1403
27798W        W42929  12.143  11.392  15.128  0.0861  0.0878 -0.0545
27799W        W42930   5.009   7.442   4.090 -0.3445  0.0859 -0.3359
27800W        W42931   8.328   5.111   4.703  0.0038  0.3105 -0.2244
27801W        W42932  14.482   4.893   3.806 -0.1505  0.2433 -0.2311
27802W        W42933   7.879  13.631  15.763  0.2357 -0.1007 -0.0618
27803W        W42934  12.871  12.921   0.461  0.0009  0.1881  0.2397
27804W        W42935  15.670  11.199  13.692 -0.0082  0.1535 -0.4585
27805W        W42936  10.352  11.648  10.882  0.0256 -0.0085  0.0975
27806W        W42937  11.842   3.060  14.007 -0.2070 -0.2227  0.2056
27807W        W42938   8.097  11.880  15.075  0.0122 -0.2392 -0.3888
27808W        W42939   7.882   7.461   2.905  0.1010 -0.1969 -0.0029
27809W        W42940  17.119   4.539   2.044 -0.2290 -0.1657 -0.3339
27810W        W42941   3.009   4.330  13.472 -0.1457 -0.1956 -0.1607
27811W        W42942  13.825  17.551  11.485  0.0861 -0.1293  0.0879
27812W        W42943  16.413  17.224  14.081 -0.1834 -0.3893  0.3052
27813W        W42944   6.407   6.120  11.780 -0.1017 -0.0360 -0.4860
27814W        W42945  17.024  14.501  13.443 -0.2867 -0.1699 -0.1741
27815W        W42946  12.009   8.876   1.771 -0.0975  0.2310 -0.0842
27816W        W42947   0.297  16.019   6.530 -0.0885 -0.1068  0.1959
27817W        W42948  13.330   0.277   1.259 -0.1344  0.3133  0.1405
27818W        W42949   4.730   5.321   4.952  0.2282  0.1810 -0.2395
27819W        W42950  13.147  15.260   1.908 -0.0142 -0.0865 -0.0797
27820W        W42951   6.461  18.174  10.414 -0.1552  0.1928  0.1076
27821W        W42952   7.435  10.261   4.139  0.1709  0.3122  0.2780
27822W        W42953   3.124   3.838  12.345 -0.0898  0.1285  0.0411
27823W        W42954  18.021   5.286   0.308  0.0265 -0.0888  0.2008
27824W        W42955  10.959  17.366  15.600 -0.1295  0.0961  0.0185
27825W        W42956   7.632  17.535  15.828 -0.1711 -0.1365 -0.3313
27826W        W42957   0.785  17.056   2.679  0.0930 -0.1801 -0.1673
27827W        W42958  10.171  17.309  14.568  0.1234 -0.0591 -0.1664
27828W        W42959   7.850   4.742  10.934 -0.0744  0.1556  0.0027
27829W        W42960  12.475   0.929   5.362 -0.2256 -0.1116  0.4272
27830W        W42961  12.184   8.593   3.513 -0.1271  0.0875 -0.0851
27831W        W42962   7.184  10.038   1.298 -0.4597  0.0976  0.3009
27832W        W42963  11.667   4.441  14.043 -0.1598 -0.0873  0.1778
27833W        W42964  18.382  15.294  10.987  0.3265 -0.1545  0.3094
27834W        W42965  15.015   5.544   2.366  0.1326  0.2849  0.2678
27835W        W42966  14.676   9.093  12.935 -0.1461  0.0706 -0.3662
27836W        W42967   3.119  10.793  10.638  0.4350  0.0299  0.1829
27837W        W42968  11.232   4.102  14.999  0.0925  0.0424 -0.2085
27838W        W42969   2.779   7.738  13.348  0.2322  0.0970 -0.0833
27839W        W42970  14.968  10.715   2.920  0.0317 -0.1687 -0.1911
27840W        W42971  15.610  13.656   4.951  0.2037  0.1338 -0.3268
27841W        W42972   8.287   1.589  10.776  0.3453 -0.1395 -0.2588
27842W        W42973  13.360  15.442  13.432 -0.1767 -0.0285  0.2063
27843W        W42974  13.637  10.144   5.196 -0.0075 -0.1465 -0.2673
27844W        W42975   2.121  10.709  13.600 -0.0630  0.2156  0.2021
27845W        W42976   9.587  16.922  15.551 -0.6246 -0.2170  0.0613
27846W        W42977   5.164  17.967   3.836 -0.1253 -0.1118 -0.0240
27847W        W42978  11.462  12.428   2.724  0.1835 -0.2548  0.1147
27848W        W42979   7.909  12.857  12.255  0.2078 -0.0020  0.0779
27849W        W42980   3.453  17.212   0.291 -0.2371 -0.0971 -0.3101
27850W        W42981  12.225   2.771   0.535 -0.0105  0.1145 -0.4169
27851W        W42982  11.857  11.221   9.787 -0.3093 -0.3504  0.0285
27852W        W42983   0.592  11.832  14.114 -0.0875 -0.1809 -0.4224
27853W        W42984   4.462   7.472   4.901 -0.1218 -0.0038 -0.1050
27854W        W42985  15.818   7.157  11.536  0.0536  0.0355 -0.0069
27855W        W42986   9.923   8.389  15.759  0.2369 -0.1553  0.0647
27856W        W42987  13.464  13.204  10.880 -0.0730  0.3170  0.2135
27857W        W42988  11.011   2.718   2.466  0.1789 -0.1802  0.2246
27858W        W42989   4.472  18.038  11.999  0.1262 -0.0058  0.1604
27859W        W42990  10.118   2.160   2.032 -0.0716 -0.0638 -0.2003
27860W        W42991  14.324  15.705   4.727 -0.1522 -0.0409 -0.0460
27861W        W42992  18.343  17.666   1.327 -0.2061 -0.0099  0.1828
27862W        W42993  14.864  15.959   4.842 -0.3320 -0.2661  0.2012
27863W        W42994   3.539   6.007  15.428  0.0052 -0.0930  0.0298
27864W        W42995   2.048   6.995   2.978 -0.1967 -0.0716  0.1821
27865W        W42996  14.332  11.754  11.582  0.1268 -0.1196  0.0697
27866W        W42997  13.900   0.047  14.317  0.1241  0.1790 -0.3015
27867W        W42998   5.893   7.774   4.087 -0.3099  0.0055 -0.0000
27868W        W42999   8.139  16.941   0.818 -0.0195  0.0979  0.3078
27869W        W43000   4.759  10.972   2.435  0.1817 -0.0021 -0.1005
27870W        W43001   0.846   0.102   1.393  0.2756  0.1014 -0.2244
27871W        W43002   3.781  14.982  13.681  0.1570  0.1843 -0.1541
27872W        W43003   8.227   5.640   3.496 -0.0991 -0.1598  0.0619
27873W        W43004  11.777   7.518   3.620  0.2210 -0.1436  0.0326
27874W        W43005   4.225   9.632   3.980  0.1884  0.0304  0.1007
27875W        W43006  18.044   8.644  14.625 -0.2463 -0.2159 -0.1539
27876W        W43007   2.468   2.735   4.685  0.0132  0.1135  0.2524
27877W        W43008   4.521   0.281   0.000 -0.1712 -0.1301  0.0016
27878W        W43009  13.988   7.509  13.296  0.0391 -0.0340 -0.2156
27879W        W43010  11.451  10.230   1.295 -0.0480 -0.2101  0.2276
27880W        W43011   4.983  12.015   1.299  0.2094  0.0482  0.1452
27881W        W43012   0.955  15.068   2.450 -0.1306  0.0072 -0.0184
27882W        W43013   6.876   5.369  14.279 -0.0356 -0.0881 -0.1127
27883W        W43014  14.233   2.828  13.312  0.0099  0.0274  0.0721
27884W        W43015  10.095   5.098  15.768  0.1279  0.0083  0.0047
27885W        W43016   8.464   4.751   3.645 -0.2595 -0.0322  0.1063
27886W        W43017   2.352   0.068   5.012 -0.1025 -0.0474  0.2902
27887W        W43018   7.740   4.134   0.644  0.1848 -0.1782 -0.0237
27888W        W43019   3.025  15.044  12.662 -0.0170 -0.3096 -0.1769
27889W        W43020  12.142   6.632  12.681 -0.0941  0.1273 -0.0668
27890W        W43021   7.273  17.548   1.156  0.2456 -0.0145 -0.1285
27891W        W43022  13.484   7.728  12.967 -0.4719 -0.0887  0.0193
27892W        W43023   7.169   1.199   0.543 -0.0813  0.2455 -0.1793
27893W        W43024   7.533   1.285   3.762  0.0701  0.0562  0.2040
27894W        W43025   7.953   7.798   4.704  0.0598  0.1229 -0.1826
27895W        W43026   4.583  10.895  13.681  0.0115 -0.3351 -0.0063
27896W        W43027  15.464  10.324   3.986  0.1793 -0.4138  0.0024
27897W        W43028   5.984  12.822  14.006 -0.2774 -0.3310  0.1219
27898W        W43029  16.194   0.462   3.814  0.1761 -0.0322  0.0769
27899W        W43030  13.842   9.957  14.950 -0.2557 -0.1863  0.0267
27900W        W43031   7.465   2.952   1.187 -0.3446 -0.1384 -0.0973
27901W        W43032   9.083   7.406  14.154 -0.0323  0.1267  0.1696
27902W        W43033   0.750   1.202   6.226  0.1420  0.1097 -0.1063
27903W        W43034   2.421   1.239  14.275  0.2342  0.3466  0.2124
27904W        W43035  12.208   7.980  11.642  0.0953  0.2116 -0.1867
27905W        W43036  13.504   5.656   5.251  0.3567 -0.0031 -0.2401
27906W        W43037  10.562  16.412   1.320 -0.0586 -0.2258  0.2478
27907W        W43038   4.642   2.264   4.143  0.1423 -0.0527 -0.2060
27908W        W43039  10.896  12.727   4.370  0.0564  0.1578  0.3037
27909W        W43040   8.038  15.364   1.120 -0.3130 -0.1093 -0.2973
27910W        W43041  16.341  11.785  13.887  0.0229  0.0938  0.0859
27911W        W43042   2.418   3.058   0.612  0.0820  0.0190 -0.0579
27912W        W43043   0.477  17.288  15.181 -0.2551  0.1034 -0.0257
27913W        W43044   7.907   9.367   1.197  0.1352  0.2878 -0.0184
27914W        W43045   8.295   2.371   3.654  0.0503  0.1032 -0.1940
27915W        W43046  17.829  11.869   1.201 -0.1155  0.0897 -0.2122
27916W        W43047  15.200   1.885  14.067  0.1860  0.1122 -0.2228
27917W        W43048  13.963   7.291  10.486  0.1540 -0.3741 -0.1317
27918W        W43049   9.052   2.949   4.023 -0.0587 -0.1693 -0.2002
27919W        W43050   4.647   2.877   3.486 -0.2288 -0.1160  0.2074
27920W        W43051  14.706   8.798  13.379  0.2088 -0.1965 -0.0758
27921W        W43052  12.745   5.914  13.779 -0.2723  0.1041 -0.0805
27922W        W43053   8.267   1.011  12.721  0.2824 -0.2361  0.0351
27923W        W43054   2.981  13.755  15.585 -0.3060  0.0418  0.0095
27924W        W43055  17.457  18.191  12.152 -0.0498 -0.5367 -0.3649
27925W        W43056   7.358  13.322  14.283 -0.1712  0.2197 -0.1117
27926W        W43057   1.503  13.668   5.036 -0.2364  0.2002  0.2050
27927W        W43058   7.185   9.154   4.076 -0.0535 -0.4071  0.5035
27928W        W43059  11.402  14.991  11.168  0.2035 -0.2043 -0.0319
27929W        W43060   8.613   6.514  13.762 -0.0918  0.0407 -0.1249
27930W        W43061  13.538   0.433  15.757 -0.1495  0.2465  0.4289
27931W        W43062   6.433   8.521   2.396 -0.0891  0.0867  0.3655
27932W        W43063   5.541   8.641  11.961  0.4570 -0.0988 -0.2444
27933W        W43064   1.871   8.802   0.202 -0.1566  0.1240  0.1838
27934W        W43065  12.573  18.225  12.238  0.1849 -0.0466  0.0704
27935W        W43066  10.450   0.665   3.431 -0.3355 -0.1868  0.2778
27936W        W43067  17.924  11.093   3.649 -0.0655  0.2355  0.0949
27937W        W43068  13.330   4.344   4.820 -0.3158 -0.2354 -0.0866
27938W        W43069   3.754  14.145   0.995 -0.0454  0.0685  0.2746
27939W        W43070  15.548   4.244  14.175 -0.3063  0.3071  0.0183
27940W        W43071   6.987   5.038  11.070 -0.1901  0.4548 -0.1390
27941W        W43072   4.194  17.560  13.286  0.4079 -0.0671  0.2904
27942W        W43073  13.826   6.533  15.645  0.2358  0.0505 -0.2236
27943W        W43074  16.002   8.998  13.150 -0.0730 -0.0382  0.0413
27944W        W43075   7.010   0.081   1.630 -0.3144 -0.1781  0.0814
27945W        W43076  13.533  12.622   0.793 -0.2356  0.0968  0.1465
27946W        W43077  15.286  10.993   2.077  0.1345 -0.2531  0.3011
27947W        W43078  17.490  10.548   1.797 -0.0883 -0.0744  0.0357
27948W        W43079   6.552   4.580   4.666 -0.0135 -0.2269 -0.3395
27949W        W43080   4.765   7.712  10.749 -0.0782  0.1157  0.0695
27950W        W43081   1.515  16.808   3.284 -0.0644 -0.1040 -0.3541
27951W        W43082   7.421   4.404   3.259 -0.3123  0.0383 -0.2737
27952W        W43083  17.017   6.545   1.897  0.1867  0.1460 -0.0146
27953W        W43084   9.352   1.970   4.259 -0.1056  0.0101 -0.1085
27954W        W43085   8.742  11.568  14.728  0.2469 -0.0702  0.2008
27955W        W43086  16.465  14.069   1.137  0.1772 -0.0108 -0.0538
27956W        W43087  11.556  11.367   0.756 -0.0445 -0.1736  0.0665
27957W        W43088  15.895   8.362   1.759  0.0206 -0.0424 -0.2484
27958W        W43089  11.267   8.153   5.214  0.0514 -0.2906 -0.0719
27959W        W43090  15.218   0.626   4.909  0.4009  0.0340 -0.0975
27960W        W43091   6.942  10.135  13.675 -0.1999 -0.0509  0.0014
27961W        W43092  17.266  13.741   4.052 -0.0030 -0.1770  0.2422
27962W        W43093   2.301   0.587   4.971  0.1101 -0.0972 -0.2339
27963W        W43094   8.213   0.916  13.711 -0.1653 -0.0329  0.0953
27964W        W43095   4.477   1.789   0.846  0.3080 -0.1651  0.2060
27965W        W43096  14.478  10.838  13.528 -0.1699 -0.1407 -0.0277
27966W        W43097  12.426  16.762  12.283  0.0994 -0.0544  0.2558
27967W        W43098   2.298   6.143  13.680 -0.2937 -0.1295 -0.1794
27968W        W43099   2.496   2.901   1.952 -0.1291  0.1598 -0.3633
27969W        W43100  15.126  14.690   0.041  0.0782  0.1063  0.2603
27970W        W43101   3.493   7.785   2.069 -0.3839 -0.1905  0.1366
27971W        W43102  10.184   5.573  10.878  0.0672  0.0288  0.0559
27972W        W43103   6.197  15.702  15.886 -0.0311 -0.1197 -0.2426
27973W        W43104   5.383   3.186   1.260  0.0387 -0.2376  0.1266
27974W        W43105   4.644   3.730   3.804 -0.0163 -0.0980  0.1317
27975W        W43106  13.841  11.935   4.010 -0.0895 -0.1130  0.0271
27976W        W43107   1.940  10.973  12.491  0.0454 -0.1134  0.1047
27977W        W43108  14.801   3.517   3.854  0.0582 -0.1974 -0.1724
27978W        W43109   8.870  11.171   4.448  0.0945  0.0859 -0.1632
27979W        W43110   6.954  15.966   5.011  0.0614 -0.3353  0.1628
27980W        W43111  13.339   3.361   5.068  0.3738 -0.0092 -0.0760
27981W        W43112  10.670   8.299  11.725  0.0644  0.0173  0.0231
27982W        W43113  15.127  17.964   0.624 -0.2698  0.1147  0.1632
27983W        W43114   6.396  11.224   3.154 -0.0321  0.1065  0.0137
27984W        W43115  11.976   2.229   4.238  0.3971 -0.1152 -0.1739
27985W        W43116  13.149  18.457   4.065  0.0152  0.2813 -0.2580
27986W        W43117  16.488   4.205  13.965 -0.2453  0.0032  0.2313
27987W        W43118   1.656   3.147  13.247 -0.1272 -0.2851 -0.3095
27988W        W43119   4.180  17.785   5.002  0.1352 -0.0512  0.0669
27989W        W43120   9.936  14.144  11.194 -0.3486 -0.0279 -0.2054
27990W        W43121   5.936   8.244  11.584  0.1508  0.1408  0.0217
27991W        W43122   8.501  17.040   0.436  0.0783  0.0033 -0.0890
27992W        W43123   2.185   2.817  10.854 -0.0025 -0.0611  0.0788
27993W        W43124  15.040  11.888   1.053  0.2413 -0.3070 -0.0723
27994W        W43125  14.584  11.559   4.280 -0.0647  0.0744 -0.3044
27995W        W43126   6.134  18.023   1.352  0.1729 -0.1919 -0.5887
27996W        W43127  16.503  10.652   2.509  0.1578  0.0243 -0.1122
27997W        W43128   1.381   4.748  11.017  0.0425 -0.0854  0.0416
27998W        W43129   9.460   8.091   3.624 -0.0513  0.2634  0.2139
27999W        W43130   8.910   1.884  14.873 -0.4351  0.3080  0.1308
28000W        W43131   3.799  11.450  14.393  0.1613  0.1051  0.2817
28001W        W43132   0.940   6.284   3.134 -0.1737 -0.0010 -0.2408
28002W        W43133   1.758  13.564  15.623  0.0081 -0.0807  0.0876
28003W        W43134   0.513   7.202   4.299 -0.0983 -0.1161  0.0392
28004W        W43135  18.059   0.490   5.007 -0.2072 -0.0365  0.1423
28005W        W43136  11.670  11.953  15.519  0.1295 -0.2297  0.3524
28006W        W43137   9.382  10.747   0.128 -0.2324  0.0061 -0.0596
28007W        W43138  15.334  16.133   5.442  0.5342 -0.2173 -0.3129
28008W        W43139  16.540   0.098  12.216 -0.0066 -0.2874 -0.0857
28009W        W43140  14.358  13.299   1.823  0.1040  0.0622  0.0703
28010W        W43141   5.089  14.414  13.736  0.2329  0.1474 -0.3654
28011W        W43142   4.108  16.023   2.953 -0.0149 -0.2842 -0.2943
28012W        W43143  18.185  14.726  15.352 -0.1787 -0.1887  0.1825
28013W        W43144   3.867  10.894  15.286  0.0283 -0.1969 -0.0952
28014W        W43145  13.849  17.165   0.585  0.1566 -0.0276 -0.0780
28015W        W43146   8.178   4.611   4.842 -0.1252  0.0439 -0.0694
28016W        W43147  17.676  17.794  13.411 -0.1092  0.0146  0.0645
28017W        W43148   5.382   9.637   3.865  0.0150  0.0832  0.2378
28018W        W43149   3.596   2.365   1.250 -0.3365 -0.1440 -0.0799
28019W        W43150   6.875  11.740   5.342  0.2652 -0.3141 -0.2358
28020W        W43151   5.731   4.110   0.429 -0.2085 -0.0524  0.2230
28021W        W43152  16.811  17.110  11.387  0.0610  0.1644 -0.1133
28022W        W43153   5.817  11.086  13.315  0.0922 -0.1171  0.0143
28023W        W43154   9.957  15.929  12.368  0.0651  0.1773  0.1856
28024W        W43155  14.733   7.492  12.672 -0.1086 -0.0409 -0.1329
28025W        W43156   5.623  12.478  13.976  0.1909  0.2639  0.1218
28026W        W43157  13.691   2.494   1.592  0.0750 -0.0963 -0.1901
28027W        W43158  10.052  13.608  10.835  0.2221 -0.3045  0.2159
28028W        W43159  16.876  16.007   4.266 -0.0937 -0.1183  0.0517
28029W        W43160  17.810   1.262  14.871 -0.1242 -0.2526 -0.0205
28030W        W43161   6.672  18.303   0.423  0.0367 -0.4761  0.1343
28031W        W43162   1.594  13.607  12.518 -0.0679 -0.0343  0.0166
28032W        W43163  18.329   2.460  10.862 -0.1790 -0.0916  0.1840
28033W        W43164   0.178   6.841  10.009 -0.1154  0.0912  0.2606
28034W        W43165   6.102  10.634  13.161  0.0869  0.0438 -0.0874
28035W        W43166  10.083   2.439   3.064  0.3082 -0.0916  0.0102
28036W        W43167   3.097  11.855  11.206  0.2201 -0.0008 -0.0795
28037W        W43168  13.479   1.448  13.512  0.0917 -0.1655 -0.3078
28038W        W43169   6.614  10.245   3.472 -0.1827 -0.0548 -0.1759
28039W        W43170   1.059   7.282  11.193 -0.1039 -0.0420 -0.3460
28040W        W43171   8.693  17.837   5.539 -0.1694 -0.0132  0.1676
28041W        W43172  15.989  13.255   1.237 -0.0532  0.0961  0.1586
28042W        W43173  13.612   8.085  10.178 -0.1921 -0.2511 -0.1166
28043W        W43174  13.405  10.334   4.787  0.3203  0.1594 -0.2685
28044W        W43175   2.561  12.771  14.211  0.1841 -0.2645 -0.0147
28045W        W43176   9.236  11.550  13.315  0.0586  0.0924 -0.4223
28046W        W43177  11.150  14.146   1.674 -0.0815  0.2787 -0.0839
28047W        W43178  14.159  14.727   3.187 -0.1697  0.1673  0.0492
28048W        W43179   2.945   5.923  12.356 -0.1567  0.0262  0.1507
28049W        W43180  12.011   5.558   4.870  0.1944 -0.3604  0.2066
28050W        W43181   8.103  16.473  10.971  0.0407  0.0157  0.0854
28051W        W43182   1.527   8.587   0.511  0.1935  0.2110  0.0755
28052W        W43183  12.296  14.644  12.894  0.0443 -0.0756 -0.2865
28053W        W43184   3.142  16.506   3.115 -0.0400 -0.0139  0.0429
28054W        W43185   5.375   0.117   0.916 -0.1446 -0.0909  0.2340
28055W        W43186   3.845   3.858   4.223  0.0430 -0.0486  0.0417
28056W        W43187  12.421  15.848   1.234 -0.0400 -0.0255  0.0068
28057W        W43188   0.005   7.726   2.581  0.2219 -0.1985  0.3065
28058W        W43189   0.459  13.707  12.155 -0.1002 -0.1742 -0.0051
28059W        W43190   6.665  10.895  15.450 -0.3680 -0.2344  0.3523
28060W        W43191   1.870  10.201   1.984  0.2763 -0.0803 -0.0062
28061W        W43192   2.938   6.513  11.791  0.0305  0.2826  0.2904
28062W        W43193  13.866  17.719  13.907  0.1232 -0.0094 -0.2554
28063W        W43194  16.101   5.366  15.035 -0.2028 -0.1811 -0.0178
28064W        W43195   4.613   1.163   3.150  0.1678 -0.0128 -0.2799
28065W        W43196   9.611   4.237  14.175 -0.5657  0.1219  0.0276
28066W        W43197  18.458  15.291  11.491 -0.1136 -0.1168  0.1501
28067W        W43198   8.159  10.521   3.798 -0.1122 -0.3900  0.0954
28068W        W43199   5.904   8.536   4.759 -0.0125  0.0114 -0.1096
28069W        W43200   9.853   0.481   0.123 -0.2259 -0.2898  0.1073
28070W        W43201   0.987  14.302  11.151  0.0961  0.1492  0.1193
28071W        W43202  16.005  12.559  11.917 -0.4186  0.0700 -0.1088
28072W        W43203  13.514   1.307  15.326  0.1141  0.3124 -0.2207
28073W        W43204   4.126   3.222  11.505  0.2998 -0.3606  0.1292
28074W        W43205   4.238   0.032   4.142 -0.0857  0.2639  0.3081
28075W        W43206   8.804  14.076   3.876  0.2639  0.3087 -0.2702
28076W        W43207   8.820  18.062  13.480 -0.0737  0.1442 -0.0357
28077W        W43208   6.159  11.049  11.245  0.4116  0.0732 -0.0724
28078W        W43209   0.201   4.030   3.174  0.2216 -0.1841  0.1447
28079W        W43210  11.936   6.754  15.696 -0.1748 -0.1339 -0.0438
28080W        W43211  17.757  16.471  12.624  0.0495  0.0851  0.3508
28081W        W43212   7.784   0.108   3.242 -0.0329 -0.0761  0.0725
28082W        W43213   2.214   7.155  13.254  0.1338  0.0788  0.0927
28083W        W43214  14.093   2.880   2.201 -0.2835  0.1467 -0.1613
28084W        W43215  15.979  13.397  15.151  0.1696  0.3481 -0.0244
28085W        W43216   2.655  12.512  15.116 -0.1671 -0.1230 -0.1321
28086W        W43217   9.379  17.080   0.088 -0.0371  0.0219 -0.1046
28087W        W43218   1.012  17.835   1.714  0.0205 -0.0737 -0.2648
28088W        W43219  17.956   9.913   1.007  0.1327 -0.3465  0.0790
28089W        W43220   6.385  17.923   5.081  0.1025 -0.1809 -0.0387
28090W        W43221  10.672   5.829   4.920 -0.4942  0.0477  0.1541
28091W        W43222   5.159   2.984   3.312  0.1251 -0.1966 -0.0470
28092W        W43223   4.330  18.414   1.818 -0.2527 -0.1351 -0.1437
28093W        W43224  11.235  12.583   0.790 -0.1688 -0.0555 -0.0371
28094W        W43225  18.008   1.741  15.702 -0.1172  0.3145 -0.0984
28095W        W43226  12.653   0.963  13.677  0.2358 -0.0552  0.0788
28096W        W43227   7.621  16.998  11.999  0.0566 -0.3104  0.0577
28097W        W43228  13.771   2.710   4.465 -0.1969 -0.1443 -0.1079
28098W        W43229   7.089   3.445   5.389 -0.0429  0.3224  0.0723
28099W        W43230   9.588  12.881   2.736  0.0158 -0.0169 -0.0238
28100W        W43231   2.920  12.301  11.284 -0.1464 -0.0924 -0.0582
28101W        W43232   0.032  16.796   0.673 -0.1212 -0.0730 -0.1835
28102W        W43233  14.146  15.865  15.795 -0.1984 -0.3024  0.3701
28103W        W43234   6.772  13.449  12.880 -0.1866  0.0071  0.2680
28104W        W43235  11.488   2.376  12.485 -0.1046 -0.2366 -0.1704
28105W        W43236  12.868   9.041   2.578  0.1215  0.0911 -0.3144
28106W        W43237   8.267   4.451  13.108  0.2044 -0.2754 -0.3125
28107W        W43238   6.348  12.765   5.410  0.1642 -0.2655  0.0068
28108W        W43239   6.441   4.076  14.753 -0.2765  0.1619 -0.3369
28109W        W43240  15.274  17.115  14.493  0.0879 -0.2119  0.3630
28110W        W43241   3.353  15.434   4.300 -0.0039  0.1286  0.2331
28111W        W43242   1.782   6.200  15.607 -0.0188 -0.2174 -0.0021
28112W        W43243  17.244  16.978   1.740  0.1092 -0.2133 -0.3164
28113W        W43244   0.888  11.314  14.762 -0.1297 -0.0924 -0.0937
28114W        W43245  16.449   2.045   1.052  0.0004  0.1281  0.3684
28115W        W43246   0.125   6.359  11.935  0.0045  0.5234  0.1851
28116W        W43247   6.917  11.132   4.109 -0.1255  0.1548 -0.0728
28117W        W43248   4.878  17.027   0.886 -0.3250 -0.1319 -0.0961
28118W        W43249   1.746   9.177  12.558  0.0853 -0.0321 -0.1080
28119W        W43250   0.739   7.160  10.686  0.0279  0.1229 -0.1056
28120W        W43251   0.006   6.417   5.064 -0.2337 -0.0016 -0.0641
28121W        W43252   3.255  17.239  12.040  0.2589 -0.0260  0.1853
28122W        W43253   3.757   6.879   0.110 -0.0270  0.3871 -0.0937
28123W        W43254   5.391  11.546  12.250  0.0006 -0.0703  0.1465
28124W        W43255  12.603  12.762  13.884 -0.0610  0.1838 -0.0695
28125W        W43256   5.116   3.193  13.201 -0.0300  0.0571  0.2280
28126W        W43257  15.270  15.032   5.491 -0.0549  0.0648  0.1513
28127W        W43258   8.094  14.487   2.038  0.2588  0.0701 -0.0716
28128W        W43259  15.848  13.561  12.699 -0.2423 -0.1124 -0.0391
28129W        W43260   5.350   8.971   3.137 -0.2983 -0.1266  0.0083
28130W        W43261   9.691   1.135   0.185  0.3583  0.0003 -0.3529
28131W        W43262  14.563   8.236  11.290  0.0859 -0.0023  0.0659
28132W        W43263  11.250   7.023   4.194  0.1693 -0.0771  0.0620
28133W        W43264   2.306   5.278  12.080  0.5462 -0.1431 -0.0135
28134W        W43265   7.828   3.344   4.439 -0.0579 -0.1747  0.2528
28135W        W43266   4.550  13.653   3.129  0.1989 -0.2451 -0.1159
28136W        W43267   3.739  17.414  15.226  0.2994  0.2225 -0.4611
28137W        W43268  13.619  12.814   5.284  0.0381  0.0378 -0.0396
28138W        W43269  16.596  14.438   5.431  0.1323 -0.0970 -0.1267
28139W        W43270  10.662  11.350   2.329 -0.1144 -0.1031  0.1770
28140W        W43271   1.007  10.866   1.235 -0.2461  0.0361 -0.1158
28141W        W43272  10.347  17.278   0.958  0.2280 -0.2065 -0.2595
28142W        W43273   1.294  18.290   3.005  0.0970  0.5271  0.4733
28143W        W43274  14.863   4.310  12.063 -0.0696 -0.1371 -0.1297
28144W        W43275  10.271  14.336  13.869  0.1014 -0.1002 -0.2540
28145W        W43276   3.036  13.303   1.700 -0.3612 -0.0944  0.0538
28146W        W43277   5.946  10.194   4.684  0.1345  0.1015 -0.1844
28147W        W43278  14.224  11.391   2.847 -0.2278 -0.1893 -0.2908
28148W        W43279  18.158  16.983   2.822  0.1348  0.2468  0.0158
28149W        W43280   2.920   1.206   0.978 -0.1667 -0.4275 -0.0478
28150W        W43281   4.508   0.502  13.005 -0.2023 -0.0373  0.1040
28151W        W43282  14.758  10.992   4.366  0.1368 -0.1174 -0.0660
28152W        W43283  14.688   0.646  14.345  0.0016 -0.0499 -0.2203
28153W        W43284  17.116  15.806  11.456 -0.0387 -0.2016 -0.0921
28154W        W43285  16.609   0.649   5.653 -0.0053  0.1108 -0.0762
28155W        W43286  16.229   7.934   0.749 -0.3082 -0.2619  0.2042
28156W        W43287  14.027   3.985   2.132  0.0435  0.2929 -0.2153
28157W        W43288  16.131   8.484  13.283 -0.0766 -0.1091  0.3125
28158W        W43289  13.126   9.441   4.409  0.0006  0.2435 -0.2178
28159W        W43290   6.762  17.455   3.825  0.0672 -0.0971  0.0904
28160W        W43291  15.213  15.501   0.668  0.1478 -0.0505 -0.0998
28161W        W43292  11.325   9.138   5.563  0.2846 -0.0453 -0.1197
28162W        W43293   7.414  15.279  13.072 -0.1745 -0.1747  0.0992
28163W        W43294   4.122   2.246   4.725  0.1903 -0.0664  0.1283
28164W        W43295  13.588   5.214   4.309  0.3518 -0.1603 -0.3808
28165W        W43296   0.204  12.103   4.224 -0.2589 -0.3112  0.4925
28166W        W43297   0.585  18.158   1.952  0.0662 -0.0992  0.1354
28167W        W43298  18.096  16.358  14.291 -0.1714  0.1691  0.3233
28168W        W43299  12.412   9.129   1.680 -0.2268 -0.2472  0.0870
28169W        W43300   6.606   3.889  13.025 -0.1499  0.0748 -0.1403
28170W        W43301   7.334   1.071  13.135  0.3406 -0.2420  0.1198
28171W        W43302  15.246  16.245   0.132  0.2020 -0.1833  0.2979
28172W        W43303  16.474  16.918   2.353  0.1320 -0.1899  0.2434
28173W        W43304   6.267  17.800  11.333  0.1371 -0.0243  0.0188
28174W        W43305   8.131   0.142   1.192 -0.0679 -0.4394  0.0985
28175W        W43306  13.192   2.757  14.971 -0.1663  0.2472 -0.1446
28176W        W43307   3.617   5.218   5.019 -0.1765  0.3136  0.1850
28177W        W43308   1.442  15.621   1.913 -0.0760 -0.1329  0.1299
28178W        W43309   4.026  12.213  15.743  0.1270  0.0918  0.0054
28179W        W43310   6.926   9.501   5.274 -0.1502  0.4255 -0.3139
28180W        W43311  13.352   5.547   3.000 -0.1027 -0.1815  0.2110
28181W        W43312  11.975   8.703  14.108 -0.1048 -0.2014 -0.1587
28182W        W43313  11.919  17.940  11.466 -0.2209 -0.3445 -0.1155
28183W        W43314  15.040   5.846   3.538 -0.4175 -0.2295  0.2463
28184W        W43315  18.008  10.024   0.532 -0.2476  0.0508 -0.0111
28185W        W43316   7.042  13.795  15.269  0.1149  0.0429  0.0278
28186W        W43317   7.956   4.745  15.246  0.2874  0.1893  0.2010
28187W        W43318   1.315  13.292   4.696  0.0988 -0.2141 -0.1308
28188W        W43319   6.372   0.994   1.533  0.3778  0.1588  0.1641
28189W        W43320  11.592  16.765   0.434  0.2788 -0.1026 -0.0521
28190W        W43321   3.795   4.273  12.166  0.0330 -0.0351 -0.1762
28191W        W43322   9.350  10.988  13.502  0.0200 -0.0209 -0.0743
28192W        W43323   1.534   0.473   3.563 -0.1638 -0.2784 -0.2929
28193W        W43324   5.421   8.750   1.093  0.0289  0.0527  0.0507
28194W        W43325  17.494   1.877   0.155  0.0076  0.0426  0.3449
28195W        W43326  14.722   3.189   5.363  0.0533 -0.1267 -0.1511
28196W        W43327  13.244   0.686  14.339  0.3709 -0.1256  0.0823
28197W        W43328  11.546   9.538  15.887 -0.2376 -0.0998 -0.1709
28198W        W43329   2.063   9.227  14.197  0.0188 -0.0333  0.1902
28199W        W43330   4.372  14.977  13.725 -0.0569 -0.0998  0.2320
28200W        W43331  11.844   8.746  12.923 -0.3047  0.1416  0.3526
28201W        W43332   8.869   0.507  12.418  0.1258 -0.3362  0.1181
28202W        W43333   3.419  12.684  10.591  0.1013  0.1219  0.2423
28203W        W43334   0.408  14.129   3.744  0.3944  0.2646 -0.1251
28204W        W43335   8.586  14.434  10.524 -0.2109 -0.2017 -0.1946
28205W        W43336   8.919  14.431   0.438  0.1700 -0.0938  0.0424
28206W        W43337   7.305   6.739   3.813  0.1976 -0.0492  0.0338
28207W        W43338   0.258   4.125  13.841 -0.0168  0.0446  0.0548
28208W        W43339  17.833   8.204   2.793  0.3569  0.0191 -0.0639
28209W        W43340   7.758  18.248   1.398 -0.2270 -0.1648 -0.0929
28210W        W43341   8.329   7.665   0.253 -0.1002 -0.0473 -0.1840
28211W        W43342   3.016  18.300  12.006 -0.1825  0.0461  0.3941
28212W        W43343   0.936  17.300  15.367 -0.1681 -0.1417 -0.0286
28213W        W43344  17.287   0.879   3.805 -0.4064  0.0560 -0.1026
28214W        W43345  12.439   5.668   3.842 -0.2387  0.2283 -0.3405
28215W        W43346  16.301   5.130   0.639  0.1197  0.0892  0.1299
28216W        W43347  18.028   0.143  14.062 -0.2618 -0.0582 -0.0796
28217W        W43348   9.814   4.817   4.795 -0.1914 -0.2905  0.0377
28218W        W43349  10.043   1.645   3.969  0.0627  0.0855  0.1657
28219W        W43350  11.463  13.168   0.344  0.0073  0.0108  0.1025
28220W        W43351  11.020  17.304  10.685  0.1203  0.0698  0.0679
28221W        W43352   3.067  15.802  10.696  0.0417  0.2586 -0.0530
28222W        W43353  14.636  15.979  15.855  0.0027  0.1874 -0.1785
28223W        W43354   4.227   0.290  14.670  0.0017  0.0598  0.0336
28224W        W43355   3.584   1.163   2.143 -0.0763  0.1472 -0.2038
28225W        W43356   3.719   9.112   3.261  0.0815  0.3180 -0.2877
28226W        W43357  14.969  17.217   2.991  0.2996 -0.2903  0.1512
28227W        W43358  12.794  12.478   9.769  0.1219  0.5126 -0.0436
28228W        W43359  15.095   4.885  12.789  0.0445  0.1792  0.1155
28229W        W43360  14.745   4.525  12.670  0.0632  0.1428  0.0429
28230W        W43361   0.302   5.542   2.211 -0.1282 -0.2054 -0.2596
28231W        W43362  15.085   9.095   4.606 -0.0018  0.5494  0.4605
28232W        W43363  17.680   7.688  12.203 -0.2061 -0.0443 -0.0648
28233W        W43364   4.945  13.531   3.819 -0.0392 -0.3132 -0.0359
28234W        W43365  18.467   8.695  12.135 -0.0488  0.1639  0.3817
28235W        W43366   2.669  10.277   0.524  0.0771 -0.1050  0.0356
28236W        W43367   4.365  15.310   2.551  0.0193  0.0701 -0.0124
28237W        W43368  12.180  16.816  13.323 -0.2681  0.1339  0.0710
28238W        W43369  15.611  17.109   3.665  0.3499  0.1322  0.1338
28239W        W43370  14.687  18.247   0.416  0.0607 -0.2056 -0.0511
28240W        W43371  11.696  16.336   1.418 -0.2344  0.0604 -0.1575
28241W        W43372  17.878   0.831  14.710  0.1482 -0.1485 -0.2231
28242W        W43373   8.185  17.112  14.951  0.0400  0.0158 -0.3412
28243W        W43374   6.691  14.384   9.980 -0.0388 -0.4546 -0.2704
28244W        W43375   6.963  13.565   4.782  0.2280  0.2236  0.0928
28245W        W43376   3.772  12.697  10.916 -0.2204 -0.1679  0.0815
28246W        W43377  17.240  18.026   3.574 -0.1556  0.2128 -0.1464
28247W        W43378   6.200   0.268   0.456 -0.0746 -0.0074  0.0611
28248W        W43379  13.416  13.537  14.060 -0.1315 -0.1164 -0.1298
28249W        W43380  16.710  10.162  14.346  0.0220 -0.1137  0.0448
28250W        W43381  15.665  12.653   1.445 -0.0897  0.3440  0.2891
28251W        W43382  13.418  11.875   5.063  0.1681  0.1108  0.0232
28252W        W43383  14.828   6.966   1.032 -0.1333 -0.1666 -0.1229
28253W        W43384   0.415  16.379   2.408 -0.0029  0.1875 -0.0657
28254W        W43385   7.547   7.823  15.550  0.1027  0.1503  0.2228
28255W        W43386   2.177  14.926   2.940  0.3075  0.1536 -0.0955
28256W        W43387   1.262   2.183   1.137  0.0897  0.1165  0.0385
28257W        W43388   2.518   8.335   3.824  0.1350 -0.0019 -0.3718
28258W        W43389  14.829   4.952  12.334  0.0298  0.0536 -0.0638
28259W        W43390   4.962   5.825   4.098 -0.1066 -0.0588  0.1996
28260W        W43391  14.435   7.659  15.009 -0.0090 -0.5283 -0.1525
28261W        W43392   4.979  13.030   0.942 -0.2689  0.0051  0.1075
28262W        W43393  17.107   1.012   1.249  0.2430 -0.1783  0.3914
28263W        W43394  10.420   0.497   0.827 -0.0654  0.2556 -0.1890
28264W        W43395  15.744   9.081  15.713 -0.2042  0.2326  0.2623
28265W        W43396  16.348  11.616   1.824 -0.0541 -0.3907  0.1280
28266W        W43397   4.226   4.161   2.712  0.2872  0.0732 -0.1686
28267W        W43398  17.117   1.906   3.142  0.1132  0.0574  0.0467
28268W        W43399   5.409  12.455   0.552  0.1080  0.3577 -0.1518
28269W        W43400   5.700   8.581   9.818  0.2247  0.1097  0.0823
28270W        W43401  14.423  18.151   4.196 -0.1623 -0.2740 -0.0975
28271W        W43402   1.118   0.330  12.096  0.1762 -0.0722 -0.0645
28272W        W43403   7.794   1.786   1.832  0.0393 -0.2535 -0.2410
28273W        W43404  16.091  14.937   0.186 -0.0136 -0.0770 -0.2412
28274W        W43405  17.130   4.321   2.579 -0.1564 -0.1914  0.0761
28275W        W43406  16.961   2.713   5.046 -0.1542 -0.1338  0.1375
28276W        W43407   6.545   0.562  14.684 -0.0490  0.0436  0.4859
28277W        W43408  12.568   4.973   5.519  0.1781 -0.0812  0.2224
28278W        W43409   0.376  11.079  12.913  0.0497 -0.0997 -0.3179
28279W        W43410  11.255  16.913   4.149 -0.1932 -0.2233 -0.0648
28280W        W43411   0.968  15.138  14.639 -0.2510 -0.0024  0.0972
28281W        W43412  14.295  13.744   1.584 -0.0684  0.0313 -0.1162
28282W        W43413   2.191   2.102  14.998  0.0393 -0.3087 -0.0153
28283W        W43414  15.190   9.320   4.029  0.0213 -0.0290  0.2817
28284W        W43415   6.008  13.476  13.003  0.0938  0.1533 -0.2418
28285W        W43416  15.044   1.905  14.891  0.2970 -0.2550  0.1552
28286W        W43417  12.655   9.312  10.426 -0.1309 -0.2160 -0.0116
28287W        W43418   8.333  12.458  13.559  0.2736  0.1130 -0.3777
28288W        W43419   8.550   9.624  11.684 -0.2545 -0.0639 -0.1529
28289W        W43420  17.795   4.041   5.162  0.3898  0.2959 -0.0024
28290W        W43421  14.083   3.828   4.768 -0.0700 -0.1600  0.0220
28291W        W43422  17.626  17.145   3.115  0.1532 -0.2117 -0.1601
28292W        W43423   9.650   1.176  15.386  0.2731 -0.0829 -0.1814
28293W        W43424  11.805  13.203  11.078 -0.0155  0.0244  0.3027
28294W        W43425   2.675   1.190  13.770 -0.0438 -0.1522 -0.2868
28295W        W43426   2.580  14.947  15.264  0.1445 -0.2804  0.1569
28296W        W43427   1.607   8.061  11.454  0.0752  0.0651 -0.1124
28297W        W43428   2.619   7.134   4.477  0.3433  0.2235  0.0441
28298W        W43429   4.476   6.968  12.383  0.0737 -0.0857 -0.0092
28299W        W43430  12.685   4.015   5.597  0.1308  0.0909 -0.0481
28300W        W43431   9.990   7.482  13.918  0.0412  0.3369 -0.4932
28301W        W43432  13.195  14.568   6.115  0.0986  0.1342 -0.0816
28302W        W43433   0.692  17.291   3.687  0.0879  0.2006  0.0295
28303W        W43434  18.160   4.386  11.344 -0.2201  0.2047 -0.0308
28304W        W43435   7.663   4.381   4.588 -0.0229 -0.1345  0.1775
28305W        W43436  12.075   9.283  13.854 -0.1402 -0.0300  0.1081
28306W        W43437   7.047   9.963   0.776  0.1960 -0.1028  0.1526
28307W        W43438  11.428  13.738  13.559  0.3814  0.1417 -0.1722
28308W        W43439  11.861   6.074  11.824 -0.1209  0.1224  0.3690
28309W        W43440   5.386  12.529  11.398  0.3312 -0.0678 -0.2129
28310W        W43441  10.499   1.462   1.821  0.0055  0.1773  0.0190
28311W        W43442  17.357  10.079  15.256 -0.2780  0.1239 -0.2785
28312W        W43443   2.303   2.283  14.470  0.2806 -0.3502 -0.1981
28313W        W43444   4.647   2.352  15.612  0.1420  0.2813 -0.0555
28314W        W43445   6.616  17.724   0.108 -0.0747  0.2549  0.1623
28315W        W43446  18.515   0.204   1.924  0.0964 -0.1692 -0.1060
28316W        W43447   6.298   1.014  15.767  0.3365  0.1801 -0.2171
28317W        W43448   8.341   1.728   2.576  0.0739 -0.1009  0.2008
28318W        W43449   3.195   2.176   1.051  0.2076 -0.2241  0.0482
28319W        W43450  15.233  12.777   3.874  0.2243  0.1161  0.2439
28320W        W43451  16.107   7.953   1.762 -0.0095  0.2963 -0.1246
28321W        W43452   1.031  13.669  14.450  0.4155  0.0830 -0.2197
28322W        W43453   4.829  18.264   0.050  0.0434 -0.1231  0.0996
28323W        W43454   6.809   1.644  15.821 -0.1396  0.1490 -0.2605
28324W        W43455  13.206  16.180   1.929 -0.2815  0.0162 -0.0250
28325W        W43456   9.929   6.520   1.838 -0.2371 -0.1007 -0.0391
28326W        W43457  15.217   1.320  14.087 -0.0171 -0.2369 -0.1236
28327W        W43458   2.969   7.471   2.956  0.1371  0.2229  0.0385
28328W        W43459   7.716  12.045   2.082  0.1411 -0.1826  0.2728
28329W        W43460   7.594  10.767  14.280  0.0494 -0.1646 -0.4075
28330W        W43461   2.861   1.764  11.248  0.0246  0.1427 -0.1879
28331W        W43462   9.261  15.024   4.870  0.2048 -0.0825 -0.0278
28332W        W43463   7.342  14.121  15.512  0.2573 -0.0089 -0.0511
28333W        W43464   3.135   1.766   1.811 -0.2429 -0.0652  0.1398
28334W        W43465   6.172   2.296   2.154 -0.0005 -0.0757 -0.0078
28335W        W43466  15.820  16.883   0.938  0.3874  0.5394 -0.0644
28336W        W43467  16.688  13.944  14.964  0.2386 -0.2402 -0.0206
28337W        W43468   1.790   9.357   2.320 -0.0360 -0.1381  0.0124
28338W        W43469   7.832   2.029  11.719 -0.0135  0.3729 -0.0724
28339W        W43470  16.219   3.847  10.760  0.2357  0.2854  0.0151
28340W        W43471  17.432   7.350   5.328 -0.2102  0.2217 -0.1221
28341W        W43472  14.787   7.186  10.766 -0.0645 -0.0422  0.1195
28342W        W43473  16.264   9.937   5.016  0.0631 -0.0187  0.0699
28343W        W43474  10.879  13.266   4.235 -0.1875  0.1412 -0.0667
28344W        W43475   7.594   9.424  12.799 -0.2364 -0.0228 -0.3965
28345W        W43476  12.455   2.084   1.711  0.1352 -0.2238 -0.2109
28346W        W43477   4.359   9.978   5.417  0.1505  0.2159 -0.2500
28347W        W43478  15.477   9.320   3.624  0.0841  0.0569  0.0396
28348W        W43479  18.521  15.007  12.754 -0.1446  0.1770 -0.1819
28349W        W43480  13.868   2.279   2.609  0.0243 -0.0266 -0.0501
28350W        W43481  11.421   8.605  11.734 -0.2609  0.1151 -0.1526
28351W        W43482  10.601   0.129   3.187 -0.3149 -0.3244  0.2902
28352W        W43483  12.951  18.077  11.963  0.0802 -0.0228 -0.1717
28353W        W43484  16.409   5.167  11.852  0.1346  0.3053 -0.0345
28354W        W43485   5.603  14.683   4.631 -0.1488 -0.1027 -0.1068
28355W        W43486   1.974  17.448   3.318  0.2691  0.1594 -0.5506
28356W        W43487  11.566  11.057  11.485 -0.0981  0.2799 -0.2854
28357W        W43488  16.801   7.904  15.179 -0.1974 -0.2795  0.2851
28358W        W43489  12.305   1.587  14.479 -0.1638  0.1545 -0.0985
28359W        W43490  13.476  10.367   0.690 -0.0804 -0.3045 -0.0797
28360W        W43491   3.170  11.095  10.998 -0.3003  0.0806 -0.1304
28361W        W43492  14.872  18.114  15.390  0.2273  0.4867  0.2000
28362W        W43493   9.670  12.263   4.047  0.0290  0.3814 -0.0238
28363W        W43494  10.116  11.478   1.582 -0.2699  0.0490  0.0034
28364W        W43495  17.264  11.384   2.893  0.0681 -0.2105 -0.0462
28365W        W43496  11.090   5.906  10.878  0.3115 -0.1218  0.0069
28366W        W43497   1.412  16.689   4.449 -0.2305 -0.1230  0.0873
28367W        W43498   7.435  18.084  13.591 -0.0788 -0.0756  0.3284
28368W        W43499   5.976   3.134  14.090 -0.1979  0.3679  0.0493
28369W        W43500   5.457   5.093   1.986 -0.2157  0.1442  0.0636
28370W        W43501  16.082   5.241   0.115  0.2291 -0.5361 -0.2830
28371W        W43502   0.475  11.387  15.419  0.5195  0.1596  0.3846
28372W        W43503   4.758  18.218  13.703  0.1838 -0.0110  0.0217
28373W        W43504  18.450   3.757  13.981  0.4578 -0.2051  0.0408
28374W        W43505  18.046   3.736   2.487  0.1846 -0.2685  0.1842
28375W        W43506   1.054   6.422  13.583  0.1010 -0.0362 -0.0898
28376W        W43507  14.962   5.530  10.628 -0.0729 -0.0357 -0.0583
28377W        W43508   7.780   3.585   3.553 -0.2058  0.0034  0.0817
28378W        W43509   4.820  17.052  12.678  0.3223 -0.2809  0.0327
28379W        W43510  10.862  12.871  10.870 -0.1081  0.2212  0.1160
28380W        W43511   8.157   7.918   2.846 -0.0270  0.0501 -0.2466
28381W        W43512  17.376   0.647   3.241  0.3237  0.0744  0.1288
28382W        W43513   8.174   9.543   2.544  0.1912 -0.1301  0.0165
28383W        W43514  12.468  11.679   0.796  0.1542 -0.2269 -0.2081
28384W        W43515   5.414  14.868   2.910 -0.1575 -0.3227  0.1977
28385W        W43516  15.261  17.553  13.641 -0.2420  0.1636 -0.0223
28386W        W43517   4.022   4.905   3.062 -0.0460 -0.3073 -0.1978
28387W        W43518  11.001   8.240  15.643  0.2239 -0.1738  0.2353
28388W        W43519   7.258   3.079  15.305 -0.2004  0.0190  0.1320
28389W        W43520  15.731  16.178  11.756  0.2790 -0.0189 -0.0379
28390W        W43521  13.775   8.090   4.483  0.1650 -0.0299  0.0348
28391W        W43522  18.092   3.417  12.825  0.0706  0.2773 -0.0112
28392W        W43523  12.604   1.972   5.144 -0.1278  0.1749  0.1658
28393W        W43524  15.727   4.906   2.462 -0.3581  0.0023 -0.1934
28394W        W43525  17.602   1.382  13.661  0.2374  0.0116  0.1589
28395W        W43526   1.993   7.986   5.582  0.2523  0.0307  0.3297
28396W        W43527  12.250   5.181   4.110  0.3372 -0.1166 -0.0207
28397W        W43528   3.153  16.684   2.504 -0.3084 -0.2574 -0.0354
28398W        W43529   6.207  14.045  13.204 -0.2548 -0.0432 -0.2867
28399W        W43530   4.385  13.913   9.978 -0.1553 -0.0447 -0.2041
28400W        W43531   1.586  14.151   1.805 -0.1659  0.0355 -0.0432
28401W        W43532   7.730  12.402  14.149 -0.1004  0.0417  0.1528
28402W        W43533  18.519  11.266  13.491  0.0197  0.0764  0.0756
28403W        W43534   4.555   2.631  10.971  0.0550 -0.2919  0.0406
28404W        W43535   7.666   2.848  15.419 -0.3658  0.0331  0.1121
28405W        W43536  15.101  18.387   3.518  0.1982 -0.1358 -0.2510
28406W        W43537   1.771  17.243   5.125 -0.1923  0.3365 -0.5988
28407W        W43538  10.318  15.856   3.684  0.2904 -0.1624 -0.2521
28408W        W43539  17.526  10.213   4.527 -0.0268 -0.0696 -0.1126
28409W        W43540   2.192   1.915  15.474 -0.1434 -0.2205  0.0522
28410W        W43541  10.971  11.402  12.209 -0.2248  0.1320  0.0758
28411W        W43542   6.959   0.783  12.323  0.3846 -0.0670 -0.2631
28412W        W43543  13.149   6.947  10.187  0.2112 -0.0010 -0.0465
28413W        W43544   5.692  13.289  15.270 -0.0640 -0.4853  0.0597
28414W        W43545  13.608   8.637   1.981  0.1474 -0.0611 -0.0106
28415W        W43546   3.070  13.220  13.042  0.1118  0.0253  0.0996
28416W        W43547   5.174  13.447   2.702 -0.0498 -0.1180  0.1576
28417W        W43548  18.429  13.115   0.994 -0.0415 -0.0638 -0.2874
28418W        W43549   1.747   8.411   3.043 -0.0364  0.2129  0.0467
28419W        W43550   3.196  11.751   2.941  0.1306  0.1148 -0.0666
28420W        W43551   4.757   6.888   4.663 -0.3779 -0.1340  0.1351
28421W        W43552  15.694   3.312  12.159  0.1794 -0.0213 -0.1871
28422W        W43553   7.772  14.423  13.827 -0.3596  0.0543 -0.0348
28423W        W43554   2.609  10.368   5.196  0.2444 -0.1141  0.0754
28424W        W43555   5.724   7.611  12.727  0.4378  0.1033  0.1016
28425W        W43556   7.044  14.655  15.575  0.1578  0.1700  0.0607
28426W        W43557  13.467  13.909   3.131 -0.1370 -0.0952  0.3972
28427W        W43558   7.503  15.251  11.609  0.2974  0.0989  0.2704
28428W        W43559  11.036   3.794  11.415  0.4711 -0.0040  0.0442
28429W        W43560  16.759  11.559   4.629 -0.2704  0.2298 -0.2397
28430W        W43561   3.362   7.246  13.618 -0.0215 -0.0807  0.0096
28431W        W43562  15.969   5.818   2.278 -0.0770 -0.2411 -0.2362
28432W        W43563  14.539  13.379  14.566 -0.0555  0.0414  0.1706
28433W        W43564  10.118  17.242  10.996 -0.2348 -0.0719 -0.3295
28434W        W43565  11.677   7.084   1.153  0.0746  0.0772 -0.1877
28435W        W43566   2.720  12.120   0.642 -0.1780  0.4327  0.1631
28436W        W43567  15.323  16.602   3.546  0.0171  0.1613 -0.2646
28437W        W43568  18.487   4.764   1.564 -0.3074  0.0043  0.1246
28438W        W43569   9.669  11.153   4.840 -0.2185 -0.0034 -0.3002
28439W        W43570   8.849  10.643  15.159  0.1494 -0.1005 -0.2186
28440W        W43571   6.111   5.774  13.957  0.3396 -0.2361 -0.1508
28441W        W43572  17.271   8.575  11.392 -0.1725 -0.2646 -0.1825
28442W        W43573   2.859  11.723   5.594  0.0792  0.1841 -0.1257
28443W        W43574  16.347  14.722  14.279  0.5328 -0.0709  0.1695
28444W        W43575  17.274  15.596   1.979  0.2148 -0.0893 -0.0064
28445W        W43576   5.292  17.252  12.853 -0.0740 -0.2680  0.0122
28446W        W43577   7.041  11.256   0.630 -0.0426  0.0874 -0.2514
28447W        W43578  11.954  15.035   5.118  0.3392  0.0505 -0.2222
28448W        W43579   8.696   9.238  13.375 -0.1655  0.0788  0.1231
28449W        W43580   2.200   6.379  14.810  0.0567 -0.2524 -0.0865
28450W        W43581  17.118  12.460   3.168 -0.1787  0.0466 -0.0392
28451W        W43582  15.899   6.055   5.588 -0.0159 -0.1192 -0.0160
28452W        W43583  12.404  15.310  14.823  0.2151  0.1620  0.3783
28453W        W43584   1.140   6.848  13.314  0.0588 -0.0687 -0.0231
28454W        W43585  10.206   6.272  15.279 -0.0578  0.0099 -0.2999
28455W        W43586   8.352  14.547  13.931 -0.0017  0.1616 -0.1789
28456W        W43587  17.551   3.577   5.753  0.2100  0.0701 -0.2384
28457W        W43588   1.445   3.134   4.527  0.0774 -0.0942  0.3671
28458W        W43589   0.928   3.309   4.530  0.0690 -0.0337 -0.1086
28459W        W43590  10.978  13.362  12.213  0.2561  0.0513  0.2119
28460W        W43591  15.623  17.866   2.898 -0.1544  0.0596 -0.2664
28461W        W43592   4.660   7.461  10.336  0.3031 -0.1755 -0.2713
28462W        W43593   7.761  10.165  13.731  0.1267  0.0328 -0.1978
28463W        W43594  17.109  17.944   1.172 -0.0792  0.3724  0.0322
28464W        W43595   4.609  17.149  14.858  0.0793  0.0818  0.2334
28465W        W43596  16.991  14.255   1.245  0.2283  0.1232  0.3473
28466W        W43597  18.507   8.303  14.550 -0.1985  0.1789 -0.0655
28467W        W43598  17.023   9.130   0.730  0.1715 -0.2075  0.1285
28468W        W43599  11.488  18.047   1.660  0.0744 -0.2320 -0.1661
28469W        W43600   4.603  14.810  11.642  0.0507  0.1496  0.1503
28470W        W43601  16.726   6.957  12.226 -0.0490 -0.0302 -0.2808
28471W        W43602   0.377   3.864  10.268 -0.0287 -0.3683  0.0860
28472W        W43603   5.337   4.160  15.754 -0.2087 -0.0559 -0.0450
28473W        W43604   1.286   6.702   1.978  0.1947 -0.0814  0.3100
28474W        W43605   2.114   7.693   4.597 -0.0243  0.0801 -0.4223
28475W        W43606  17.806   7.672   0.700  0.3208  0.2930 -0.0783
28476W        W43607   4.273   2.253   1.563  0.0403 -0.1402  0.0984
28477W        W43608  18.294  12.983  11.824 -0.1557  0.0341 -0.0162
28478W        W43609  14.546  14.223  14.474  0.1408 -0.3171 -0.2278
28479W        W43610   7.901   5.693  11.969 -0.0252  0.4058  0.1228
28480W        W43611   3.047  14.777  14.722 -0.1287 -0.0719  0.1265
28481W        W43612   0.842  13.870   3.903 -0.0496  0.0632 -0.0878
28482W        W43613  11.071  14.194   2.223 -0.2296  0.0297  0.0731
28483W        W43614   8.699  13.478   0.218 -0.0791 -0.2404 -0.1143
28484W        W43615   1.651   1.307   3.692 -0.2245 -0.0286 -0.1171
28485W        W43616   0.106  15.717  13.283  0.1458  0.0716 -0.1751
28486W        W43617  11.176   3.558  14.172  0.1914  0.0314 -0.0978
28487W        W43618  12.387   6.665   0.648  0.3809  0.1479 -0.1676
28488W        W43619   7.537  13.149  15.161 -0.0645 -0.2771 -0.0190
28489W        W43620  18.280  17.846   4.759  0.0201  0.4886 -0.2572
28490W        W43621   4.751   3.758  13.848  0.0072  0.1764 -0.1899
28491W        W43622  14.103   0.917  11.480 -0.1650  0.1365 -0.2210
28492W        W43623  10.574  10.768   5.162 -0.1327  0.0823  0.2302
28493W        W43624  14.171   3.998   4.282 -0.1467 -0.0241 -0.3316
28494W        W43625   6.235   7.401  11.885  0.2961 -0.4458 -0.1044
28495W        W43626   0.099   8.863   2.929 -0.0634 -0.2219  0.1321
28496W        W43627   8.143   5.128   0.561 -0.1231  0.0466  0.2520
28497W        W43628   8.057   6.164   0.489  0.1121  0.2478 -0.0270
28498W        W43629  12.964   4.509   4.201 -0.0808  0.0149 -0.0073
28499W        W43630  10.815  15.691   3.889  0.3447  0.1445  0.1327
28500W        W43631  18.167  14.589  14.784  0.1493  0.2094  0.1884
28501W        W43632   8.085  12.918   0.675 -0.1422 -0.1998 -0.0390
28502W        W43633  16.158  15.144  14.455 -0.0701  0.1667  0.2031
28503W        W43634   5.510  14.895   4.027  0.0304 -0.2676 -0.0861
28504W        W43635  13.010   5.793  11.418  0.0006 -0.1955  0.0269
28505W        W43636   4.954   4.359   1.524 -0.2668 -0.0151  0.0168
28506W        W43637  11.416  17.398  12.139  0.1507  0.1290 -0.3484
28507W        W43638   4.700  10.966   0.522 -0.0062 -0.0100 -0.2935
28508W        W43639   4.711   2.549   5.247  0.1940 -0.1327  0.4006
28509W        W43640   9.269  12.375  12.029  0.1626  0.0047 -0.0341
28510W        W43641   6.074  13.673   5.212 -0.0150  0.2603 -0.1951
28511W        W43642  18.361  12.980  13.981 -0.3085 -0.0418  0.1254
28512W        W43643  16.160   4.460  13.622 -0.1244 -0.0841 -0.0328
28513W        W43644  15.269   0.686   2.077  0.1479  0.1280 -0.0583
28514W        W43645  11.974  14.865  10.511  0.0743 -0.0354 -0.0735
28515W        W43646  10.173   9.446  14.701  0.0095 -0.2181  0.1153
28516W        W43647   4.952  10.792  15.535  0.0243 -0.1060  0.3357
28517W        W43648   8.849   1.944  13.509 -0.4035 -0.1055  0.2812
28518W        W43649   3.473   8.081   4.616  0.0066 -0.0810  0.1536
28519W        W43650  13.656   6.845   4.398 -0.0564 -0.2707 -0.1911
28520W        W43651   1.835   0.472  15.221 -0.3261 -0.4117  0.2494
28521W        W43652   5.368   7.687   9.913 -0.1747  0.3744  0.1532
28522W        W43653   3.931   1.575   4.045  0.2957  0.0315 -0.4276
28523W        W43654  11.627  10.542  10.245  0.3076 -0.2742 -0.1127
28524W        W43655   6.503  12.216   0.869 -0.4547 -0.4259  0.3936
28525W        W43656  17.129   0.864  13.781  0.2645 -0.2020  0.0182
28526W        W43657   1.408  13.427  13.023  0.1613  0.2663  0.1237
28527W        W43658   9.843  17.180   1.112 -0.3566 -0.1980  0.2131
28528W        W43659   6.132  14.947  15.853 -0.3040 -0.0211 -0.0230
28529W        W43660  13.397  17.680   2.769 -0.2570  0.2507 -0.1212
28530W        W43661   9.307   4.126   0.512  0.2827 -0.1054  0.1441
28531W        W43662  15.990   6.286  13.124  0.3768  0.0542  0.2216
28532W        W43663   7.428  12.439  11.536 -0.1401  0.1937 -0.1298
28533W        W43664  15.957   2.930   1.888  0.1222  0.0775 -0.0518
28534W        W43665   2.985  11.226   1.384 -0.1185 -0.0526  0.0253
28535W        W43666  18.363  14.109   0.145 -0.3055 -0.0967 -0.2760
28536W        W43667  11.240  12.366  10.215  0.3212  0.1158 -0.1923
28537W        W43668   1.931   3.555  11.728 -0.0899  0.1703  0.3309
28538W        W43669  16.127  15.438   5.349  0.1289 -0.1995 -0.2512
28539W        W43670   6.182   7.549   2.289 -0.1213  0.5511  0.0547
28540W        W43671   5.768  18.315   0.501 -0.1294 -0.3557  0.0653
28541W        W43672   0.370   1.371   2.152 -0.3483 -0.3306 -0.0567
28542W        W43673  17.955   2.031   2.053 -0.1121 -0.1394 -0.1845
28543W        W43674   3.158   2.920  11.246 -0.3023 -0.0897 -0.0048
28544W        W43675   4.589   7.846  11.946  0.0370  0.1565  0.0720
28545W        W43676  12.744  12.328  11.104  0.1927 -0.2677  0.0135
28546W        W43677   1.029  13.775   3.454 -0.1128 -0.2063 -0.1437
28547W        W43678   0.076  15.693   1.638 -0.2698  0.1342  0.3152
28548W        W43679  10.252   8.172   5.263  0.2622  0.1344  0.0483
28549W        W43680   2.064  14.023  12.407  0.4191  0.1039  0.0790
28550W        W43681   6.880  14.176   0.922 -0.0710  0.3334  0.1552
28551W        W43682  14.953   1.710  15.731  0.3740 -0.0677  0.0367
28552W        W43683  14.645   0.937   0.868 -0.0700  0.0686  0.0965
28553W        W43684   0.743   8.211  14.696  0.1601  0.4652  0.1281
28554W        W43685  11.896   2.294   2.384 -0.3410  0.3532 -0.0591
28555W        W43686   0.921  18.078   2.679 -0.3321  0.0463  0.3252
28556W        W43687  11.022   2.766   3.397 -0.0835 -0.1980  0.5767
28557W        W43688  11.768   2.809   1.405  0.0835  0.1256 -0.0556
28558W        W43689  16.611   0.294  13.599 -0.1311 -0.1216  0.1787
28559W        W43690   1.918   5.861   0.583  0.2544  0.0836 -0.2061
28560W        W43691   6.001  14.754  11.505  0.0234 -0.0950 -0.2788
28561W        W43692  16.202   9.422  13.335  0.2177  0.3604 -0.0834
28562W        W43693  18.064   1.845   5.577 -0.3325 -0.2512  0.1850
28563W        W43694  15.675  15.508  11.882  0.0992  0.0944  0.1343
28564W        W43695   8.733   7.589   0.570 -0.1021  0.3234  0.1124
28565W        W43696   9.083  14.352   2.060 -0.0583 -0.2774  0.0896
28566W        W43697   3.374  12.915   6.140  0.2001  0.1699  0.0726
28567W        W43698  14.703   6.902   4.518 -0.1417  0.3936 -0.1779
28568W        W43699  10.178   0.572   5.085 -0.2604  0.0952 -0.3451
28569W        W43700  12.545   4.364  11.062 -0.0100  0.0311 -0.1246
28570W        W43701  17.314   6.280   3.632 -0.0392 -0.0569 -0.1180
28571W        W43702  15.555   4.739  12.738  0.2634  0.1100  0.1811
28572W        W43703  11.060   1.709   4.689 -0.2692 -0.0341  0.2227
28573W        W43704   8.347   3.279  10.220 -0.2411  0.3522  0.3482
28574W        W43705   3.607   9.486  15.091 -0.0274 -0.1868  0.2259
28575W        W43706   7.747  11.609   3.795  0.1803 -0.0677 -0.1050
28576W        W43707   0.867  13.794  11.824 -0.3282  0.0761 -0.0072
28577W        W43708   6.443   9.212   5.145  0.0100 -0.0941  0.0387
28578W        W43709   8.446   8.310   2.870  0.0152  0.2309 -0.2491
28579W        W43710   5.928  17.292   3.645 -0.2804 -0.1407 -0.1795
28580W        W43711  11.670   8.358  11.171  0.0429  0.2639 -0.1335
28581W        W43712   8.915   3.445   5.542  0.2796 -0.3228 -0.1665
28582W        W43713   6.625  12.615  11.894  0.1378 -0.1944 -0.1396
28583W        W43714   5.481   0.044  12.833 -0.0950  0.1052 -0.0775
28584W        W43715   3.636  18.452  11.405  0.3913 -0.1199 -0.4147
28585W        W43716   5.917  10.703   2.531  0.1692  0.0882  0.0538
28586W        W43717   6.027  16.944   3.324 -0.0656 -0.2918 -0.0239
28587W        W43718   0.801   9.899   4.277 -0.0651  0.1086  0.2066
28588W        W43719   5.074   6.680   0.946 -0.1473  0.0700  0.0661
28589W        W43720   8.586  12.210  10.584  0.2528 -0.1230 -0.2460
28590W        W43721   9.176   6.593   2.457  0.3262 -0.2468 -0.0100
28591W        W43722   5.706   5.698  15.707  0.0052 -0.2150 -0.0769
28592W        W43723   5.171   3.657   0.845  0.2962 -0.0530  0.1004
28593W        W43724   7.015   7.246  12.299  0.2007 -0.1112 -0.0218
28594W        W43725   2.888   6.898  14.852 -0.1710 -0.3014  0.1685
28595W        W43726   5.250   8.906  13.609  0.2743  0.3341 -0.2401
28596W        W43727   2.844   9.429   0.586  0.0336 -0.0676  0.3794
28597W        W43728  15.687   1.519   2.899 -0.2448  0.4913  0.0614
28598W        W43729  12.475   7.527   0.780 -0.1066  0.0364 -0.0938
28599W        W43730   6.805   6.671   3.535 -0.1210 -0.0100  0.3781
28600W        W43731  15.775  15.756   5.610 -0.2950  0.0257  0.0979
28601W        W43732  17.190  11.756   3.206 -0.2208  0.0106  0.0887
28602W        W43733   7.872   6.515   3.271 -0.1135 -0.3349  0.0661
28603W        W43734  11.944   0.728   1.659  0.0326  0.0468  0.1770
28604W        W43735  17.925   8.142   1.572  0.3685 -0.1730 -0.0467
28605W        W43736  15.012   1.034   1.863 -0.0951  0.2574 -0.0071
28606W        W43737  13.752   0.033  11.708  0.1176  0.0730 -0.1563
28607W        W43738  13.184   0.144  10.738  0.1372 -0.1102 -0.0124
28608W        W43739   3.562   9.514  12.070 -0.0833 -0.1221  0.0743
28609W        W43740   0.400  14.160  13.842  0.0099 -0.1215 -0.1399
28610W        W43741   7.757  15.446  14.824 -0.1228 -0.0646 -0.0641
28611W        W43742  12.598   3.690  12.272 -0.2618  0.2367  0.2939
28612W        W43743  18.001  13.561  13.182 -0.1918 -0.0336 -0.0263
28613W        W43744  17.111   4.816  11.241 -0.1690 -0.0730  0.3497
28614W        W43745   2.995   9.175   1.906  0.1229 -0.1111 -0.0371
28615W        W43746   8.749   1.475   3.375  0.2754 -0.2645 -0.0613
28616W        W43747  11.677   4.737   5.101  0.0856 -0.2693  0.1709
28617W        W43748   9.161  15.826   1.275 -0.0474 -0.2710 -0.0263
28618W        W43749   4.094  10.001   3.021  0.1661  0.1606  0.0042
28619W        W43750   4.467   7.292  11.939  0.1379  0.0700 -0.0364
28620W        W43751   0.725   4.101  10.515  0.1285  0.0728 -0.2493
28621W        W43752  16.294  10.884  10.589 -0.0213 -0.0629  0.1210
28622W        W43753  11.118   0.328  14.905 -0.2021 -0.1775 -0.0836
28623W        W43754  10.977   3.195   2.254  0.2869  0.4357  0.1843
28624W        W43755  13.134  17.395  12.281  0.0543 -0.1708 -0.1860
28625W        W43756   5.192  15.626   1.249 -0.0932  0.3504 -0.0133
28626W        W43757   1.537   8.845   3.082 -0.0925 -0.0021 -0.0250
28627W        W43758  17.057  18.064  13.807 -0.2086  0.0236 -0.0694
28628W        W43759   8.269  14.144  11.060 -0.2187  0.3200  0.1585
28629W        W43760   3.125  16.663  15.025 -0.2344 -0.0801  0.0863
28630W        W43761   9.847  12.318  15.296  0.0865 -0.0996 -0.2708
28631W        W43762   8.671  15.852   3.296  0.0491 -0.2584  0.2457
28632W        W43763  17.577  17.708   3.167  0.2352 -0.0989 -0.2900
28633W        W43764   5.989   4.132   2.941 -0.1862  0.0604 -0.0888
28634W        W43765   4.264  11.426   1.177  0.0087 -0.0363  0.0915
28635W        W43766   2.217  12.627   4.586  0.1282  0.0336  0.3532
28636W        W43767  17.037  12.943   3.683  0.2150  0.0540  0.4171
28637W        W43768  12.150  10.763  11.886 -0.1317 -0.0905  0.2436
28638W        W43769  11.609  18.465   3.943  0.2125  0.0323 -0.0601
28639W        W43770   5.484   8.067  12.972  0.0158 -0.1193  0.2306
28640W        W43771  17.367  17.071  13.677  0.1573 -0.0386  0.1316
28641W        W43772   0.722  13.037  14.514  0.0164 -0.1284  0.0368
28642W        W43773  17.779  18.438  11.141  0.2634 -0.0005  0.1356
28643W        W43774   8.012   1.381   0.773 -0.1927  0.2090 -0.0552
28644W        W43775  13.723  13.626  10.177  0.3159  0.0205 -0.1307
28645W        W43776   4.032   2.327   0.721  0.2559 -0.0802  0.2638
28646W        W43777  14.747  11.526   1.577  0.0059  0.2103 -0.2710
28647W        W43778   9.768  13.876  11.860  0.1893  0.0067 -0.1326
28648W        W43779  18.429  13.321  15.001  0.1914  0.1146 -0.4278
28649W        W43780  17.336  18.421   3.941 -0.1846 -0.0353 -0.1813
28650W        W43781  14.937  10.555   9.796  0.0220 -0.0969 -0.2727
28651W        W43782   9.638   0.460  14.033  0.1784  0.0290 -0.0871
28652W        W43783   6.392   8.843   3.986 -0.1892 -0.0823 -0.0357
28653W        W43784   4.465  13.473   3.946 -0.0187 -0.2430 -0.1145
28654W        W43785  16.046  17.794   2.473  0.0643  0.0167 -0.2429
28655W        W43786  12.860  10.098   4.754  0.1176  0.1080 -0.1977
28656W        W43787  17.804  17.872  11.983  0.0876 -0.0105 -0.1398
28657W        W43788   4.352   6.779   3.762 -0.2393  0.0156 -0.0483
28658W        W43789  14.675   9.201  14.349 -0.0229  0.0891  0.1787
28659W        W43790   0.398  12.972   4.903 -0.5178 -0.0827  0.1041
28660W        W43791   1.158  10.117   0.220  0.4667 -0.0587  0.1374
28661W        W43792  16.694  16.513  12.595  0.0596  0.0409  0.1155
28662W        W43793  12.884  12.292   4.206  0.1952 -0.0828  0.0180
28663W        W43794   6.212  15.633  12.224  0.2027  0.2095  0.0856
28664W        W43795  15.134  18.508  14.304  0.1308  0.1285 -0.2613
28665W        W43796  14.718   6.847  11.246  0.3074 -0.0057  0.1005
28666W        W43797  17.354  11.357  12.772  0.0535 -0.0275 -0.0851
28667W        W43798   6.225   3.611  12.157 -0.4702 -0.2654  0.0436
28668W        W43799  15.730  15.140   0.915  0.0399 -0.2370 -0.1494
28669W        W43800  13.412  16.896   5.714 -0.0125  0.1585 -0.2745
28670W        W43801  14.023  15.806   3.754 -0.1053 -0.0540 -0.2174
28671W        W43802   4.658   7.163  13.623 -0.3218 -0.2447 -0.3176
28672W        W43803   5.560  16.320  10.524 -0.0556 -0.1861 -0.2070
28673W        W43804   3.482   6.184  11.637 -0.0519 -0.2164 -0.1918
28674W        W43805   8.864  15.801  13.075  0.6076 -0.1767  0.2753
28675W        W43806   9.600   5.198  11.982  0.1648  0.0662  0.3294
28676W        W43807  16.451   7.360   3.556 -0.0875  0.1160 -0.0550
28677W        W43808   3.664   1.692  11.969 -0.2476  0.1262 -0.1194
28678W        W43809   2.526   4.883  11.818 -0.2033 -0.1545 -0.0609
28679W        W43810  13.620  17.653   5.188  0.4223 -0.1559 -0.2600
28680W        W43811  14.660  15.433   0.009 -0.2026  0.0486  0.1490
28681W        W43812   9.347   8.383   3.253 -0.1417  0.2240  0.3591
28682W        W43813   5.960   1.614   3.128 -0.3738 -0.1121  0.0376
28683W        W43814   1.174  10.224  11.183 -0.1302  0.2125  0.0507
28684W        W43815   1.195  12.556  15.144 -0.2352 -0.3163 -0.0558
28685W        W43816  16.611  10.150  15.317 -0.0214  0.2322 -0.0370
28686W        W43817   8.369   6.385   4.333  0.0560 -0.3489 -0.0612
28687W        W43818  17.523   3.399  11.104  0.1752 -0.1676 -0.0324
28688W        W43819   9.819   8.132   0.998 -0.0024 -0.1651  0.0730
28689W        W43820   4.228  10.753   3.429  0.0379  0.0718 -0.2605
28690W        W43821   1.047  11.897   5.184 -0.0764  0.0098  0.1808
28691W        W43822  12.496   2.679  15.605  0.0597 -0.2049 -0.1106
28692W        W43823  15.790  12.262   9.311  0.0116 -0.2013  0.1235
28693W        W43824   0.780   8.210  12.976 -0.0683 -0.1803 -0.2048
28694W        W43825  17.921  16.909   5.390 -0.0826 -0.0147 -0.0123
28695W        W43826   7.329   6.722   5.096 -0.1278  0.2477  0.2681
28696W        W43827  13.623  15.929  15.798 -0.1429  0.3579 -0.3338
28697W        W43828  15.734   7.984  13.792 -0.0898  0.1007  0.2023
28698W        W43829   0.575  15.621   3.507 -0.1294 -0.2018  0.0669
28699W        W43830  13.062   1.772  14.234 -0.4560  0.0285 -0.1032
28700W        W43831  13.516  12.245   2.164 -0.0166 -0.1391  0.2575
28701W        W43832   1.172  13.292   2.102 -0.0814 -0.0439  0.0505
28702W        W43833   3.869  15.195   4.501 -0.3127  0.0299  0.0487
28703W        W43834   4.513   6.424  13.263  0.2093 -0.1212  0.3294
28704W        W43835   8.338   6.436  10.691  0.1433  0.0254 -0.0377
28705W        W43836   6.808   0.629  14.202 -0.2026 -0.0821  0.4624
28706W        W43837   2.209   0.455  10.714 -0.1216  0.0377 -0.0597
28707W        W43838   9.632   0.108  11.936 -0.1742 -0.0112 -0.1579
28708W        W43839   9.429   5.865  11.039  0.1906  0.4570  0.0549
28709W        W43840  14.857  16.883  14.267  0.0441  0.3265 -0.0128
28710W        W43841   0.083  16.990   0.191  0.2178  0.4634 -0.1084
28711W        W43842  11.883   9.170  14.827 -0.1848 -0.1686 -0.1390
28712W        W43843  17.805  17.282  12.115 -0.1318 -0.1265 -0.1547
28713W        W43844   4.923  12.541   0.256  0.1004  0.2007  0.0771
28714W        W43845   8.904  10.218  12.940 -0.1512  0.0446  0.0478
28715W        W43846  15.656  17.797  13.748  0.2669  0.1225 -0.2469
28716W        W43847   9.532   6.001  13.559  0.0854 -0.2582  0.3369
28717W        W43848   0.993  14.362   2.996 -0.0553  0.1893 -0.3382
28718W        W43849  14.352  16.941   1.373  0.0453 -0.1437  0.1876
28719W        W43850   2.952   6.680  12.815  0.0982  0.0158 -0.0334
28720W        W43851  13.439   8.530   0.230  0.1094  0.0257  0.0430
28721W        W43852   4.616   8.914   0.918  0.1747  0.3392  0.3168
28722W        W43853   0.774   7.533  15.451  0.1577  0.0517  0.0409
28723W        W43854  12.478   3.623   2.326  0.1703  0.0413  0.0115
28724W        W43855   1.894   1.191   2.513  0.2065 -0.3246  0.1592
28725W        W43856   3.455   4.769   4.839 -0.0195 -0.1417 -0.0660
28726W        W43857  13.622  15.662  12.624  0.0707 -0.1433 -0.1213
28727W        W43858  10.060   1.238  12.256 -0.1498  0.0784 -0.2146
28728W        W43859   7.951  16.307  12.461  0.2278  0.1027  0.0614
28729W        W43860   1.409  11.051   4.936  0.0156 -0.2192  0.3238
28730W        W43861   4.470   9.115  14.700 -0.0718  0.2148  0.3979
28731W        W43862   2.706   4.082   2.957  0.0226  0.3211 -0.2449
28732W        W43863   5.182   6.868  15.460  0.0002 -0.1767  0.0782
28733W        W43864  11.942   3.207   0.824  0.0629 -0.1309 -0.0324
28734W        W43865   0.365  14.051  12.621  0.1954 -0.1527 -0.0438
28735W        W43866  11.353  10.877   9.365 -0.0390 -0.4081 -0.3533
28736W        W43867  15.293   2.310  12.959 -0.0663  0.1028 -0.2299
28737W        W43868   6.822   2.117  14.362  0.1061 -0.0078 -0.0248
28738W        W43869  14.198  17.961  12.887  0.3081 -0.0264 -0.0615
28739W        W43870   9.772  11.114   5.665  0.0265 -0.0219  0.3688
28740W        W43871   3.778  17.118  10.660 -0.0604  0.4700  0.0256
28741W        W43872  13.421   6.397  13.437  0.0380  0.0324 -0.1512
28742W        W43873  14.154  17.825   3.833  0.3559  0.2966  0.0351
28743W        W43874   7.880  13.635  11.658  0.3657  0.1214 -0.1451
28744W        W43875  11.789  12.366   1.063  0.1525  0.0633  0.2142
28745W        W43876  18.102   8.886   5.739  0.3551 -0.1775 -0.4189
28746W        W43877   1.041  14.632   5.710  0.0123  0.1204  0.0738
28747W        W43878   7.212   4.140   0.661 -0.0503  0.0915  0.0354
28748W        W43879   9.251  12.388   4.485  0.0371  0.2196 -0.1951
28749W        W43880  13.772  13.659   3.730  0.2197  0.2718 -0.0917
28750W        W43881   1.269  18.398  11.683  0.1374 -0.0424 -0.0156
28751W        W43882  11.476  10.184   3.739 -0.1572  0.0603  0.0751
28752W        W43883  15.049  15.749  15.712  0.0494  0.0471  0.1942
28753W        W43884  15.698   0.814   1.287 -0.1472 -0.2399 -0.3117
28754W        W43885  17.442   3.406   1.269  0.3322  0.2047 -0.1903
28755W        W43886   3.312   7.315   2.128 -0.0063  0.5959 -0.2255
28756W        W43887   7.028  11.855  10.574  0.2686 -0.2848 -0.2293
28757W        W43888   1.120  16.703  13.494 -0.3884  0.1104 -0.0573
28758W        W43889   7.513   8.780  13.983  0.1133 -0.0240 -0.3279
28759W        W43890   3.047   6.175  10.419 -0.0486  0.1025  0.0699
28760W        W43891  15.459  11.539   3.372  0.1508  0.1508 -0.2489
28761W        W43892  13.337  13.310  14.975  0.0547 -0.0754  0.0463
28762W        W43893   3.768  10.686   3.080 -0.0165 -0.1042 -0.0186
28763W        W43894   0.837   9.939   1.245  0.1099 -0.0181  0.1135
28764W        W43895   9.907   0.300  14.878 -0.0051  0.0470 -0.2265
28765W        W43896   3.246   7.315  12.658 -0.0558 -0.3285  0.1846
28766W        W43897  12.809  17.921  14.485 -0.1294 -0.3295 -0.1084
28767W        W43898   6.036  10.240  13.907 -0.1886  0.1203 -0.0663
28768W        W43899   4.649  17.016   2.772  0.4955 -0.0169  0.0580
28769W        W43900  10.245  16.594   3.100  0.1806 -0.0598  0.2600
28770W        W43901   2.324   3.865  13.397  0.1864 -0.0288  0.0143
28771W        W43902   5.252   9.667   0.754  0.0882 -0.1211  0.0030
28772W        W43903  15.705   9.290  14.330 -0.4207 -0.3549  0.1712
28773W        W43904   9.839  14.110  13.561  0.3339  0.0272  0.2875
28774W        W43905  15.495   6.102  14.486  0.1881 -0.2093  0.1592
28775W        W43906  11.521   4.679  11.413 -0.1915  0.0069  0.2719
28776W        W43907   1.457   5.274  14.051 -0.0188 -0.2261 -0.0141
28777W        W43908  15.899   9.408  11.641  0.2165  0.0443  0.0901
28778W        W43909  12.893  12.841  12.086 -0.2367  0.0873  0.0197
28779W        W43910   9.884  15.183  14.304  0.0622 -0.2645  0.4132
28780W        W43911   1.785   0.478  13.990  0.1628 -0.3463  0.0273
28781W        W43912  12.260  13.496  14.472  0.1594  0.3172  0.0319
28782W        W43913  14.232  10.598  10.944 -0.1117 -0.0866  0.2750
28783W        W43914  10.126   0.265   3.680  0.1845  0.1389  0.3805
28784W        W43915  13.094  10.031  10.594  0.1147 -0.0777 -0.0382
28785W        W43916  12.712   7.407   3.664 -0.1130  0.0564  0.0839
28786W        W43917   3.603   3.477  12.043 -0.1014 -0.0584  0.0839
28787W        W43918  11.781  11.281  10.581  0.1790  0.0321  0.1744
28788W        W43919   4.041   5.595   1.023  0.1172  0.0025  0.1416
28789W        W43920  15.649   5.216  14.721  0.2581 -0.0606  0.0608
28790W        W43921   2.809   1.560  14.052  0.1494  0.4701  0.0800
28791W        W43922   3.996  11.222   3.310 -0.4477  0.0472 -0.2072
28792W        W43923   2.250  10.021  12.638  0.1856  0.0010 -0.0370
28793W        W43924   3.619   7.231  14.243  0.1951 -0.0654  0.0384
28794W        W43925   0.558   3.575  11.200 -0.0043  0.1397  0.1643
28795W        W43926   1.273   7.513   0.380 -0.0359 -0.3689  0.2040
28796W        W43927   9.895  16.763   2.376 -0.1302  0.1868 -0.0466
28797W        W43928   7.015   2.592  15.080 -0.0815 -0.0883  0.1669
28798W        W43929   1.699   8.124   0.202 -0.2673 -0.1028  0.1322
28799W        W43930  14.637   5.635  15.497  0.0302  0.3511 -0.2800
28800W        W43931  14.063   2.672  13.929 -0.0356  0.0905 -0.1426
28801W        W43932   1.148  13.595  12.177  0.2898 -0.1429 -0.2467
28802W        W43933   7.367  17.657   0.622 -0.2689 -0.4490 -0.4009
28803W        W43934   8.497  17.798  13.041 -0.3175  0.3984 -0.0189
28804W        W43935   0.176  14.651   0.180  0.2277  0.0906  0.0303
28805W        W43936   6.205   2.855  13.760  0.0251 -0.1640 -0.0948
28806W        W43937   9.072   4.115   3.959  0.2329 -0.2565  0.2505
28807W        W43938  11.086   0.407  12.116  0.1637  0.1451  0.2613
28808W        W43939  14.480  13.753   3.150  0.1230  0.1213 -0.1237
28809W        W43940  16.522   9.740  13.510 -0.0028  0.4150  0.2637
28810W        W43941   9.526  14.133   2.155 -0.0092  0.1080 -0.0535
28811W        W43942  16.247  15.989   5.507  0.0598  0.0007  0.2174
28812W        W43943   5.293   5.568  13.883 -0.1460  0.0097  0.1106
28813W        W43944  14.826   0.101  10.757 -0.2208  0.0515  0.0607
28814W        W43945  11.550   0.388  10.201  0.3207 -0.0550  0.0570
28815W        W43946  18.179  13.481  14.625  0.0986  0.0263  0.1327
28816W        W43947  10.753   1.096   2.129 -0.0703  0.1096  0.0009
28817W        W43948   2.868   9.583   3.024  0.3398 -0.0977  0.1614
28818W        W43949  14.340   9.046  10.512 -0.1688  0.0097 -0.0096
28819W        W43950  12.001  16.214  13.167  0.1814  0.1852 -0.1600
28820W        W43951  18.510  16.138  14.469 -0.2384 -0.7421  0.3296
28821W        W43952   9.347  13.897  12.832  0.0013 -0.1504 -0.1237
28822W        W43953  16.310  12.057  15.025  0.0212  0.0883  0.0553
28823W        W43954   6.493  10.213   1.546 -0.2364 -0.3623 -0.0597
28824W        W43955   0.910  10.569  12.639 -0.1144  0.0436 -0.3039
28825W        W43956   2.009   9.640   0.624 -0.0204 -0.0682  0.0516
28826W        W43957  12.783  15.804  11.497 -0.1157  0.0389  0.1094
28827W        W43958  14.007  15.328   4.786  0.0730 -0.0900  0.2499
28828W        W43959   4.158  12.385   1.376  0.1301 -0.2226  0.1278
28829W        W43960  14.903  13.002  10.388  0.1812  0.1137  0.4220
28830W        W43961   7.113  12.336   0.126  0.0008 -0.0559  0.0099
28831W        W43962  14.895   8.414  13.779 -0.2270 -0.0541 -0.1880
28832W        W43963   2.924   7.687   3.481 -0.1297  0.3423  0.0812
28833W        W43964  11.897  11.326  15.602 -0.0395  0.0213 -0.1164
28834W        W43965   3.236   0.350   1.461  0.1444  0.1109  0.0730
28835W        W43966  14.517  12.261  11.741  0.2295  0.1085  0.1697
28836W        W43967  14.615   7.580   0.045 -0.2983 -0.1826  0.3079
28837W        W43968  14.325  12.654  11.561 -0.0676 -0.3820  0.0130
28838W        W43969   1.105   4.020   1.597  0.0596  0.3508  0.3014
28839W        W43970   6.646   4.845  14.282 -0.0385 -0.0622 -0.1371
28840W        W43971  12.741  10.116  13.997 -0.1249 -0.2049 -0.1210
28841W        W43972  17.868  11.522  13.819  0.1375 -0.4000 -0.2368
28842W        W43973  14.482  10.052   0.715  0.0735  0.2246 -0.1363
28843W        W43974  13.221  10.496  11.613 -0.0509  0.1030 -0.0183
28844W        W43975   2.936   1.916  13.073  0.1781  0.2108 -0.1261
28845W        W43976  11.103   4.224  14.171  0.4479 -0.1220 -0.3108
28846W        W43977   3.897   6.692  14.054  0.0128  0.0526 -0.0030
28847W        W43978  13.311   8.289  10.545 -0.2172 -0.1365  0.1884
28848W        W43979   0.943   5.648  10.997  0.0425  0.0772  0.0129
28849W        W43980   3.521  10.884  14.346 -0.1551 -0.3060  0.0961
28850W        W43981   6.538  10.261   4.166 -0.2324 -0.0876  0.1331
28851W        W43982   9.803   6.442   4.736 -0.1667  0.1015  0.0682
28852W        W43983  12.815   3.401  10.889  0.1889 -0.1378 -0.0471
28853W        W43984  15.471   6.096  12.029  0.0420  0.1793  0.2482
28854W        W43985  11.891  10.209  11.299 -0.2866  0.0877 -0.1549
28855W        W43986   5.220  13.904   4.086  0.3218  0.1117  0.0059
28856W        W43987  11.473   0.700   4.564 -0.0405  0.2181 -0.1256
28857W        W43988   9.953  12.675  14.856  0.0171 -0.1975 -0.0891
28858W        W43989   5.754   9.356  13.758 -0.3211  0.2243  0.2616
28859W        W43990  10.971   3.476   4.216  0.0977  0.0026  0.0667
28860W        W43991   0.460   0.916   4.943  0.1783 -0.0444 -0.0023
28861W        W43992  10.671   9.800   2.743  0.1356 -0.3066  0.0424
28862W        W43993   2.804   7.895   0.410 -0.0591 -0.2533  0.0603
28863W        W43994  14.347  16.779  14.418 -0.2203  0.1936  0.0663
28864W        W43995   6.808  14.610  11.833  0.1904 -0.2711  0.0204
28865W        W43996  15.983  10.357   1.857  0.1176  0.1116  0.1992
28866W        W43997  15.560  17.931   0.295 -0.1088 -0.1635 -0.0524
28867W        W43998  13.958   2.539  10.520  0.1447 -0.1990 -0.1761
28868W        W43999  11.831  10.953   4.131 -0.1387 -0.3501 -0.0824
28869W        W44000   7.461  14.602  12.158 -0.0183  0.0404 -0.0585
28870W        W44001   6.423   8.167   9.977 -0.1141 -0.0328  0.2447
28871W        W44002   9.232   9.880  13.229  0.1709  0.0366  0.1846
28872W        W44003   7.788  14.080  15.068 -0.3402 -0.1114 -0.1237
28873W        W44004   5.653   7.334  14.614 -0.1912 -0.2568  0.0817
28874W        W44005   6.919  12.262   3.884 -0.1389 -0.2544 -0.0053
28875W        W44006  11.797  16.154   2.853  0.0147  0.0010 -0.0315
28876W        W44007   7.240   3.013   4.220  0.2443 -0.2356  0.2618
28877W        W44008  10.910   0.910  12.385 -0.1263 -0.1038  0.0950
28878W        W44009  10.208   2.161  14.640  0.0040  0.2356 -0.3767
28879W        W44010   2.092  15.674   3.163 -0.0603  0.1328 -0.0417
28880W        W44011   2.903   1.962  14.407 -0.0061 -0.0134  0.1183
28881W        W44012  14.514   6.972  12.613 -0.4371  0.0390 -0.0388
28882W        W44013   8.715   8.953   0.296 -0.0157 -0.2059 -0.0249
28883W        W44014   6.748   5.209  15.400 -0.0441  0.3515 -0.1114
28884W        W44015   1.053   5.092   3.866 -0.2181 -0.5820 -0.1135
28885W        W44016  13.958  15.486  10.636  0.0571  0.0926 -0.0467
28886W        W44017  18.219   4.855  12.590  0.0172  0.1847 -0.4890
28887W        W44018   9.820   5.088  10.962  0.0922  0.0141  0.0690
28888W        W44019  10.433  12.731  12.191  0.1834 -0.2484  0.0081
28889W        W44020  10.102   2.596  14.431 -0.3216  0.0934  0.0910
28890W        W44021  16.203   1.356  11.900  0.1728  0.1826  0.0201
28891W        W44022   2.105  11.734  15.325  0.0757  0.2240  0.1539
28892W        W44023   8.861   9.927   1.497 -0.2414 -0.0346  0.2762
28893W        W44024   1.473  12.427   2.010 -0.1250 -0.1107  0.0869
28894W        W44025   6.886  12.888   1.297 -0.0384  0.2775 -0.0244
28895W        W44026   1.305  14.739  14.641 -0.0514 -0.0499  0.1761
28896W        W44027  17.802   3.126  11.472 -0.0132  0.0495  0.3161
28897W        W44028  17.121  15.077   2.734 -0.1151  0.0251  0.2499
28898W        W44029  17.860  14.426  15.756 -0.2378  0.1509  0.2076
28899W        W44030   3.562  13.171  14.980  0.1221  0.0565 -0.0044
28900W        W44031  16.283   0.671   1.398 -0.1680  0.4062  0.4505
28901W        W44032   1.661   4.619  13.317  0.1879  0.1485  0.1316
28902W        W44033   9.406   3.872  11.694 -0.0627 -0.1141  0.0713
28903W        W44034   7.290   9.854  12.900  0.0074  0.0454 -0.2366
28904W        W44035   8.757  18.156  14.538  0.1271  0.0883 -0.0465
28905W        W44036  18.118  14.997   2.848 -0.1115  0.4065  0.0919
28906W        W44037   5.080  18.203   2.282 -0.2153  0.3652 -0.1378
28907W        W44038   0.166  17.858  11.995  0.0600 -0.0554  0.1601
28908W        W44039   0.276  15.158  14.658  0.4206 -0.1809  0.4834
28909W        W44040   1.274  10.555   3.035 -0.0151  0.1821  0.2353
28910W        W44041  17.227  15.921  12.030 -0.1375  0.3247  0.0688
28911W        W44042   8.424   9.574   4.400  0.3114 -0.1146  0.0083
28912W        W44043   8.060   1.569   0.301  0.0959 -0.3959  0.1699
28913W        W44044   0.407   7.860   2.972 -0.0477  0.2037 -0.2059
28914W        W44045  17.675   8.890  11.605  0.1532 -0.0940  0.1461
28915W        W44046   7.164   9.003   3.383 -0.1023 -0.0152  0.2059
28916W        W44047  12.354   4.083  11.918 -0.0389 -0.1133 -0.2182
28917W        W44048   5.021   5.270   3.212 -0.1442  0.0981 -0.2635
28918W        W44049  15.152   6.418   3.676  0.1360  0.1376 -0.2428
28919W        W44050  12.856  16.216  13.426  0.0036 -0.0859 -0.0915
28920W        W44051   1.756  17.352  10.799  0.3235 -0.2213 -0.0475
28921W        W44052  14.923  14.637  11.238 -0.0658 -0.0022 -0.1048
28922W        W44053   4.940  13.466   4.459  0.1240  0.1110  0.0700
28923W        W44054   4.427   8.787  12.073  0.0265 -0.1632  0.1746
28924W        W44055  12.614  11.302  13.094  0.1432  0.1255 -0.2589
28925W        W44056  18.221   0.901  11.997  0.0764  0.5612 -0.2717
28926W        W44057   4.385   0.213   0.875 -0.1335 -0.1146 -0.1857
28927W        W44058  13.005   4.858   5.836 -0.0405 -0.2618  0.1527
28928W        W44059  17.788  13.214   3.562  0.3033 -0.1140  0.1730
28929W        W44060  13.726  13.945   4.479  0.0384  0.1812 -0.0146
28930W        W44061   6.817  11.014   3.051 -0.1053 -0.5066 -0.0673
28931W        W44062  12.244   8.276  14.195 -0.1323  0.1460 -0.0555
28932W        W44063   2.409  14.452  11.693 -0.3641  0.2102 -0.1324
28933W        W44064  11.217  11.146  14.835 -0.0373 -0.0605  0.0517
28934W        W44065  14.604  14.170  13.279 -0.1357  0.1676  0.0241
28935W        W44066   7.904  15.818  15.112 -0.1652 -0.1069 -0.2376
28936W        W44067   0.082   6.994   2.148  0.0335  0.1588 -0.0163
28937W        W44068  10.860   6.247  12.064 -0.4040 -0.4521 -0.1611
28938W        W44069  13.864   5.297  12.497 -0.3890 -0.3287  0.7817
28939W        W44070  14.173  16.981   2.154 -0.3168  0.0152  0.0933
28940W        W44071  16.326   6.658  13.024  0.1662  0.2770  0.1380
28941W        W44072  14.195   2.581   4.767 -0.2125  0.0290 -0.0791
28942W        W44073  14.273   3.704   3.892  0.0989 -0.3321 -0.0700
28943W        W44074   3.674   9.995  14.880 -0.0529 -0.1013  0.0859
28944W        W44075  13.432  15.805   1.252  0.0189 -0.1463  0.1174
28945W        W44076  16.587   2.461   2.293  0.0991 -0.2437  0.0312
28946W        W44077  11.622  10.907   0.941 -0.1657 -0.0512 -0.0740
28947W        W44078  11.756  15.941   0.597 -0.0790  0.1751  0.1003
28948W        W44079  10.924  11.893  12.453 -0.3949  0.1069  0.3384
28949W        W44080   7.633  17.785  15.283  0.2858  0.2899 -0.1314
28950W        W44081  10.635   5.503  14.351 -0.0319  0.1835  0.1684
28951W        W44082   0.246  18.167   3.793 -0.1202 -0.0083  0.2904
28952W        W44083   4.177  12.722   3.048  0.2052  0.0554 -0.0433
28953W        W44084   3.023  17.065  15.345 -0.1189 -0.2151 -0.0284
28954W        W44085   8.761   7.383   2.761 -0.0385  0.2241  0.1059
28955W        W44086  10.735   3.008  11.604  0.1392 -0.1628 -0.2822
28956W        W44087   4.137   4.919   2.136  0.0356  0.1718  0.1697
28957W        W44088   5.010  13.456   1.173 -0.1365 -0.1595 -0.1580
28958W        W44089  17.521   3.788   3.169 -0.3842  0.3946 -0.0495
28959W        W44090  13.939  16.221   2.560  0.0561 -0.1352  0.2103
28960W        W44091  14.342  16.844  14.912  0.1007 -0.2367 -0.1448
28961W        W44092   5.413   6.639   0.549 -0.2727  0.2059  0.2276
28962W        W44093   2.063   2.271   1.485 -0.1420  0.1010 -0.1065
28963W        W44094   1.240   5.255  10.929 -0.0441  0.0386 -0.2032
28964W        W44095   9.813  15.907   2.570 -0.1587 -0.3234 -0.0088
28965W        W44096   3.798  11.843   4.643  0.2982  0.0417 -0.1460
28966W        W44097   2.625  10.269  11.991  0.1484 -0.0076  0.0826
28967W        W44098   6.922  10.510  14.743 -0.0998 -0.4243 -0.0120
28968W        W44099   2.452  11.603  11.566  0.0938  0.0900 -0.0116
28969W        W44100   7.587  15.487  15.350  0.0079  0.2031 -0.4676
28970W        W44101   8.054   5.805   3.017 -0.0694  0.1738  0.0618
28971W        W44102   9.324   3.259  15.869 -0.1097 -0.4202 -0.0664
28972W        W44103   2.125   7.991  13.770  0.3010 -0.2644 -0.1069
28973W        W44104   4.029  13.738  10.346  0.1182  0.0543  0.1170
28974W        W44105   2.312   2.362  12.472  0.0447  0.1623 -0.1762
28975W        W44106   9.781  15.591  13.335  0.2079 -0.0540  0.1167
28976W        W44107  12.251   7.151  15.668  0.1470  0.0400  0.2623
28977W        W44108  17.483  17.639  12.277 -0.1539  0.0051  0.0057
28978W        W44109   8.991  13.565  15.708 -0.0567 -0.1544 -0.0260
28979W        W44110   5.125  10.223  13.998 -0.0245  0.1675 -0.0059
28980W        W44111   1.823   0.627   5.105 -0.0568  0.0238  0.1359
28981W        W44112  16.510  18.140  14.136  0.1736 -0.1098 -0.1866
28982W        W44113  12.280   1.604   5.209 -0.0374  0.4322  0.1360
28983W        W44114   2.485  17.949   3.611  0.0299 -0.1867  0.1867
28984W        W44115  14.313  15.527  12.864  0.2174  0.3928 -0.2069
28985W        W44116  15.966  17.652   4.840 -0.0107  0.2241 -0.1465
28986W        W44117  12.327  13.045   5.677  0.0732 -0.3932  0.1344
28987W        W44118   5.117   6.989  11.004 -0.2927 -0.0640 -0.1846
28988W        W44119  16.134   3.810  11.808  0.3270  0.0493  0.3732
28989W        W44120   3.885   5.672   4.996 -0.0933  0.1023  0.1305
28990W        W44121   8.771   5.224   5.725  0.0341 -0.1902 -0.3125
28991W        W44122  14.027  11.544   0.391 -0.3612  0.2315  0.3448
28992W        W44123   5.329   0.079   2.305 -0.1817  0.1042 -0.1483
28993W        W44124  16.606   3.086  10.995 -0.0292 -0.3535 -0.1557
28994W        W44125   5.204  11.967   3.197  0.1874  0.5337  0.1324
28995W        W44126  11.560   2.198   0.676 -0.3292 -0.2458 -0.2303
28996W        W44127  16.652   5.987   1.845  0.0224  0.1683  0.1418
28997W        W44128   1.207  17.267   0.807  0.3980 -0.4775  0.1548
28998W        W44129   5.003   4.111  11.557 -0.0892 -0.2192 -0.0048
28999W        W44130   2.219   6.398   1.457  0.0765  0.1994 -0.1598
29000W        W44131   8.510  11.692   3.488  0.0282  0.2421 -0.0666
29001W        W44132   1.838  12.486   0.724  0.0794 -0.0382 -0.0587
29002W        W44133  10.762   5.076   0.584  0.3594 -0.1438 -0.1334
29003W        W44134   7.122  14.093   0.091  0.0275  0.1508 -0.0853
29004W        W44135   3.443   7.124   0.405 -0.0417 -0.3181  0.1292
29005W        W44136  14.553   4.434   9.761  0.0792 -0.3739  0.1636
29006W        W44137  18.358  15.815  10.924 -0.1402  0.2123 -0.2453
29007W        W44138   1.178  14.818  10.815  0.0464 -0.0218  0.1327
29008W        W44139   0.504  14.230   2.590 -0.1139 -0.0824  0.1277
29009W        W44140   8.395   8.067  11.693  0.1071  0.0691  0.1283
29010W        W44141   6.920   4.417  14.705 -0.1340 -0.0719 -0.0480
29011W        W44142  12.922   6.950   2.479  0.0491 -0.1367 -0.0150
29012W        W44143  17.680   7.130   0.666 -0.1239  0.0151  0.2212
29013W        W44144   3.191  11.503  13.052 -0.0836 -0.0047 -0.2863
29014W        W44145  14.033  13.743  15.337 -0.0724 -0.2071  0.1210
29015W        W44146  11.110   6.546   2.067  0.2132  0.2418  0.2730
29016W        W44147  17.990   3.743   0.076 -0.1585  0.1684 -0.0047
29017W        W44148  14.777  10.873  12.578  0.1388 -0.1526 -0.0429
29018W        W44149  16.839  18.449  15.007 -0.2026 -0.0440 -0.1071
29019W        W44150   7.067  18.229   3.424 -0.0133  0.1500  0.0452
29020W        W44151   6.432   1.508  10.937 -0.0345 -0.0783 -0.0076
29021W        W44152   5.805   0.857  12.211  0.1264  0.3142 -0.0984
29022W        W44153   4.982  12.182   5.575  0.0136 -0.0619 -0.0374
29023W        W44154  15.444   4.990   0.693 -0.1686 -0.0689 -0.2193
29024W        W44155  17.008  18.193  11.006  0.2103 -0.0523  0.0104
29025W        W44156  14.974   5.618   1.167 -0.0967 -0.3324 -0.1051
29026W        W44157  12.808  15.413   1.556  0.1940 -0.4355  0.1303
29027W        W44158   6.654   8.602   0.278 -0.2145  0.1698  0.1389
29028W        W44159   5.964  10.249  11.091 -0.1859 -0.0618  0.1927
29029W        W44160   0.068   2.586  11.956 -0.1478  0.3682  0.1256
29030W        W44161   6.784   1.787   1.447  0.1262  0.3728  0.1046
29031W        W44162   2.555   5.055  14.888 -0.0687 -0.2597  0.1402
29032W        W44163  11.882   2.672  11.673 -0.2414 -0.1467  0.2350
29033W        W44164   2.812   1.775  10.350  0.2239  0.0508  0.1858
29034W        W44165  12.941   8.296   1.683  0.3605 -0.0124 -0.2256
29035W        W44166   3.575  11.888  14.549  0.2693  0.0883 -0.2101
29036W        W44167   7.225  13.368  11.988 -0.0564  0.1930 -0.1145
29037W        W44168  16.391   8.852   5.909  0.0196  0.0714  0.3937
29038W        W44169  15.148   3.333  14.974 -0.0331  0.2234  0.0659
29039W        W44170   6.083   7.431   0.053  0.1970  0.1349  0.0409
29040W        W44171   1.987  10.525   1.621 -0.1284 -0.0599  0.0926
29041W        W44172   7.367  11.676  10.121  0.1569 -0.0026 -0.5788
29042W        W44173  10.413   3.181   1.867 -0.5593  0.0939  0.0757
29043W        W44174  10.438   5.892  12.690 -0.0251 -0.0470 -0.1101
29044W        W44175  17.073  10.897  15.302  0.1340 -0.0459 -0.0012
29045W        W44176   3.297   0.643   3.167 -0.4222  0.0197 -0.3089
29046W        W44177   3.958  13.219   4.172 -0.1110  0.0762 -0.0885
29047W        W44178   2.717   0.207   0.500 -0.4859 -0.0239  0.0246
29048W        W44179  12.142   8.709   2.364  0.2397  0.0776  0.1532
29049W        W44180  10.417  16.924   2.666  0.0324 -0.0212 -0.0645
29050W        W44181   1.020   5.840  15.804 -0.1868 -0.1465  0.1674
29051W        W44182   8.368  14.403   3.784  0.1103  0.2830 -0.0051
29052W        W44183  10.236  13.396  13.228  0.0739  0.2251  0.2584
29053W        W44184   1.185  18.362  13.905  0.0620  0.0042  0.2073
29054W        W44185  16.413   1.242  12.519 -0.3423 -0.2598  0.0144
29055W        W44186   7.309   8.634   1.576  0.4338  0.0745  0.1070
29056W        W44187   3.213   2.778   1.283  0.2907  0.1690 -0.1366
29057W        W44188   7.935  12.877  14.967  0.4230  0.2770  0.0917
29058W        W44189   7.405   5.683  12.383 -0.1195 -0.0314 -0.3326
29059W        W44190   5.479  10.742   5.077 -0.3082  0.2770  0.2147
29060W        W44191   5.512  11.135  13.744  0.2025  0.0456 -0.1627
29061W        W44192   1.011   3.400  11.285 -0.0514  0.1666  0.2054
29062W        W44193   6.357   8.248   5.482 -0.0829 -0.1665 -0.2838
29063W        W44194  14.620  16.235   2.728  0.2514  0.3172 -0.1547
29064W        W44195   5.470   5.275  10.757  0.0976  0.0807  0.0432
29065W        W44196  11.887  14.869   3.687 -0.2033  0.1958 -0.1047
29066W        W44197   9.016   3.541   0.345  0.3621  0.1128  0.0878
29067W        W44198  17.314  13.927   3.489  0.0036  0.0050  0.0244
29068W        W44199  12.538  12.435  13.430  0.0367 -0.1402 -0.1753
29069W        W44200  17.405  11.159  15.047  0.0481 -0.1611  0.0262
29070W        W44201  13.409  10.838   4.615 -0.2253 -0.1166  0.0723
29071W        W44202  18.448  11.360   0.152 -0.0367  0.3071  0.0523
29072W        W44203   9.602   8.277   2.181 -0.1975 -0.0144 -0.2358
29073W        W44204  15.014   7.392  11.701 -0.1228  0.1904 -0.2531
29074W        W44205   0.151   1.163  13.160 -0.0715  0.2658  0.1467
29075W        W44206   9.327   7.963  14.077 -0.0409 -0.0947 -0.0428
29076W        W44207  11.298   6.454  12.120 -0.1327  0.1654 -0.0151
29077W        W44208   6.220   6.898  14.836 -0.1689  0.1706  0.0541
29078W        W44209   4.328  17.056   4.264 -0.0649  0.1375 -0.0718
29079W        W44210  18.484  15.616   5.732  0.2850 -0.1541  0.0395
29080W        W44211   6.037   6.296  15.236 -0.0433  0.1112  0.2232
29081W        W44212  15.134   1.472  14.527 -0.0427 -0.1599 -0.2115
29082W        W44213   5.200   4.410   5.512  0.1614  0.1064  0.0807
29083W        W44214  12.165   8.779  15.707 -0.0338 -0.2072  0.0384
29084W        W44215  15.338   9.890   4.921 -0.1176 -0.0223 -0.2078
29085W        W44216   8.159   2.424  15.358 -0.1256  0.1930 -0.0093
29086W        W44217  18.192  12.280   1.123  0.2699 -0.0762  0.0884
29087W        W44218  18.176  14.763  12.355 -0.1690  0.3003  0.1662
29088W        W44219  14.638  14.750   1.280  0.2137  0.1413  0.0277
29089W        W44220   4.656  15.791  15.380  0.0472  0.0491  0.2702
29090W        W44221   9.627  16.669  13.045  0.2412 -0.2276  0.2757
29091W        W44222   1.652   8.168  12.477 -0.0749  0.1238  0.0672
29092W        W44223   9.945  11.150  12.690  0.3032 -0.1745  0.1489
29093W        W44224  12.606   1.584  13.552  0.3701  0.1752 -0.2480
29094W        W44225  16.431  17.480   4.904 -0.3713  0.1347  0.1287
29095W        W44226   2.078   5.999  12.869 -0.0669 -0.0026 -0.0097
29096W        W44227   1.746  14.025  14.741  0.1454  0.0229  0.3605
29097W        W44228  10.557  16.572  13.284  0.0662  0.2392  0.2390
29098W        W44229   5.238   4.493  13.426 -0.2092  0.2122  0.1433
29099W        W44230   0.555   8.772   1.991 -0.0880  0.0700  0.2866
29100W        W44231   3.961   9.229   0.272 -0.5557 -0.0754 -0.3827
29101W        W44232   6.443   0.069  15.058  0.0767  0.0001 -0.0345
29102W        W44233   7.145  14.761   2.121 -0.1043 -0.2017 -0.0799
29103W        W44234  14.509   7.308  13.943  0.1137  0.1282 -0.0426
29104W        W44235  15.629   1.641   3.368  0.3465  0.1179  0.1734
29105W        W44236  18.495  15.535   0.548 -0.1013  0.3496 -0.3556
29106W        W44237   4.188  14.222  10.460 -0.0364  0.0462 -0.2492
29107W        W44238  10.335   9.136   0.667 -0.0107  0.2903 -0.1595
29108W        W44239  13.010  11.788   3.241 -0.1478 -0.4343 -0.1819
29109W        W44240   4.046  14.517   0.240  0.1081 -0.2866  0.0660
29110W        W44241   7.751  14.775  10.691  0.3694 -0.1816 -0.3086
29111W        W44242   3.073   8.681   5.130 -0.1770 -0.0644  0.2535
29112W        W44243   3.391  12.968   1.518 -0.0559  0.1315 -0.0103
29113W        W44244   9.233  18.386  11.663  0.1054  0.3074  0.1439
29114W        W44245  13.238   1.071  15.815 -0.1837  0.0730  0.4474
29115W        W44246  13.582   4.554  15.206 -0.2325 -0.0121 -0.0282
29116W        W44247   2.899   3.296   3.968  0.0878  0.2394 -0.0751
29117W        W44248  11.064  17.452   2.092 -0.0291 -0.0339 -0.1173
29118W        W44249  17.620   7.085  12.975  0.1824  0.1267  0.0649
29119W        W44250   1.165  11.297   4.528 -0.2458  0.1134 -0.1976
29120W        W44251  17.082   0.930   2.371  0.0812 -0.1041 -0.2042
29121W        W44252   7.073   5.551  15.782  0.2049  0.1075 -0.5237
29122W        W44253  14.484  16.712  11.280 -0.0242  0.3463  0.0379
29123W        W44254  14.916   0.798  10.814 -0.1380 -0.0108  0.2431
29124W        W44255   6.247   8.174   4.985 -0.1390 -0.1461 -0.0530
29125W        W44256   3.574   0.217   0.642  0.1117 -0.0898  0.3927
29126W        W44257   3.810   9.032  14.793  0.1415 -0.1565 -0.0936
29127W        W44258  10.978   1.565  13.051  0.2007 -0.0810 -0.2029
29128W        W44259   8.878  17.143  15.880 -0.0062 -0.0271 -0.0066
29129W        W44260  10.069  13.525  14.206 -0.0936  0.1470  0.1814
29130W        W44261   3.120  11.031  11.772 -0.0683 -0.0671 -0.0470
29131W        W44262  11.869   5.880   0.144  0.0338 -0.3012 -0.3247
29132W        W44263  11.503  15.653  14.973  0.2124  0.1957  0.0466
29133W        W44264   9.771   7.433  11.047 -0.0492  0.0567  0.1261
29134W        W44265  16.572   8.276   0.590 -0.2181 -0.0321  0.0103
29135W        W44266  14.430  12.946  12.638  0.1067  0.0146  0.0297
29136W        W44267  13.567  15.266  12.076 -0.0860 -0.3398  0.2634
29137W        W44268   9.784   5.717   5.284 -0.3065  0.4034 -0.1331
29138W        W44269   4.935   0.326  15.586 -0.0465  0.4006 -0.0989
29139W        W44270   0.578  13.178   5.652 -0.0883 -0.1787 -0.1099
29140W        W44271   7.468   3.288  14.145  0.1261  0.1466  0.1873
29141W        W44272   6.172   7.061   2.320  0.0696 -0.2497  0.1822
29142W        W44273   1.874   4.534   1.683 -0.0271 -0.2045  0.1231
29143W        W44274   7.190   2.614   0.100  0.0976 -0.1002 -0.0973
29144W        W44275   5.886   3.875  11.305  0.0453  0.0020 -0.2104
29145W        W44276   2.593   7.319  12.941 -0.3131 -0.0883 -0.0928
29146W        W44277  18.199   7.990   0.217  0.0506  0.1539 -0.3464
29147W        W44278   3.239  10.694  11.378  0.2475 -0.0618  0.1144
29148W        W44279   8.519  16.692  13.059 -0.4399 -0.0465 -0.1634
29149W        W44280   5.176  12.304  11.763 -0.1134 -0.1150  0.1623
29150W        W44281   1.121   7.333  13.059 -0.0057  0.2480  0.0204
29151W        W44282   8.061  12.988  10.390  0.0817 -0.0273 -0.3870
29152W        W44283   5.412   3.231  12.755 -0.1366 -0.0661 -0.0048
29153W        W44284  16.455   1.212   3.476  0.0041  0.1374  0.0541
29154W        W44285  13.773  14.548   2.333  0.0940  0.1679 -0.1365
29155W        W44286   7.034   2.058  12.002  0.1456  0.1132 -0.1488
29156W        W44287   9.333   8.476  15.748 -0.3560  0.1726 -0.2562
29157W        W44288   4.878   1.725  11.208 -0.0553 -0.1826  0.0513
29158W        W44289   2.884  18.407   5.243 -0.0148  0.0120  0.0140
29159W        W44290  14.742   1.954  13.775  0.2086  0.1826  0.2000
29160W        W44291   5.706   3.325   5.699 -0.0014 -0.1709  0.2102
29161W        W44292  14.160  11.723  14.066  0.0826  0.0569 -0.0927
29162W        W44293  13.468   3.270   3.186  0.1620 -0.2526  0.1626
29163W        W44294   1.302   5.532  11.371 -0.3672  0.1060  0.4020
29164W        W44295  18.159   6.952   0.749  0.1796 -0.2144  0.1842
29165W        W44296   8.253   3.040  11.004 -0.0326 -0.0330  0.1407
29166W        W44297   8.815   4.761  10.756 -0.1530 -0.3919 -0.2635
29167W        W44298  10.589   1.191   3.428 -0.2203  0.1368  0.3044
29168W        W44299  16.657   7.787   3.821 -0.1067  0.2372  0.0539
29169W        W44300  11.482   9.009   0.873  0.2266 -0.0041  0.2078
29170W        W44301   9.022   9.335  13.006  0.0987  0.1608 -0.3128
29171W        W44302   6.394   2.276   0.770  0.1638 -0.1177  0.0326
29172W        W44303   2.234   8.492  14.696  0.1298 -0.0594 -0.2254
29173W        W44304  10.476  13.677  15.003  0.3402  0.2229  0.0928
29174W        W44305   2.623   4.262   3.835  0.1212  0.0874 -0.0529
29175W        W44306  16.454   4.154  11.064 -0.1145 -0.0592 -0.1400
29176W        W44307  16.268  14.156  11.291  0.2186 -0.1877 -0.1418
29177W        W44308   3.970   7.407   5.065 -0.1399  0.1267 -0.0649
29178W        W44309  18.330   0.461   0.525 -0.0771  0.1311 -0.0772
29179W        W44310  10.567  10.067  12.329 -0.0765  0.0626 -0.2314
29180W        W44311   6.457   0.634   0.167  0.1022 -0.1859 -0.0364
29181W        W44312   8.929   9.567  14.314  0.1530  0.0715  0.0557
29182W        W44313   7.192  10.647  11.900 -0.2021 -0.2615  0.0886
29183W        W44314  14.979  16.186  13.279 -0.0798  0.1419 -0.0520
29184W        W44315   8.863  10.555  11.149 -0.0848  0.0496 -0.0472
29185W        W44316   5.304   3.291   4.877  0.3711 -0.0982  0.2387
29186W        W44317   1.542   3.269  14.293 -0.1619 -0.1172 -0.0906
29187W        W44318   7.939   1.942   2.268 -0.2816  0.0448  0.2282
29188W        W44319   4.373   3.094  10.814  0.4060  0.1220  0.2238
29189W        W44320   6.539  13.379  11.509  0.2463  0.0174  0.1447
29190W        W44321   6.995  15.556  15.011  0.2288  0.2322  0.1053
29191W        W44322  10.780   3.924  13.299  0.1199 -0.2511 -0.3108
29192W        W44323  10.498   3.167   3.317  0.3059  0.0873  0.3359
29193W        W44324  16.619   0.152   3.511 -0.2478 -0.4074 -0.0460
29194W        W44325   7.085   1.772   0.577 -0.4383  0.1693  0.1363
29195W        W44326   9.181   0.605  14.897 -0.1006  0.0556 -0.1054
29196W        W44327  17.455  16.401   0.086  0.0765 -0.2722 -0.1285
29197W        W44328  15.572   0.787  12.121 -0.1528  0.0058  0.1102
29198W        W44329  11.252   9.653  14.508 -0.2472  0.0492 -0.3228
29199W        W44330   5.985  15.498  15.077  0.0511  0.4609 -0.1414
29200W        W44331   0.449  15.542  12.883  0.3417 -0.1709  0.0599
29201W        W44332   3.480  17.500   1.583  0.1167 -0.1360  0.1321
29202W        W44333   3.834  11.693   1.188  0.3014  0.2590  0.0089
29203W        W44334  15.132  14.010   1.463  0.2155 -0.2369  0.0330
29204W        W44335   6.695  12.309   1.462 -0.0063  0.2999 -0.0330
29205W        W44336   0.974   2.483   0.881 -0.2685 -0.0204 -0.2265
29206W        W44337   6.731  18.347   2.243  0.1478  0.3167 -0.1439
29207W        W44338  14.206  11.729  12.447  0.1940 -0.1864  0.2094
29208W        W44339   8.390   9.509   3.747  0.2602 -0.0626 -0.0044
29209W        W44340   6.118   6.546   1.715 -0.0027  0.1069  0.2237
29210W        W44341   2.722   4.470   1.048  0.2766 -0.3864  0.0445
29211W        W44342  11.600   6.527   5.092  0.2086  0.0003 -0.1301
29212W        W44343   6.849  10.499   5.277  0.2888  0.3857 -0.1237
29213W        W44344  14.070  12.928   0.900  0.1080  0.1309  0.0005
29214W        W44345   2.802   0.442   3.255  0.3561 -0.2442 -0.1818
29215W        W44346   9.076   4.927  15.629  0.2421 -0.0078 -0.0748
29216W        W44347   3.171   0.833   4.516  0.0821  0.0766 -0.1384
29217W        W44348   4.153  10.874   2.499 -0.1539 -0.0730 -0.1647
29218W        W44349   8.687   0.012  13.668  0.6643  0.2512 -0.2662
29219W        W44350   4.087  17.040  13.178  0.5425 -0.1158  0.2242
29220W        W44351  18.197  10.033  15.333 -0.1473 -0.0563 -0.0053
29221W        W44352   5.734   4.317   4.533  0.2354  0.1030 -0.3157
29222W        W44353  12.698  16.578  13.144 -0.0190 -0.2407 -0.1628
29223W        W44354   7.800   7.453  15.798 -0.1995 -0.3716 -0.0114
29224W        W44355   7.201   3.574  15.167  0.1095  0.0153 -0.1955
29225W        W44356  17.063   0.250  15.788 -0.2457 -0.4183 -0.1071
29226W        W44357   6.229   7.676   0.706 -0.0552  0.2061  0.0402
29227W        W44358  10.011  12.932   4.882 -0.1215 -0.1269 -0.1511
29228W        W44359   6.321   6.147  13.771 -0.0221  0.2286  0.0153
29229W        W44360   4.041   5.071  15.584  0.1993  0.1380  0.0892
29230W        W44361  13.580  17.808  10.066  0.1066 -0.1179 -0.1479
29231W        W44362  10.416   6.442   2.567 -0.1388 -0.1034 -0.1283
29232W        W44363   3.097  12.302  11.974 -0.3286 -0.1809  0.0007
29233W        W44364   9.982  15.422  10.715  0.1803 -0.0175  0.3034
29234W        W44365   6.583   7.452   3.150 -0.2291  0.0750 -0.0209
29235W        W44366  13.752  18.177   0.741 -0.1565  0.2500 -0.0197
29236W        W44367   4.723  10.752   3.939  0.2226 -0.2033 -0.0301
29237W        W44368  11.203   9.298   3.530  0.1280 -0.0873 -0.3092
29238W        W44369   3.326   7.812  13.250 -0.1011  0.5500  0.3212
29239W        W44370  11.650   1.063   4.934  0.1203  0.2820 -0.0661
29240W        W44371  13.184   6.290  12.047 -0.0857 -0.0808  0.0870
29241W        W44372  14.771   2.943   0.491  0.0916  0.1882  0.3999
29242W        W44373  17.699   8.522  12.473 -0.1161  0.2991 -0.0499
29243W        W44374  13.141   8.505  14.670 -0.3102 -0.1033 -0.0175
29244W        W44375   4.493   4.408  11.586 -0.1061 -0.2901  0.1898
29245W        W44376   5.699   9.506  11.584 -0.3889  0.0146 -0.1261
29246W        W44377  10.230   1.211   5.202  0.1702 -0.0707 -0.0515
29247W        W44378  16.740  17.751  10.810  0.1697  0.2876 -0.0438
29248W        W44379   6.016   7.713  14.346  0.0321  0.1291  0.2168
29249W        W44380   7.680   5.415   1.253  0.2866 -0.0674 -0.1236
29250W        W44381   4.772   7.847  12.995  0.0546 -0.2138 -0.1033
29251W        W44382   9.725   2.526   5.452  0.3465 -0.2430 -0.0506
29252W        W44383  11.530  11.607   2.752  0.0744 -0.0057  0.0069
29253W        W44384  13.847   1.505  14.801 -0.0718  0.1895 -0.4328
29254W        W44385  13.609   5.726  15.533 -0.0591  0.4326 -0.1218
29255W        W44386   0.862   2.990   5.461 -0.0665  0.0004  0.2844
29256W        W44387   4.404   6.134  11.579 -0.1647 -0.3119  0.1146
29257W        W44388   4.700  16.629  12.445 -0.0804  0.3282  0.3938
29258W        W44389   5.429   4.604  15.670 -0.1492 -0.0543  0.0600
29259W        W44390  14.842  13.140  14.180 -0.0928 -0.1086 -0.0219
29260W        W44391  15.436  13.829  11.320 -0.1046  0.0480 -0.0681
29261W        W44392  10.385   0.160   5.448 -0.0809  0.2026 -0.0662
29262W        W44393  17.647   2.506  11.505 -0.0349 -0.0751 -0.1011
29263W        W44394   8.693   4.653   2.753 -0.0033  0.3899 -0.3677
29264W        W44395  16.974   2.772   2.573 -0.0837  0.2854 -0.0234
29265W        W44396  15.436   6.283  11.131 -0.0971 -0.0714 -0.2198
29266W        W44397   7.398  14.327   2.422 -0.1785  0.0844 -0.0991
29267W        W44398  14.159  16.663  13.317 -0.2038  0.1092  0.2365
29268W        W44399   0.637  15.533   0.580  0.0658 -0.2703  0.0154
29269W        W44400  14.371  18.169   0.066  0.0486 -0.0624 -0.1368
29270W        W44401   4.371  10.793   1.511 -0.1996  0.0964  0.0002
29271W        W44402  12.038  10.339   4.210 -0.0296  0.1885 -0.2463
29272W        W44403   5.726  13.935   3.968 -0.1805  0.0546 -0.0878
29273W        W44404  16.447   8.509  13.930  0.0883 -0.2895 -0.1037
29274W        W44405  11.405  18.227   2.564 -0.1837  0.1471  0.0753
29275W        W44406   1.019  10.528   1.966  0.1273 -0.0653 -0.2514
29276W        W44407  14.041   2.532  11.918 -0.0410  0.0025 -0.3333
29277W        W44408  13.724  17.280   1.410 -0.0189  0.1872  0.0557
29278W        W44409   0.037   7.845  15.811 -0.2784 -0.0152  0.3573
29279W        W44410   5.902  14.164  15.092  0.2506  0.2533 -0.0886
29280W        W44411  11.046  18.474  10.738  0.0043 -0.1083  0.2260
29281W        W44412  10.585  13.663   9.664 -0.3802  0.1294  0.2366
29282W        W44413  10.637  14.859  11.021  0.1249  0.1968 -0.1334
29283W        W44414  13.835  15.146  12.540 -0.3144  0.1021  0.0871
29284W        W44415  10.331   9.650  12.036 -0.1968  0.2131 -0.0738
29285W        W44416  15.292   4.881  15.473  0.1922 -0.2378 -0.0176
29286W        W44417   5.625  17.389   2.691 -0.2699 -0.0837 -0.0048
29287W        W44418   8.250  12.671  13.993 -0.0019 -0.3598  0.2464
29288W        W44419  11.708   8.221   9.331 -0.0164  0.0912  0.2259
29289W        W44420   6.118   0.356  14.688 -0.0897 -0.1923 -0.1652
29290W        W44421   3.629  11.390  15.432 -0.1087  0.0428  0.1103
29291W        W44422   6.492   9.424   4.656  0.2614 -0.0784 -0.0283
29292W        W44423  10.158  14.688  10.774  0.1391  0.1898  0.0386
29293W        W44424  16.745  14.930  11.152 -0.0010  0.2526  0.2815
29294W        W44425   2.298   3.650  15.630 -0.3894  0.0091 -0.2889
29295W        W44426  10.876   5.072  12.042 -0.0889  0.0764 -0.1096
29296W        W44427  14.984   7.668  15.656  0.2111  0.1986  0.3230
29297W        W44428   5.412   2.934  12.319 -0.0338  0.0929 -0.0464
29298W        W44429   7.917  14.497  11.890 -0.1792 -0.1784  0.1159
29299W        W44430  10.596  15.256   3.600  0.0481  0.3067  0.1796
29300W        W44431   5.629  15.153   5.397 -0.1351  0.0322 -0.1495
29301W        W44432   5.668   3.647  13.588  0.1660 -0.2394 -0.2352
29302W        W44433  16.589   8.343  13.407  0.0383  0.1148  0.0519
29303W        W44434   5.928   3.800   4.482  0.1994  0.3651  0.1727
29304W        W44435   2.946  16.525  12.170  0.0619 -0.1637 -0.1387
29305W        W44436   4.471  14.321  11.953  0.2371 -0.0494 -0.1088
29306W        W44437  17.493  15.340  15.168  0.2849 -0.1524  0.1939
29307W        W44438  14.172   3.950   0.441  0.1281 -0.1507  0.1090
29308W        W44439  11.003  15.396   1.850 -0.3034  0.0205  0.0995
29309W        W44440   0.415  16.172  10.126  0.0868 -0.1617 -0.7476
29310W        W44441  17.164  18.277   4.388  0.0460 -0.1157  0.2669
29311W        W44442   9.876  11.364  12.208 -0.0144 -0.1926  0.3132
29312W        W44443   5.883   2.720  12.403 -0.3782  0.2133  0.4220
29313W        W44444   8.042  11.687   1.853  0.0249  0.2809 -0.1128
29314W        W44445   3.052   9.930  14.358 -0.2559 -0.2363  0.3061
29315W        W44446  16.079   1.017  12.213 -0.0544  0.2099  0.0114
29316W        W44447   7.475  10.371   5.254  0.0461  0.1742  0.2345
29317W        W44448   5.266  16.007   0.501  0.2215  0.0724  0.2953
29318W        W44449  16.707  15.791   1.679  0.0925 -0.0762  0.2876
29319W        W44450  17.308  15.981   2.277  0.0354  0.3445 -0.1551
29320W        W44451  11.730  14.624  13.676  0.3491  0.2635 -0.1297
29321W        W44452  18.435  17.474  15.891 -0.3754 -0.1776  0.1841
29322W        W44453   0.788   5.211  13.265  0.1511 -0.1156  0.1477
29323W        W44454  11.012  13.660  11.735 -0.0175  0.3863  0.1667
29324W        W44455   3.715   4.634  13.215 -0.0587  0.2251  0.1375
29325W        W44456  10.305   7.982  13.243 -0.1562 -0.1211  0.0876
29326W        W44457   0.622  15.036  14.245  0.0647  0.0960 -0.1806
29327W        W44458  15.873  17.640  15.834 -0.0022 -0.1485 -0.0748
29328W        W44459  18.211   9.102   6.251  0.1664  0.2592 -0.2567
29329W        W44460   2.102   2.810  14.317 -0.0226  0.0586  0.1020
29330W        W44461  13.870  14.036  14.516  0.2318  0.1282 -0.1416
29331W        W44462   6.156   9.958   2.667 -0.0920  0.0395  0.6371
29332W        W44463   7.236  17.010  14.550 -0.2922 -0.2357 -0.1653
29333W        W44464   9.980   8.974  12.705  0.0342  0.1798 -0.1218
29334W        W44465   1.708   5.054  15.731  0.0115 -0.0806 -0.0651
29335W        W44466  14.814   1.092  10.287  0.0545 -0.1917  0.1565
29336W        W44467   3.067  15.758  15.132 -0.0013 -0.2268  0.2689
29337W        W44468   0.165  16.473   0.359 -0.1596  0.1279 -0.2999
29338W        W44469  17.118   4.580   4.286 -0.1074 -0.1928 -0.3783
29339W        W44470   9.067  15.745  10.569  0.0181  0.0065  0.1536
29340W        W44471  11.431  17.760   2.029  0.1052  0.2977  0.0103
29341W        W44472   8.433   0.466  13.587  0.4014  0.1648 -0.0075
29342W        W44473   5.776  14.171  12.602 -0.0596 -0.1531  0.1635
29343W        W44474   0.975   0.722  12.880  0.2035 -0.1961  0.0919
29344W        W44475  15.879  14.399   2.753 -0.0065  0.0331  0.1451
29345W        W44476  14.895   5.105  10.872 -0.1071  0.4189  0.3311
29346W        W44477  10.273   6.301  14.214  0.0841  0.1555  0.1167
29347W        W44478   2.103   5.539  12.999 -0.3351 -0.0994 -0.1359
29348W        W44479  15.624   5.626   0.035 -0.0103  0.1445  0.0716
29349W        W44480   3.940  13.632  15.599  0.0540  0.0955  0.0817
29350W        W44481  15.760   2.033   3.631  0.0676  0.3576 -0.1590
29351W        W44482   4.172   9.585  12.938 -0.0756  0.1992 -0.2552
29352W        W44483  16.540  17.489  15.473  0.0066 -0.0476 -0.0322
29353W        W44484   6.510   1.657   4.265 -0.1264 -0.3391 -0.0917
29354W        W44485   2.052   1.639  13.391  0.1169 -0.0326 -0.3239
29355W        W44486  16.715  15.289   2.953 -0.0546 -0.2006  0.0976
29356W        W44487   0.758   9.827   6.525  0.3570  0.3443  0.1298
29357W        W44488   6.015   4.688  14.646  0.0980  0.4620  0.1668
29358W        W44489   6.874   8.718   6.036  0.1980 -0.1870  0.0977
29359W        W44490  16.585   9.809   3.111  0.1185 -0.0709  0.2854
29360W        W44491   6.069  11.464   4.632  0.2712  0.0374  0.0094
29361W        W44492   4.051  14.854  11.513  0.0680 -0.1163  0.0645
29362W        W44493  16.247  15.751  12.665 -0.0406  0.0702 -0.2119
29363W        W44494  14.542  10.455  15.272 -0.0796 -0.1714 -0.0457
29364W        W44495   0.367   3.507   4.875  0.0460 -0.0647  0.0136
29365W        W44496  14.918  14.767  11.737 -0.3247 -0.0256  0.0743
29366W        W44497   5.092   3.909   9.915 -0.2815  0.3442  0.0941
29367W        W44498  13.208   7.155   2.851  0.0176  0.0293 -0.0572
29368W        W44499  16.418  16.809  15.398  0.2697 -0.0587 -0.2665
29369W        W44500   9.462  17.974  15.494 -0.0876 -0.1429 -0.0772
29370W        W44501  10.356   0.850   3.973  0.3040 -0.2346  0.2412
29371W        W44502   8.640  10.147   5.845 -0.1537 -0.0377 -0.0752
29372W        W44503   9.562  13.918   2.737  0.0841 -0.1122 -0.0019
29373W        W44504   0.076   8.789   0.198  0.2927 -0.0718  0.2970
29374W        W44505  17.117   1.938   5.358 -0.0681  0.1439  0.1621
29375W        W44506   7.851   1.668  14.783  0.0547  0.0163 -0.2705
29376W        W44507   6.559  10.952  13.679  0.0297  0.2055  0.2854
29377W        W44508  14.384  12.792  11.062 -0.0845 -0.2850 -0.2118
29378W        W44509  14.371  17.533   0.731  0.2598  0.0341  0.0608
29379W        W44510   1.455  12.365   3.682  0.0653 -0.0137  0.1887
29380W        W44511  17.700   4.724  15.711  0.0219 -0.1932 -0.2079
29381W        W44512  14.153   1.127   0.080 -0.2449 -0.2089 -0.0248
29382W        W44513  13.376  16.457  15.218  0.0152 -0.0389  0.0801
29383W        W44514   1.951   3.914   4.996 -0.0357 -0.2728 -0.3448
29384W        W44515   6.540   4.460   5.126 -0.0953 -0.0351  0.1184
29385W        W44516   4.852   2.967   5.423  0.4548  0.3788  0.4635
29386W        W44517   3.826  11.761   5.172  0.0322  0.0204  0.0279
29387W        W44518  16.820  15.595   4.510 -0.0594 -0.0571 -0.1097
29388W        W44519   6.609   5.772  15.805  0.1075  0.0059 -0.2004
29389W        W44520   1.883   1.142  11.975  0.1721 -0.0273 -0.1692
29390W        W44521  14.641  10.824  11.634 -0.1117  0.0970 -0.1177
29391W        W44522  10.265   4.387   3.304 -0.3145  0.2688  0.1588
29392W        W44523  16.067   5.416  14.447 -0.2654  0.1574  0.1406
29393W        W44524   9.294   2.691  12.020 -0.0700 -0.1026  0.1155
29394W        W44525   7.018   7.618   1.262  0.2803  0.0049 -0.0710
29395W        W44526  15.493  14.374   1.426 -0.1459  0.1759 -0.1392
29396W        W44527   8.737   6.241   2.585 -0.0147 -0.0871 -0.2265
29397W        W44528  10.612  13.140   1.304 -0.1252 -0.3164  0.3306
29398W        W44529   0.564  16.019  11.278 -0.0181 -0.0931 -0.1353
29399W        W44530  10.834  16.196  10.865 -0.0663 -0.3462 -0.1997
29400W        W44531   1.706   5.625   5.342 -0.2538 -0.1767 -0.0490
29401W        W44532   5.198   4.270  12.812 -0.2519  0.2757  0.3386
29402W        W44533   2.799  13.766  13.192  0.2219 -0.2129 -0.1118
29403W        W44534  16.861   0.940   3.238 -0.1161  0.0546  0.2540
29404W        W44535   0.377   1.955  11.354 -0.1208 -0.0837 -0.1945
29405W        W44536   7.485   0.036  13.658 -0.0747 -0.0349 -0.0217
29406W        W44537   3.612  15.696   1.683 -0.0226  0.1028  0.0832
29407W        W44538  14.856  13.481  12.777 -0.3061  0.2722  0.4974
29408W        W44539   4.895   0.277   0.622 -0.0163  0.0377  0.0809
29409W        W44540   4.265   5.272  15.096  0.0539 -0.0081  0.2413
29410W        W44541  14.928   4.018   5.990 -0.0149 -0.0189  0.0825
29411W        W44542  13.823  16.916  12.443  0.0834 -0.1606  0.3678
29412W        W44543  12.065   7.081  11.481 -0.1156  0.0511  0.3639
29413W        W44544   8.353  14.936  11.851 -0.2426 -0.0181  0.1393
29414W        W44545  10.669   5.479   1.003 -0.0499 -0.0321 -0.1159
29415W        W44546   1.448  12.943  14.871  0.6037  0.1956 -0.1380
29416W        W44547   9.923  12.718  14.247  0.1664  0.1150  0.1161
29417W        W44548  15.868   3.886   5.795 -0.3113 -0.1491 -0.0960
29418W        W44549   9.405  17.043   1.910 -0.1352 -0.4491  0.2818
29419W        W44550   3.185  14.851  15.253 -0.0859  0.2931  0.3898
29420W        W44551   4.194   6.739   2.862  0.2473  0.0674 -0.1276
29421W        W44552   2.123  15.918  12.003  0.1981 -0.1800 -0.1204
29422W        W44553   1.425   1.697   3.404  0.2005  0.0450  0.2659
29423W        W44554   9.262  12.847  15.797  0.3428 -0.1069  0.2615
29424W        W44555   8.542   0.617  11.223 -0.0444 -0.1522  0.0719
29425W        W44556  13.742  17.867  11.109 -0.2786 -0.0616 -0.2106
29426W        W44557   2.594   1.414  11.516  0.1118 -0.0240  0.2163
29427W        W44558   4.095  18.124  11.637 -0.1242 -0.0166 -0.5336
29428W        W44559   5.390   3.746  12.695  0.0385  0.0668 -0.0804
29429W        W44560  10.712   8.423   2.013 -0.0531 -0.1788 -0.2405
29430W        W44561   4.205   1.111  13.842  0.3525 -0.2560  0.2641
29431W        W44562   5.245   8.196   3.717  0.1049  0.3338  0.1099
29432W        W44563  12.720   1.767   5.540 -0.2766 -0.3700 -0.0813
29433W        W44564  15.979  16.663   2.963  0.1299 -0.1366 -0.0337
29434W        W44565   8.804  13.292  13.511 -0.0650 -0.0320  0.0805
29435W        W44566   2.772  13.962   6.274  0.5136  0.1468 -0.0484
29436W        W44567  16.398  18.241  11.939  0.2085 -0.2134 -0.3311
29437W        W44568  12.203  12.539  10.910 -0.1226  0.0613 -0.1272
29438W        W44569  12.470   6.654  14.187 -0.1714 -0.1519  0.0284
29439W        W44570  14.980  11.647   3.905  0.1106 -0.4311 -0.1184
29440W        W44571  10.540   7.243   4.319 -0.0810 -0.0606  0.5234
29441W        W44572   9.569   6.501  13.661 -0.1026  0.2020 -0.1115
29442W        W44573   1.890  13.526   0.621  0.0762 -0.0115  0.0123
29443W        W44574  14.817  11.856  11.597  0.0938 -0.2083 -0.2092
29444W        W44575   3.098  11.640   3.410  0.1502 -0.0021  0.1463
29445W        W44576   0.036  15.652   3.451 -0.2323  0.3740 -0.0039
29446W        W44577   6.718   6.449  11.131 -0.3890  0.2597 -0.2520
29447W        W44578  17.476   0.648  14.971  0.0316  0.0776 -0.1108
29448W        W44579   1.081   2.386  11.907 -0.2961 -0.1142 -0.1221
29449W        W44580   2.730   2.874   0.980  0.1367  0.1466  0.4079
29450W        W44581   2.560   1.171  12.686  0.0417 -0.2420  0.0504
29451W        W44582   8.753   8.710   4.307 -0.3887  0.1129 -0.1112
29452W        W44583  15.191  15.086  11.214  0.2965  0.0347  0.2459
29453W        W44584  16.526  17.505  13.057  0.2795 -0.2174  0.2421
29454W        W44585   7.318   9.794   4.032  0.3577 -0.0341  0.2201
29455W        W44586  10.444  16.807   4.475  0.4561  0.2108 -0.0188
29456W        W44587   1.857  18.404   5.561  0.3673 -0.2047  0.0722
29457W        W44588  15.691  13.213   4.280  0.2968  0.2227  0.2211
29458W        W44589   4.474   4.427   1.498 -0.0675 -0.0844  0.0918
29459W        W44590   2.726  12.538   2.345 -0.0998 -0.1045  0.0363
29460W        W44591  15.727  15.638   0.775  0.2517  0.0569 -0.1625
29461W        W44592   7.643  13.024   0.556 -0.2689 -0.2410  0.0831
29462W        W44593   9.200   2.216   2.466 -0.0624  0.0226 -0.1959
29463W        W44594   0.321   5.532   3.128  0.0618 -0.0354 -0.0058
29464W        W44595  10.221   2.261  14.032  0.0962  0.2109 -0.0764
29465W        W44596   4.828   0.400  12.338 -0.2200  0.1869  0.0833
29466W        W44597   0.561  15.424  13.403 -0.4162 -0.3932  0.2121
29467W        W44598   6.317  11.308  14.666 -0.1481 -0.0902  0.0729
29468W        W44599   4.700  14.388   0.991  0.2201  0.0725 -0.0372
29469W        W44600   5.974   8.664   3.125 -0.1466  0.0644 -0.2206
29470W        W44601   4.051  10.602  13.659  0.0226 -0.2345  0.6218
29471W        W44602  16.716   0.670   2.077  0.1056 -0.2462 -0.1652
29472W        W44603   9.064   1.341  11.256 -0.0557  0.1957 -0.1860
29473W        W44604  10.349   7.609   2.674 -0.1011  0.0610  0.0637
29474W        W44605  13.831  11.823  11.606 -0.2141  0.2284 -0.2085
29475W        W44606  12.222   9.870   4.288  0.0928 -0.1669  0.1970
29476W        W44607  15.210  15.497   4.196  0.1958 -0.3443 -0.1530
29477W        W44608   4.281   5.586  11.310 -0.0076 -0.0686  0.0240
29478W        W44609   1.379   3.194  10.909  0.1478 -0.0800 -0.4497
29479W        W44610   1.370  15.002   4.564  0.1669  0.1578  0.0587
29480W        W44611   7.729  12.598   0.249  0.1582 -0.1450 -0.2644
29481W        W44612  17.203  10.532   0.073 -0.1325 -0.3315  0.0842
29482W        W44613  12.313  12.244   2.345  0.0262 -0.1040 -0.0047
29483W        W44614   3.903  12.668  12.969  0.0114  0.1447  0.0720
29484W        W44615   7.844  14.123   2.375  0.0513  0.3604  0.3920
29485W        W44616  16.948   9.877  15.534  0.3135  0.0894 -0.0453
29486W        W44617  17.346   4.059  10.025 -0.1898  0.0284  0.2223
29487W        W44618   3.739   7.844   2.826 -0.0361 -0.0880 -0.2694
29488W        W44619   5.722  11.972  13.772 -0.1058 -0.0361  0.0522
29489W        W44620  11.672   1.403   3.870 -0.0752 -0.2198 -0.1289
29490W        W44621   9.676   8.753   4.496 -0.3714 -0.0441 -0.0976
29491W        W44622  15.072  16.775   4.273 -0.3428 -0.3292  0.1045
29492W        W44623   2.501  16.544  13.209  0.1489 -0.1199 -0.0848
29493W        W44624  16.265   3.816   0.764 -0.0829 -0.1566 -0.4007
29494W        W44625   1.540  10.062  13.774  0.1577 -0.0451  0.2206
29495W        W44626   7.414   7.175   2.883 -0.2347  0.2795 -0.1261
29496W        W44627   1.924   4.732  10.945 -0.2042 -0.1073  0.1291
29497W        W44628   2.308  16.726  12.682 -0.2308  0.0273 -0.3078
29498W        W44629  17.657  15.878  15.881  0.1951 -0.1152  0.0001
29499W        W44630  12.321  11.256  12.224 -0.2114  0.1090  0.0152
29500W        W44631   6.604   5.517   3.050 -0.1918 -0.0288 -0.0142
29501W        W44632   3.534   7.750  11.292  0.1939  0.5015 -0.0088
29502W        W44633   8.805  10.736   4.095  0.3556 -0.0252 -0.0062
29503W        W44634  17.564  16.614  11.577  0.1384 -0.0447 -0.0525
29504W        W44635   4.457  11.371   4.669 -0.0428  0.1691  0.3484
29505W        W44636   1.210  11.716  15.430  0.0625  0.0665 -0.0076
29506W        W44637  10.874   5.667  13.823  0.2759  0.3192  0.0129
29507W        W44638   9.469   4.066  15.682 -0.4720 -0.2501  0.0622
29508W        W44639  16.718  14.691  12.023 -0.2652 -0.4020  0.1328
29509W        W44640   0.714  11.099   4.784  0.2761  0.2229  0.0928
29510W        W44641   8.973   2.200  10.314  0.0212 -0.0213  0.3608
29511W        W44642  10.551   3.256   4.006  0.1796  0.1052 -0.0165
29512W        W44643  13.537   8.991  11.892  0.0104 -0.1026 -0.0245
29513W        W44644   3.805   3.750  11.635 -0.1142  0.2357  0.1369
29514W        W44645   2.225   4.904   2.543  0.1664  0.0616 -0.1806
29515W        W44646   3.567  17.657   4.413 -0.1980 -0.1527 -0.0318
29516W        W44647  17.706  10.987   1.908 -0.1761 -0.1591 -0.0405
29517W        W44648   7.833   9.784   2.174  0.0705  0.1251 -0.3485
29518W        W44649  11.226   6.647  12.944  0.0775  0.1773 -0.2364
29519W        W44650   0.067   4.592  15.186 -0.5091 -0.0986  0.1177
29520W        W44651  15.953  18.348  10.827 -0.1954  0.2863 -0.4264
29521W        W44652  16.224  18.062  12.477 -0.4087  0.0905  0.2346
29522W        W44653   9.731  12.376  12.870 -0.1665  0.1551  0.0262
29523W        W44654   4.287   3.927   1.523 -0.1721  0.0312 -0.1326
29524W        W44655   6.069  14.607  15.472 -0.0168 -0.0221  0.1878
29525W        W44656  11.296  17.899  14.223  0.0294 -0.1050  0.0556
29526W        W44657   5.670   6.697  15.456 -0.0277 -0.1511 -0.0089
29527W        W44658  12.329  10.444  12.635  0.1042  0.1282 -0.0262
29528W        W44659  13.118   1.828   5.160 -0.0031 -0.3744  0.1408
29529W        W44660   9.356  10.164   2.324 -0.0066 -0.2450 -0.1740
29530W        W44661  10.786   4.503  10.914 -0.2472 -0.1740  0.3362
29531W        W44662  15.673   6.775  13.446 -0.0938 -0.0052  0.0782
29532W        W44663   7.760   2.629   9.591  0.1523  0.0638 -0.1297
29533W        W44664  15.207  15.922  15.262  0.2060  0.1850  0.0021
29534W        W44665   5.994  10.236  12.386  0.0907 -0.2103 -0.0490
29535W        W44666  12.788  11.483   2.395 -0.4424  0.1308 -0.1310
29536W        W44667  17.565  12.458  15.329  0.0353 -0.1432 -0.5315
29537W        W44668  17.706   4.208  11.581 -0.1130  0.1402 -0.0851
29538W        W44669   8.767   1.694   1.022  0.1646  0.1693  0.0638
29539W        W44670   3.962   4.232  11.421 -0.1398 -0.1133 -0.1151
29540W        W44671   6.211   1.124  12.436 -0.1616  0.1803 -0.2170
29541W        W44672  14.472  11.045   1.881 -0.0517 -0.2802 -0.2677
29542W        W44673   0.196  13.985   2.922  0.1561 -0.2968  0.1999
29543W        W44674  15.679   0.673   3.967  0.1887  0.1831  0.0905
29544W        W44675   8.386   8.278  14.942  0.1788 -0.2714  0.0081
29545W        W44676  14.349   5.890  11.231 -0.1063 -0.0888 -0.1218
29546W        W44677  11.089  13.199  11.623  0.1194 -0.0523  0.2087
29547W        W44678  13.312   6.566   0.419  0.0412 -0.0975 -0.0855
29548W        W44679  12.274   1.443   2.322  0.0823 -0.0916  0.2569
29549W        W44680   0.715   0.246   3.426  0.2869  0.0809  0.2799
29550W        W44681   4.720  13.815   0.996  0.2499 -0.0775  0.0985
29551W        W44682   9.592  10.353   4.151 -0.0867  0.1503  0.1447
29552W        W44683   9.786  16.109   3.549  0.1402 -0.0565  0.0120
29553W        W44684  16.114  11.867   0.142 -0.0428  0.1586 -0.2543
29554W        W44685   7.451   7.979   5.368 -0.4546  0.3017  0.0696
29555W        W44686   4.695   4.547  15.648 -0.0820 -0.1454 -0.5570
29556W        W44687   7.018  10.255   3.885 -0.0465  0.1099 -0.4017
29557W        W44688  17.238   4.136   1.723  0.0259 -0.2951 -0.1199
29558W        W44689   1.709  10.261  10.522 -0.0696 -0.3232  0.0227
29559W        W44690  12.119   6.929   2.548 -0.0184 -0.2171  0.2114
29560W        W44691  13.574   9.719   1.019 -0.0418  0.1354 -0.0359
29561W        W44692  12.907   3.281  11.864  0.0356 -0.0378 -0.0420
29562W        W44693   6.632   8.376   4.139  0.2602  0.0272 -0.1678
29563W        W44694  16.017  15.361  13.145  0.1848  0.1171  0.1480
29564W        W44695  11.148  16.609   3.729 -0.2157  0.0005 -0.1420
29565W        W44696   6.622   4.826  12.610 -0.2449 -0.0978  0.1369
29566W        W44697  10.616   4.303   1.337  0.1012  0.0899  0.1896
29567W        W44698  17.986   2.091  11.457 -0.1905  0.4589 -0.2472
29568W        W44699  17.539   2.362  10.349  0.0491 -0.1237  0.1778
29569W        W44700   9.909   3.428  13.909 -0.2396  0.1845 -0.3035
29570W        W44701   1.220   1.027  10.961 -0.1340 -0.1564 -0.1647
29571W        W44702   2.338   1.042  10.679 -0.0098  0.0805  0.0234
29572W        W44703   9.511   0.858   4.590 -0.0394  0.1595  0.0044
29573W        W44704  11.291   5.908  11.878  0.2042  0.4068  0.1898
29574W        W44705  15.224   9.648   5.322 -0.0044  0.2095  0.0190
29575W        W44706   5.860   6.801  11.302 -0.1850 -0.1744  0.0522
29576W        W44707   4.823   4.429  14.650 -0.0348 -0.2808 -0.4374
29577W        W44708  10.746   0.005  15.065  0.1862  0.4283  0.3178
29578W        W44709   4.491   4.962   4.578 -0.2259 -0.1396  0.1430
29579W        W44710  17.849   1.175   1.227  0.0270  0.1717  0.1058
29580W        W44711   4.012  14.846  10.760  0.0512 -0.4226 -0.1628
29581W        W44712   5.944  16.588   1.527 -0.0809  0.1137 -0.1584
29582W        W44713  13.956  14.680   1.618  0.1847  0.1981 -0.0874
29583W        W44714  15.736  11.134  13.034 -0.0046 -0.1022  0.1051
29584W        W44715   5.597   0.620   1.070  0.2349 -0.1430  0.2689
29585W        W44716  14.694   8.344   4.480 -0.2605 -0.0457 -0.1135
29586W        W44717   7.695   1.584  15.789 -0.0210 -0.0246 -0.0820
29587W        W44718   9.760   9.858  10.267  0.1232 -0.0493 -0.1185
29588W        W44719   1.642  17.594  14.115 -0.1513  0.2082  0.2475
29589W        W44720   7.557   5.552  10.839  0.0624  0.1283  0.0644
29590W        W44721   4.644   0.662  10.910  0.0786 -0.0629 -0.1547
29591W        W44722  12.984  14.593   4.043  0.0449 -0.0098  0.0725
29592W        W44723  15.559   3.345  10.223 -0.1097 -0.0170 -0.1456
29593W        W44724   9.730  11.918  13.173  0.3123  0.0078  0.0177
29594W        W44725   0.386  15.717   0.977  0.3954 -0.1968  0.1112
29595W        W44726  10.230   3.520  14.861 -0.3739 -0.1630  0.0946
29596W        W44727  13.940  17.114  13.315  0.3190 -0.0621  0.0811
29597W        W44728   2.400  12.002  13.706 -0.1170  0.3192  0.1782
29598W        W44729  15.315   5.791   2.041  0.1257 -0.0550 -0.0862
29599W        W44730  18.448   7.802   3.122  0.0340 -0.0348 -0.0921
29600W        W44731   7.811   1.214   4.810 -0.0401 -0.2985  0.0680
29601W        W44732  17.890   6.938  11.234 -0.1126  0.0244 -0.1966
29602W        W44733  16.631   1.799   5.290 -0.0044 -0.1162 -0.3210
29603W        W44734  15.341   4.624   2.858  0.1069  0.1002  0.0664
29604W        W44735  10.535  17.850  12.508  0.2247  0.1000  0.2318
29605W        W44736  18.298  10.421   2.875 -0.0436 -0.1016  0.2187
29606W        W44737   0.251  10.485  11.786  0.2274 -0.0655  0.3776
29607W        W44738   7.235  14.873   1.640  0.0880 -0.0951  0.0754
29608W        W44739   4.891  14.792  15.561  0.1068 -0.0798  0.0101
29609W        W44740   5.227  15.198   3.764  0.0285 -0.0074  0.2517
29610W        W44741  13.876  13.330   2.514 -0.2515 -0.1826  0.1549
29611W        W44742  18.225   7.638   4.572 -0.1678  0.3100 -0.2735
29612W        W44743   0.327   5.297  14.052  0.0569 -0.0448  0.1930
29613W        W44744  12.187   5.386   2.579 -0.0120 -0.1843 -0.0621
29614W        W44745   3.852  13.712  12.989 -0.0124  0.0373  0.1903
29615W        W44746  12.369   8.182   4.306 -0.0010  0.1468 -0.0302
29616W        W44747   0.494  13.866   4.974 -0.1323  0.1516  0.3462
29617W        W44748   6.203  15.905   4.548  0.1892  0.0817 -0.1579
29618W        W44749   4.088  18.352   5.907 -0.1640  0.0498  0.1191
29619W        W44750   7.414   6.124   2.021 -0.0285 -0.1065  0.2003
29620W        W44751   1.397  12.675  12.645 -0.1612  0.0311  0.1555
29621W        W44752   7.265  11.023   1.636  0.1955  0.1023  0.0034
29622W        W44753  17.825   3.728  11.504 -0.1705  0.1799  0.1273
29623W        W44754  13.400   5.443  11.424 -0.1370  0.0984 -0.2482
29624W        W44755   1.098   2.480   1.517  0.1262  0.1203  0.0257
29625W        W44756  13.173  17.491  10.998 -0.1151  0.0304  0.0740
29626W        W44757   0.879  11.640   3.445  0.1125 -0.2315  0.3304
29627W        W44758   6.008  17.840  13.070  0.0931 -0.2982  0.3468
29628W        W44759   9.278   5.243   2.652  0.2488  0.2512 -0.0533
29629W        W44760  18.503  17.740   9.687 -0.0798 -0.1212  0.1926
29630W        W44761  17.943   8.761   0.798 -0.0809  0.3139  0.1048
29631W        W44762  11.807  17.126  10.997  0.0692 -0.0628 -0.0658
29632W        W44763   5.054  12.058   0.406  0.3053  0.2199 -0.1900
29633W        W44764   5.392   9.851   1.160  0.1883 -0.2964  0.1136
29634W        W44765   4.144   9.861  12.530 -0.4097  0.1181  0.0279
29635W        W44766   6.623  16.802   2.090  0.1952  0.2462  0.1498
29636W        W44767   7.265   9.868   5.425  0.2265 -0.1271 -0.0267
29637W        W44768   3.950   4.108  10.774 -0.1785  0.0386  0.1373
29638W        W44769   7.298  10.701   2.353  0.0862 -0.1209  0.1313
29639W        W44770  17.572  12.466  11.830 -0.0134 -0.1713  0.1996
29640W        W44771  17.042  16.659  13.730 -0.1373 -0.1139 -0.1779
29641W        W44772   0.491  13.389  13.379  0.0349  0.3315 -0.0137
29642W        W44773  16.139   4.340  15.592 -0.1436 -0.0590  0.2890
29643W        W44774   4.492  11.859  10.484  0.2415  0.0873  0.2748
29644W        W44775   3.881   5.961   2.149  0.1364 -0.0584 -0.0119
29645W        W44776   7.791   0.862   1.674 -0.1000 -0.3065 -0.0317
29646W        W44777  13.087  15.961  10.887  0.1827 -0.1361 -0.1177
29647W        W44778   0.589  16.051  12.660  0.0012 -0.1971 -0.0549
29648W        W44779   6.035  15.013   3.031  0.2153 -0.2301 -0.0162
29649W        W44780  11.275  15.613   3.657 -0.2571 -0.0901 -0.1098
29650W        W44781  15.349   5.088  13.721  0.1145  0.1715 -0.0861
29651W        W44782  16.507  12.171   4.132  0.1756 -0.1407  0.0512
29652W        W44783   0.747  12.059   2.285  0.3036  0.1396  0.1654
29653W        W44784  18.369  13.806   5.773  0.1675 -0.0920  0.0058
29654W        W44785  13.804   8.878  12.386  0.1305 -0.2645  0.0857
29655W        W44786  11.503   2.314   5.595 -0.1268  0.2550 -0.2154
29656W        W44787  14.648  12.818   2.232  0.2237  0.0990  0.0080
29657W        W44788  17.532   1.693   4.219  0.0756 -0.0951 -0.4735
29658W        W44789   5.986   8.615   3.819 -0.3015  0.2257 -0.1362
29659W        W44790   4.891  16.475  11.107 -0.2809  0.3974 -0.2554
29660W        W44791  17.982   0.093  15.529 -0.0086 -0.2628  0.1896
29661W        W44792  15.033  17.237   4.623  0.0260  0.3229 -0.3590
29662W        W44793  12.239   3.352   3.227  0.0457  0.1087 -0.1617
29663W        W44794  13.400  16.976   4.093 -0.1325  0.0065 -0.0906
29664W        W44795  17.688  11.537  10.249 -0.1939 -0.1382  0.0520
29665W        W44796  11.880  13.663  12.063 -0.2520 -0.5165 -0.1459
29666W        W44797   3.771  17.169  12.216  0.1697 -0.1025  0.0527
29667W        W44798   3.257   4.311  13.994  0.0233  0.0574 -0.1083
29668W        W44799   0.467   4.479  12.151 -0.1721  0.2270  0.1145
29669W        W44800   7.254  17.787   2.939 -0.0731  0.1468 -0.2105
29670W        W44801   5.494   6.927   2.425  0.3387  0.1231  0.4126
29671W        W44802   1.132   7.335   4.412  0.0590  0.1057  0.1429
29672W        W44803   0.504  17.461  11.916 -0.1266 -0.2298  0.2042
29673W        W44804   5.035  17.388   9.862  0.0343  0.0546  0.2083
29674W        W44805   3.917  10.053   9.837 -0.2165  0.1186  0.1231
29675W        W44806   8.319   3.270   1.739  0.0135  0.2782  0.2887
29676W        W44807  10.473   1.325   3.906  0.0087 -0.4136  0.1136
29677W        W44808   7.500  11.913   2.639  0.0060  0.1929  0.0625
29678W        W44809   5.994  13.605  12.264 -0.1037 -0.4802  0.0972
29679W        W44810  14.241  16.255  14.279 -0.3561  0.2142  0.3254
29680W        W44811  11.794   7.266   4.055 -0.1257 -0.0797  0.0647
29681W        W44812  11.712  10.403   3.142  0.1080 -0.0972 -0.3930
29682W        W44813   0.170  10.964   6.237 -0.0609  0.0836 -0.1454
29683W        W44814   3.175   5.393   2.329  0.0542 -0.1668 -0.1580
29684W        W44815   8.922  14.540   1.060  0.1196  0.0472  0.1215
29685W        W44816   1.926   8.329  10.357  0.0024  0.2474  0.2529
29686W        W44817   8.551   8.747  13.526 -0.0219  0.0114 -0.3253
29687W        W44818   0.781   4.978  12.035  0.1478 -0.2540  0.2256
29688W        W44819   6.817   7.186   4.498  0.1429 -0.0697  0.1810
29689W        W44820   8.690  18.378   3.802 -0.0451  0.0101  0.0431
29690W        W44821   5.828  11.118  15.036 -0.1613 -0.1124 -0.4294
29691W        W44822  15.008   9.799   0.622 -0.2212 -0.1496  0.0664
29692W        W44823  15.025   3.590   0.044  0.0824  0.1893  0.0531
29693W        W44824   3.431   5.621  14.655 -0.0477  0.3776 -0.1570
29694W        W44825   0.385  11.911   2.781 -0.0619 -0.2330  0.1125
29695W        W44826   4.328   3.027   5.528  0.0116  0.1644 -0.0432
29696W        W44827   1.728   8.349  14.864 -0.1778  0.0329 -0.0018
29697W        W44828  12.657   0.274  11.103 -0.0592 -0.0940  0.0928
29698W        W44829  14.408  17.921  13.615 -0.0029 -0.1322 -0.0909
29699W        W44830   1.616   7.190   0.610  0.0712 -0.2592  0.0115
29700W        W44831   0.843   3.131  13.111  0.0213  0.0111  0.1588
29701W        W44832  15.269  15.954  12.892  0.0863  0.3701  0.0617
29702W        W44833  17.408  15.614  13.367  0.0674  0.3171  0.0825
29703W        W44834  16.423   4.387  12.457 -0.0468  0.1498  0.2557
29704W        W44835  11.512   7.003  15.106 -0.1989  0.4205  0.0803
29705W        W44836   7.323   0.217   3.604  0.0939  0.2863 -0.2571
29706W        W44837   0.793  10.565  15.399 -0.1794  0.1200 -0.3158
29707W        W44838  12.857   4.958  12.726 -0.2828  0.1685 -0.4266
29708W        W44839   1.353  10.573  14.706 -0.1181  0.1678  0.0854
29709W        W44840   3.664  14.451  15.777 -0.4957  0.1062 -0.0535
29710W        W44841  17.723   6.296   2.914 -0.2622  0.0467 -0.0657
29711W        W44842  11.785  16.304   3.516  0.2095 -0.1199  0.1353
29712W        W44843   9.115  17.777   3.579  0.1798 -0.4468 -0.0615
29713W        W44844   7.428  14.793  11.222  0.0227  0.2784 -0.0075
29714W        W44845  13.608  16.463   1.093 -0.1256  0.1923  0.0203
29715W        W44846   1.441   9.593  15.069  0.1147 -0.0026  0.1222
29716W        W44847  12.332  15.877  13.953 -0.3188 -0.1000 -0.4339
29717W        W44848   4.683  15.776   4.794  0.0161 -0.0339 -0.2182
29718W        W44849   6.800   6.830  13.159 -0.0530  0.4277  0.0051
29719W        W44850  16.445  14.009   9.990 -0.2730  0.1088  0.3033
29720W        W44851   2.105   6.966   3.474 -0.2454 -0.1276 -0.0586
29721W        W44852   0.906   5.529  15.263  0.0969  0.0173 -0.1079
29722W        W44853  13.184   8.447   2.170 -0.0678  0.0828 -0.1439
29723W        W44854  12.096   4.953   5.331  0.4208  0.2159  0.0254
29724W        W44855  16.979   9.901  13.250  0.1168 -0.0804 -0.4999
29725W        W44856   3.960   6.341  11.475  0.0025 -0.0180 -0.0228
29726W        W44857  10.930  15.752  14.328 -0.2770 -0.2416  0.1631
29727W        W44858   5.871   7.851  15.328  0.0408 -0.0942  0.2551
29728W        W44859   0.248   0.884  10.128  0.0536 -0.1125  0.0544
29729W        W44860   5.870   7.817   0.377  0.0481  0.2774  0.3002
29730W        W44861   9.447   6.767   4.725 -0.0092  0.2082  0.0406
29731W        W44862  16.120  16.365   9.949 -0.0549  0.0223 -0.3250
29732W        W44863  16.460  16.774   0.268  0.1796  0.0912  0.0079
29733W        W44864  10.712   9.400   0.193  0.0224 -0.1110 -0.1423
29734W        W44865   1.833   4.126  13.218 -0.3832  0.2449  0.0096
29735W        W44866  12.034   2.885  13.095 -0.0521 -0.1727 -0.1736
29736W        W44867   3.183   3.709  10.985 -0.1256 -0.3313  0.0861
29737W        W44868   0.237   4.126  12.525  0.2857 -0.2509  0.0394
29738W        W44869   9.897   4.514   0.798 -0.2092 -0.2211 -0.3097
29739W        W44870  11.980   3.541   4.087 -0.2640  0.0769  0.3355
29740W        W44871  15.140   5.361   0.809 -0.1985  0.1505 -0.2478
29741W        W44872   2.781   1.093   4.349  0.1674 -0.0168 -0.1407
29742W        W44873   8.578   5.503  12.957  0.0078 -0.0101  0.0150
29743W        W44874   1.691   8.512   1.092 -0.0450  0.3527  0.0113
29744W        W44875  12.962  12.569  12.570 -0.0813 -0.0231 -0.0121
29745W        W44876   7.469   5.971  11.119  0.1986 -0.0644 -0.4914
29746W        W44877  16.359   7.805   4.239 -0.0982  0.1904 -0.4462
29747W        W44878   5.870   2.123  14.332 -0.2873 -0.1819  0.2349
29748W        W44879   4.674   6.802  11.829  0.0894 -0.1367 -0.0825
29749W        W44880   2.109   1.307  14.750 -0.0586 -0.1053  0.1734
29750W        W44881  17.117   6.294  14.535 -0.2734 -0.0658 -0.0167
29751W        W44882   2.762   2.948  13.244  0.1500 -0.0635 -0.4438
29752W        W44883   9.456   6.821   4.227 -0.1771 -0.0955 -0.3651
29753W        W44884  13.839   9.619  12.937 -0.1307 -0.2020 -0.1765
29754W        W44885  10.204  13.550  13.708 -0.3193  0.2331  0.1260
29755W        W44886  11.242   4.538   2.235  0.0937 -0.0177  0.3250
29756W        W44887   3.224  18.041   4.454  0.1518 -0.0807  0.0427
29757W        W44888  16.649  17.764   1.132  0.3077 -0.1277  0.0399
29758W        W44889   2.230   2.215   3.337 -0.0008 -0.2194 -0.1767
29759W        W44890  18.171   8.274   3.365 -0.1415  0.0502 -0.3263
29760W        W44891   7.252  16.531   3.816 -0.2594 -0.0117  0.0034
29761W        W44892   9.355   6.340  10.941  0.2731  0.2710  0.0692
29762W        W44893   7.368   7.589  12.944  0.1300  0.1359 -0.0187
29763W        W44894   5.432   0.581  11.075 -0.0495 -0.0126  0.0403
29764W        W44895   8.987   1.836  11.215 -0.1296  0.0281  0.0326
29765W        W44896  17.749   8.819   4.187  0.1561 -0.3068 -0.0002
29766W        W44897   6.006   2.848   0.829 -0.0086 -0.0910 -0.2302
29767W        W44898   3.055   4.269  11.741  0.0518  0.1682 -0.1924
29768W        W44899  17.714   5.940  10.952 -0.1840 -0.0749 -0.1120
29769W        W44900   2.316  11.526   0.105  0.3490  0.2236  0.2963
29770W        W44901   3.326   9.334  10.935 -0.3617  0.0811  0.0049
29771W        W44902   9.064   7.950  14.494  0.0649  0.2431  0.4405
29772W        W44903  10.826   3.587  12.861  0.4380  0.2585  0.0561
29773W        W44904  11.056  11.052  11.276 -0.1614 -0.2431 -0.1732
29774W        W44905   3.411  17.951   1.362 -0.0571 -0.0872  0.1493
29775W        W44906  14.798  11.920  14.603  0.2238  0.0221 -0.0993
29776W        W44907   1.741  17.305   1.476  0.4569  0.0362  0.3495
29777W        W44908   3.136  13.379   1.194  0.0382 -0.0890  0.3863
29778W        W44909  17.604  16.171  13.864  0.0044  0.0313  0.4630
29779W        W44910  16.727  10.138   5.138 -0.1232  0.4657 -0.0246
29780W        W44911   0.432   3.082   1.716 -0.0943  0.1197  0.1564
29781W        W44912  15.120   9.514  13.475  0.2530 -0.3015 -0.5227
29782W        W44913  17.656   5.161  12.004  0.1390 -0.2132 -0.0030
29783W        W44914  11.416   6.918  13.666 -0.1468  0.0597  0.1519
29784W        W44915   5.123   2.390   1.816  0.1485 -0.0032  0.1045
29785W        W44916   5.432  16.736   1.631  0.3000 -0.1384 -0.0371
29786W        W44917   3.065   0.353   4.630 -0.0079 -0.2345  0.0536
29787W        W44918   1.404   6.903  11.843 -0.1930 -0.4649 -0.1920
29788W        W44919  11.811  10.120   4.574 -0.0332  0.1160  0.1587
29789W        W44920   3.916  17.929  12.056  0.1011 -0.0666 -0.0569
29790W        W44921  14.021  16.281   5.184 -0.1214  0.1500  0.1719
29791W        W44922  15.784   5.497  13.711 -0.0378 -0.1350 -0.0661
29792W        W44923   7.411  12.909  10.685 -0.0316  0.0944  0.2204
29793W        W44924  14.032  15.220   1.665 -0.0510  0.0193 -0.1447
29794W        W44925  14.877  10.045   4.610 -0.0873 -0.0014 -0.0228
29795W        W44926  11.038  10.285   4.171  0.1314  0.0601  0.5076
29796W        W44927  17.452   5.919  11.873  0.0971 -0.2790 -0.0009
29797W        W44928  11.762  13.406  12.687 -0.1909  0.0453 -0.1538
29798W        W44929  11.620  16.639  11.077 -0.0135 -0.0094 -0.4294
29799W        W44930  18.226  10.900  12.081  0.3919 -0.1299 -0.1611
29800W        W44931  18.373  16.597  13.115  0.0259  0.1053  0.1271
29801W        W44932   0.124  16.661  12.680 -0.1148 -0.2517 -0.1103
29802W        W44933   9.999   1.308   1.804  0.3654 -0.0713  0.1230
29803W        W44934   1.058  17.265  14.879  0.2369 -0.3130  0.0287
29804W        W44935   3.635  15.237   2.412  0.0332  0.1326 -0.1985
29805W        W44936   7.372  13.380   5.004 -0.0988  0.0253 -0.2657
29806W        W44937   7.497  18.067  11.918 -0.1931 -0.2663 -0.1719
29807W        W44938  18.131  13.699  15.309 -0.0594 -0.0156  0.2860
29808W        W44939  16.207   9.474   4.926 -0.0438 -0.0811  0.3004
29809W        W44940  17.425   6.254   2.100  0.2584 -0.0903 -0.2250
29810W        W44941  17.478  11.472  13.433  0.0429 -0.1696 -0.4388
29811W        W44942   8.196  12.757   2.530  0.0368  0.0571  0.0001
29812W        W44943   4.867  15.928  11.192  0.2439 -0.2066  0.2009
29813W        W44944  14.404   1.353  12.447  0.2307  0.0664 -0.1716
29814W        W44945  10.240  11.799   1.233 -0.0766  0.1717  0.2318
29815W        W44946  17.808  12.354  11.370  0.1515  0.1136 -0.2292
29816W        W44947   7.341   5.595  11.944 -0.2727 -0.0364 -0.2285
29817W        W44948   8.414   7.165  14.960 -0.3999  0.1339 -0.2331
29818W        W44949   3.675  15.872  14.722 -0.1860 -0.1672 -0.1457
29819W        W44950   2.204  12.589   5.422 -0.0579 -0.5047 -0.1074
29820W        W44951   5.893  16.537  10.822  0.0944  0.0537 -0.0750
29821W        W44952   6.177  10.481  14.845  0.2743  0.1924 -0.1197
29822W        W44953  13.553   3.097   0.534  0.1621 -0.2372  0.1416
29823W        W44954  15.257   8.884  13.453  0.0277  0.0164  0.0368
29824W        W44955  10.915   9.215   0.689 -0.3641  0.0250 -0.2579
29825W        W44956   6.604   6.346   1.851  0.2564  0.2190  0.0535
29826W        W44957   0.956   5.283  11.695 -0.1016 -0.1400  0.1199
29827W        W44958   6.779  16.852  11.633  0.3054  0.0521  0.3001
29828W        W44959   0.514  17.074   4.456 -0.0674  0.0545 -0.0987
29829W        W44960  10.199   0.089   4.888 -0.0210 -0.0472 -0.2713
29830W        W44961  17.243  15.747   0.227  0.2421  0.1092 -0.1261
29831W        W44962  13.893   6.942   5.191 -0.2213  0.4376 -0.0839
29832W        W44963  12.115  11.348   4.571 -0.1802 -0.1155 -0.2521
29833W        W44964  16.972   1.469   2.988  0.1559 -0.1281 -0.0906
29834W        W44965   4.079   4.856  14.729 -0.1858  0.3026  0.0717
29835W        W44966   0.447  14.419   3.158  0.0888 -0.0946  0.0049
29836W        W44967  12.507   6.426  10.228 -0.0395  0.3138  0.2326
29837W        W44968   0.825   4.151   3.591 -0.3804 -0.3086 -0.0230
29838W        W44969   0.676   0.427   2.409 -0.0762 -0.0649  0.0374
29839W        W44970  15.560  16.614   4.055  0.1301  0.0943 -0.3270
29840W        W44971  10.974   0.738  15.193  0.0176 -0.0477 -0.1051
29841W        W44972   4.349  17.389   0.076  0.1300 -0.1125  0.0599
29842W        W44973   1.765   4.977   1.037  0.0933  0.1907  0.0870
29843W        W44974  17.905  13.739   2.912 -0.2414  0.0880  0.0598
29844W        W44975   1.193  10.690   0.487  0.1277  0.1367 -0.1659
29845W        W44976   0.849   5.195   4.276 -0.3654 -0.1408  0.0869
29846W        W44977  14.026  10.766   3.151  0.2204 -0.3115  0.0965
29847W        W44978  13.513   5.404  10.931 -0.0127 -0.0845  0.2280
29848W        W44979  11.424   0.704   2.589 -0.2944 -0.2904 -0.3082
29849W        W44980  14.505  11.072   0.552 -0.2326  0.1975 -0.1062
29850W        W44981   0.196   4.631   2.252 -0.2157  0.0117  0.0538
29851W        W44982  14.514  13.530  11.231 -0.4132 -0.4504  0.0210
29852W        W44983   8.597  11.031  12.204  0.3884  0.2896  0.2929
29853W        W44984   8.319  16.807   2.286  0.2924 -0.0032 -0.3080
29854W        W44985  14.837  14.712   0.742  0.0038 -0.0884  0.0355
29855W        W44986  11.103  17.372  15.156 -0.2866 -0.1908 -0.0118
29856W        W44987  17.115  15.009  10.711 -0.4480  0.2204  0.4395
29857W        W44988  16.622   9.780   4.251  0.4464  0.0398 -0.1352
29858W        W44989  17.596  12.561   1.444  0.0584 -0.2832 -0.0261
29859W        W44990   5.803   5.623   1.169 -0.2739  0.0326 -0.0157
29860W        W44991   6.057   2.249   1.621 -0.0515 -0.3129  0.0869
29861W        W44992   7.250  17.779   3.471 -0.1252 -0.0390 -0.1498
29862W        W44993  14.432   7.732  12.994  0.0712  0.1244  0.3015
29863W        W44994   6.919  16.276  10.223 -0.3631  0.0848 -0.3353
29864W        W44995  15.845   6.451   4.699  0.0281 -0.3646  0.1834
29865W        W44996   0.387  18.469   1.626 -0.1548 -0.0336 -0.1086
29866W        W44997   1.292   9.676  15.886  0.0839  0.0867  0.0368
29867W        W44998   1.981  11.460   4.296  0.3143  0.2045 -0.0183
29868W        W44999   6.382   9.606   4.160  0.1523  0.0585  0.2654
29869W        W45000   0.451   6.804  13.504  0.4023 -0.1202  0.2519
29870W        W45001   5.036   7.005   4.272  0.1249 -0.1416 -0.0876
29871W        W45002   6.319  12.716  15.602 -0.1739  0.0323 -0.2112
29872W        W45003   8.670   0.598  15.139 -0.2157 -0.0416  0.0216
29873W        W45004  15.565   4.645  15.069  0.1518 -0.4768  0.1335
29874W        W45005   3.923   4.302  14.486 -0.2049  0.1418  0.2223
29875W        W45006  12.552  17.001   3.350 -0.2691 -0.3798  0.0930
29876W        W45007   6.018  15.731   5.879 -0.0839  0.3328  0.3614
29877W        W45008  16.318  17.659   3.939  0.0042  0.0236 -0.1985
29878W        W45009  13.753   3.316   2.182 -0.2006 -0.1002 -0.1046
29879W        W45010   3.595   9.412  11.386  0.1915  0.2677  0.0583
29880W        W45011  15.335   4.770  14.091  0.1767  0.1274  0.0184
29881W        W45012   3.970  15.642  14.230 -0.1568  0.1278 -0.5213
29882W        W45013   6.035   1.239  13.528 -0.1347  0.0272  0.2560
29883W        W45014   4.748  16.151  14.136 -0.3091 -0.0230  0.3389
29884W        W45015   3.124  12.041   0.971 -0.0562  0.1282 -0.1489
29885W        W45016  17.846   7.794   1.208 -0.0041 -0.2703  0.0838
29886W        W45017  12.738   4.007  11.568 -0.1031 -0.2715  0.0766
29887W        W45018   0.497  17.005  14.249  0.0266 -0.0334 -0.1103
29888W        W45019   7.657   2.001  14.150 -0.0571  0.1557 -0.0121
29889W        W45020  10.768   2.021  11.795  0.1868  0.1482  0.1780
29890W        W45021   2.413   6.051   0.359  0.1537  0.0946 -0.3770
29891W        W45022  11.775  15.130  11.906 -0.1384  0.1942 -0.2592
29892W        W45023   5.946   6.230  13.496  0.0766  0.0226  0.2307
29893W        W45024  11.646  17.625   4.289  0.2734  0.3235 -0.1302
29894W        W45025  14.517   1.300   3.434  0.0002 -0.1085  0.0584
29895W        W45026  14.071  13.398   3.347 -0.1659 -0.1092  0.0257
29896W        W45027   4.880   6.614  15.157  0.3407  0.0184  0.0783
29897W        W45028  12.889   9.294  10.979 -0.3426  0.1444 -0.0101
29898W        W45029  17.196   3.211   2.597  0.3697  0.1602  0.3962
29899W        W45030   9.766   3.695  12.442  0.2507 -0.2632  0.0590
29900W        W45031  15.432   5.692   4.647  0.2279  0.0572  0.2008
29901W        W45032   7.827   3.831   1.021 -0.0643 -0.0147 -0.1744
29902W        W45033  11.575   2.323  11.590 -0.0339  0.0064  0.4279
29903W        W45034  15.131   3.106   0.154  0.4081 -0.0263  0.4100
29904W        W45035   2.097  12.125   5.356 -0.0262  0.0278 -0.2009
29905W        W45036  14.759   9.319   6.218 -0.0712 -0.0257 -0.2548
29906W        W45037  12.476  15.162  12.743 -0.3264  0.0340  0.2495
29907W        W45038   2.101  16.814   1.596 -0.3054  0.0334 -0.3362
29908W        W45039   0.585   9.704   4.741  0.0422 -0.1007 -0.3113
29909W        W45040   7.995  17.715  11.445  0.2341  0.0082  0.0925
29910W        W45041   6.238  12.753   1.593 -0.2076  0.0180  0.1987
29911W        W45042   3.709  14.612   3.503  0.3659 -0.0363 -0.0882
29912W        W45043  14.802  12.457  12.686  0.1020  0.0591  0.1980
29913W        W45044  14.768   8.219  14.236 -0.3011 -0.1305  0.0275
29914W        W45045  18.099   6.446  11.872  0.0046 -0.1447 -0.2140
29915W        W45046  13.317   2.988   0.125 -0.1288  0.0844  0.1914
29916W        W45047   0.769  16.327   2.102 -0.3429  0.2559 -0.2038
29917W        W45048  10.494   4.237   1.848 -0.0652 -0.2128 -0.2169
29918W        W45049  12.834   4.454  13.717 -0.1264  0.0635 -0.0682
29919W        W45050   2.480  18.237  10.134  0.1259 -0.0911  0.0639
29920W        W45051   7.187   6.724  15.877  0.0292 -0.0735  0.1405
29921W        W45052   1.442   5.828   2.562  0.0279 -0.1124  0.0284
29922W        W45053  10.675  15.652  13.384 -0.2715 -0.1325 -0.1000
29923W        W45054   4.832  15.616   3.352  0.0796  0.4699  0.1343
29924W        W45055   5.297  16.587   2.903  0.0992 -0.2388 -0.2187
29925W        W45056   3.756  17.513  14.573  0.1922  0.1557 -0.0185
29926W        W45057   1.390  14.674   5.043 -0.3196 -0.1402 -0.0412
29927W        W45058   7.521   4.147  14.082  0.3051  0.1186  0.2636
29928W        W45059   9.964   7.351   2.445  0.1782  0.2051  0.0215
29929W        W45060  10.356   0.240   0.377  0.2064 -0.2891 -0.0295
29930W        W45061   1.438   3.900  14.255 -0.1784  0.3811 -0.2848
29931W        W45062  18.028  10.678  12.477 -0.1220 -0.0446  0.1274
29932W        W45063   4.845   2.822   1.778 -0.0601 -0.1448  0.1070
29933W        W45064  12.160   6.341  15.283 -0.0950  0.0692 -0.1398
29934W        W45065  12.532  12.426   0.073  0.0263 -0.1973  0.1297
29935W        W45066   0.633   3.703   2.322  0.1332 -0.1210 -0.0806
29936W        W45067  13.093  16.855   3.330 -0.1565  0.1252 -0.1068
29937W        W45068   8.835   1.929  11.734  0.4263 -0.2585  0.2784
29938W        W45069  16.743   5.635   3.730 -0.0191  0.0176  0.0864
29939W        W45070  13.948  13.791   2.301  0.2386  0.1766  0.0267
29940W        W45071   4.397  16.190  14.547  0.1666  0.0309  0.0192
29941W        W45072  10.510  13.582   4.387 -0.0858  0.0974  0.0568
29942W        W45073   9.532  14.960  10.740  0.1544  0.2631 -0.4637
29943W        W45074  14.174   5.846   2.108  0.1852 -0.1033 -0.0880
29944W        W45075   8.697   8.345   4.654 -0.1852  0.3738 -0.0629
29945W        W45076  13.871  16.278  13.279 -0.1973 -0.0835 -0.1627
29946W        W45077  11.297  14.109  12.535 -0.0970  0.1367 -0.3973
29947W        W45078  11.589   8.900  15.258  0.1231  0.2260  0.0084
29948W        W45079   7.345   1.818   4.932  0.2984 -0.2135  0.1303
29949W        W45080  15.204   7.528   1.822  0.0148  0.2571 -0.2743
29950W        W45081   4.637   7.029  14.269  0.1247 -0.2121 -0.2432
29951W        W45082   4.331   0.678   4.661  0.3789  0.1276  0.0568
29952W        W45083   2.887   9.726  15.683  0.0914  0.1494  0.0423
29953W        W45084   2.713  15.495  11.985 -0.0478  0.0397 -0.2257
29954W        W45085   4.271   7.522   2.218 -0.1519  0.2290  0.1968
29955W        W45086  14.679   7.076   0.018  0.0362 -0.0917  0.2671
29956W        W45087   3.408   0.590  13.109  0.0437  0.2433  0.1677
29957W        W45088   5.752  16.629  15.531  0.0791 -0.0413  0.0179
29958W        W45089   4.440   6.995   6.057  0.2972 -0.1099 -0.1313
29959W        W45090  13.990  14.295  15.408 -0.1414  0.0596  0.1363
29960W        W45091   7.550  16.919  13.234 -0.1469 -0.3470 -0.1664
29961W        W45092  15.748   6.270  13.581 -0.0520 -0.3382 -0.0929
29962W        W45093  18.484  10.070  14.468 -0.0751  0.1138 -0.0289
29963W        W45094  10.077  15.410   2.741  0.1414 -0.1894 -0.0928
29964W        W45095  11.886   2.593   2.788  0.0927 -0.1262  0.0285
29965W        W45096  10.924  10.195   1.030  0.2875  0.0722 -0.1275
29966W        W45097  17.987  10.044   2.973  0.1321 -0.4408 -0.3566
29967W        W45098  14.231   1.470  11.371  0.1711  0.2018  0.2165
29968W        W45099   8.879  17.001   4.094  0.0890  0.2304  0.0200
29969W        W45100   2.418   8.265  12.039 -0.1928 -0.0306 -0.0102
29970W        W45101   3.870   3.894  12.948  0.2810 -0.0111  0.1820
29971W        W45102   9.459   7.622   2.633  0.0967 -0.0831 -0.3073
29972W        W45103   1.142  14.702  12.354  0.2265 -0.0198 -0.1317
29973W        W45104   7.497  17.372   3.174  0.0913  0.0223  0.0838
29974W        W45105   2.446  18.422   3.701  0.2861  0.0265  0.2068
29975W        W45106   3.902   6.538   5.135 -0.1992 -0.2554  0.0995
29976W        W45107  12.203   0.142   0.230  0.0716 -0.0462 -0.2207
29977W        W45108  14.983  13.738  11.421  0.1729 -0.2857 -0.0726
29978W        W45109   7.495   8.374   3.088 -0.0018  0.2348 -0.2076
29979W        W45110   3.362   8.628  15.604  0.1805 -0.1963 -0.2122
29980W        W45111   9.609   9.737  13.507  0.2103 -0.0442  0.3827
29981W        W45112   7.731   3.229  15.067 -0.0175  0.1014  0.2464
29982W        W45113  14.948  13.425  15.026  0.0448  0.1649 -0.2063
29983W        W45114  17.524   9.753  14.372 -0.3034 -0.1015 -0.3907
29984W        W45115   1.945   9.199   3.977  0.1198 -0.0039 -0.2250
29985W        W45116   9.320   9.610  10.426 -0.1237  0.0897 -0.0941
29986W        W45117  13.447  16.638   3.646 -0.0292  0.1500 -0.0412
29987W        W45118   7.528   1.570   0.392 -0.0378  0.3998  0.1052
29988W        W45119  10.517   1.807  11.415  0.2013  0.0754  0.1053
29989W        W45120   9.434   2.829   1.582 -0.3706 -0.0616  0.0788
29990W        W45121   6.113  17.317  11.370 -0.2447 -0.4029  0.0360
29991W        W45122   1.449   3.817   2.362 -0.0720  0.2938 -0.1272
29992W        W45123  14.404   4.240   1.435 -0.0680 -0.1619  0.0092
29993W        W45124   5.517   7.295   1.931 -0.1092  0.2525  0.0248
29994W        W45125   9.830   1.243  14.826 -0.2017 -0.0627 -0.1904
29995W        W45126  13.381   3.168  15.205  0.2661 -0.0461 -0.0670
29996W        W45127  11.833   1.686   5.030 -0.3874  0.0843 -0.0244
29997W        W45128   5.976   7.973  13.045  0.0997  0.2194 -0.3080
29998W        W45129   7.887   0.740  15.102  0.5013  0.0875 -0.0278
29999W        W45130  14.025   1.286   2.578  0.0960 -0.0235 -0.0229
30000W        W45131  13.441  16.428   2.514 -0.1459  0.2858 -0.1375
30001W        W45132  17.641   4.821  12.377  0.0048 -0.1284  0.0580
30002W        W45133   6.979   5.047  12.912 -0.3606 -0.3733  0.0831
30003W        W45134  18.241  10.108  15.814  0.1977  0.1986  0.0732
30004W        W45135  13.495   5.255  12.856  0.1585  0.0735 -0.0571
30005W        W45136  14.616   6.273  14.499 -0.0714  0.2370  0.2360
30006W        W45137   7.228  13.144   4.133  0.1541 -0.0207  0.0888
30007W        W45138  11.344  15.417   1.230 -0.1322  0.0105  0.0280
30008W        W45139  11.401   7.832  14.483 -0.3422 -0.2160  0.2805
30009W        W45140   5.857  18.515   9.756  0.0915 -0.0978 -0.0290
30010W        W45141  15.215  12.029   0.257 -0.0067 -0.1400 -0.1351
30011W        W45142  13.784  10.129   1.157  0.1065  0.2590  0.2780
30012W        W45143   4.730   9.865   1.958 -0.0855 -0.1850 -0.1354
30013W        W45144   2.353   9.578   4.010  0.1665 -0.2345  0.1731
30014W        W45145   8.094   6.260  12.512  0.0672 -0.1259  0.0918
30015W        W45146   3.297  14.136   0.740  0.2010  0.0525 -0.0785
30016W        W45147  18.348   8.247  11.921 -0.0155  0.0380  0.0713
30017W        W45148  11.044   4.013   4.464  0.3277  0.1569  0.2951
30018W        W45149  18.075   7.081   1.929 -0.0429 -0.1374  0.1355
30019W        W45150   7.285  16.936   3.497  0.1093 -0.1826  0.1332
30020W        W45151  14.198   6.281   1.412  0.4613  0.0676 -0.1287
30021W        W45152  17.432  12.645   3.506  0.2438  0.1467  0.1321
30022W        W45153  10.545   0.397  10.225  0.1069  0.0551  0.0119
30023W        W45154   9.812   8.856   0.050  0.0008  0.2100 -0.0551
30024W        W45155  14.666   0.116  13.104 -0.2160 -0.0910  0.0670
30025W        W45156  17.518  13.390  13.722  0.3193 -0.1911  0.2884
30026W        W45157  11.630   6.422   1.339 -0.0992 -0.1017 -0.1146
30027W        W45158  10.429  14.329  11.118  0.0098  0.1533 -0.5847
30028W        W45159   4.038  10.452   1.615 -0.1042 -0.1218  0.0278
30029W        W45160   2.768   0.861   4.954 -0.0009 -0.3923  0.0824
30030W        W45161  14.920   0.321   0.106  0.2129  0.1567  0.2018
30031W        W45162   1.846   3.851  13.635 -0.0838 -0.0808  0.2152
30032W        W45163  15.862  14.839   4.713 -0.0167  0.0611 -0.1453
30033W        W45164   2.243  16.138  14.598 -0.1037 -0.0091  0.1706
30034W        W45165   3.713   9.616  13.610 -0.1834 -0.0363  0.0136
30035W        W45166   5.068  11.346   4.647  0.1884  0.0213  0.1011
30036W        W45167   4.515   9.189   2.509 -0.2558  0.0241  0.4387
30037W        W45168   5.100  14.320   3.408  0.4042  0.1217 -0.1460
30038W        W45169  16.016  17.205  15.619 -0.1251  0.3130  0.0325
30039W        W45170  13.723   2.265   0.294  0.0000 -0.1454  0.2859
30040W        W45171   1.550   3.499  13.814  0.1800  0.0200 -0.0023
30041W        W45172  15.191  12.094  11.852  0.1259 -0.0143 -0.3071
30042W        W45173   7.538   2.777  13.943  0.0848 -0.0248 -0.3603
30043W        W45174   8.711   4.480  13.864 -0.2285  0.0131  0.1621
30044W        W45175   2.785   8.564   0.290  0.0142 -0.1483 -0.0828
30045W        W45176   2.029  16.476  11.777  0.3154  0.0173  0.3200
30046W        W45177   3.531   4.166  12.609  0.3790  0.0513 -0.0946
30047W        W45178  15.514  15.819  13.777 -0.2582  0.0697 -0.1732
30048W        W45179   8.924  13.181   1.551  0.0333  0.1250  0.1928
30049W        W45180  16.752  17.770  13.443 -0.0955 -0.1623 -0.2874
30050W        W45181  16.780  18.383   0.294  0.1525 -0.1317 -0.1682
30051W        W45182  11.976  16.650   1.739  0.3646  0.2333 -0.0094
30052W        W45183   3.277   2.911   0.574  0.1552 -0.1204  0.1741
30053W        W45184  10.807   1.839   0.524  0.1618 -0.0429 -0.1355
30054W        W45185   9.360  10.622   3.366 -0.1343  0.1599 -0.0175
30055W        W45186   8.818  15.244   1.040  0.3260 -0.0105 -0.0715
30056W        W45187   9.360  13.240  15.441 -0.0158 -0.0039  0.2771
30057W        W45188   8.439   7.378   0.942  0.0071  0.1922 -0.2497
30058W        W45189  12.972  14.150  15.566 -0.0091  0.0532  0.0478
30059W        W45190  12.567   3.804  11.173 -0.2359 -0.1638  0.2009
30060W        W45191  13.677  10.412  15.381 -0.2310 -0.0258 -0.0141
30061W        W45192   9.397   3.511   1.153  0.2535  0.2201 -0.0193
30062W        W45193  12.912   9.493  12.572 -0.1221 -0.3078  0.1219
30063W        W45194  13.762   2.146  11.804  0.0028 -0.0604 -0.2318
30064W        W45195   2.921  17.744   3.423  0.0231 -0.3025 -0.4225
30065W        W45196  12.681  10.536  14.347  0.2968  0.0258 -0.4619
30066W        W45197   6.630   9.939   0.448  0.0523 -0.0725 -0.0436
30067W        W45198   3.803   1.559   1.192 -0.5800 -0.1745 -0.3967
30068W        W45199  16.308  17.226   4.416  0.0111 -0.0503  0.1368
30069W        W45200  17.668   9.146   2.327  0.0436  0.0942  0.0289
30070W        W45201  14.071  14.015  13.187 -0.0143 -0.0110 -0.2158
30071W        W45202  16.995  13.957   5.057  0.1952  0.0457  0.1515
30072W        W45203  17.080  12.908   5.780  0.2175  0.0021  0.0444
30073W        W45204  18.527   2.782   4.362  0.0722  0.2447 -0.2318
30074W        W45205  16.157  13.840  11.675 -0.1695  0.3537  0.1141
30075W        W45206  16.434   0.324   2.679 -0.1019  0.0770  0.2730
30076W        W45207   2.480   8.359  11.526  0.1789  0.2966  0.1048
30077W        W45208   9.855  14.347   4.860  0.1734  0.0354 -0.3272
30078W        W45209   1.975  16.628  13.323  0.0577 -0.0065 -0.2218
30079W        W45210  15.731   7.734   3.555  0.0688  0.0746 -0.0327
30080W        W45211   7.869  16.265  11.899 -0.1673 -0.0762 -0.0607
30081W        W45212   9.739   5.601  13.009 -0.0848 -0.2740 -0.3710
30082W        W45213  15.696  12.890  13.102  0.0752  0.0227  0.2694
30083W        W45214  10.109  18.367   3.937 -0.0623  0.0955 -0.1820
30084W        W45215  16.656   8.312   4.555 -0.1543 -0.0757  0.1664
30085W        W45216  17.726   2.601   5.401 -0.1042 -0.0801 -0.1395
30086W        W45217  15.470   5.985  14.972  0.0259 -0.0140 -0.0415
30087W        W45218   7.851   4.777   3.087  0.1496 -0.1012  0.0933
30088W        W45219  10.751  11.783   3.962 -0.0263  0.0078 -0.1556
30089W        W45220  13.372  10.180   4.245  0.2488  0.0382  0.0946
30090W        W45221  15.922   0.118   5.004 -0.0623 -0.0797 -0.0264
30091W        W45222  14.666  17.726   0.375 -0.0281  0.0576  0.0944
30092W        W45223  10.274  11.695  15.647 -0.1338 -0.2426  0.0952
30093W        W45224  13.713   0.809   3.448 -0.1255 -0.2264 -0.3407
30094W        W45225  17.910   7.821   3.189 -0.0163  0.4987  0.2644
30095W        W45226   6.380  10.839  14.520  0.1726 -0.0129  0.0370
30096W        W45227  14.095  10.527  14.153  0.2927  0.0463 -0.0185
30097W        W45228   6.247   6.062   1.666 -0.0717  0.0591 -0.0153
30098W        W45229  10.733  15.341   5.361 -0.2326 -0.2165 -0.1805
30099W        W45230   1.544  18.059  14.913  0.0414 -0.2749  0.0199
30100W        W45231  15.656   8.861   3.799 -0.2712  0.1344 -0.2259
30101W        W45232  16.518   9.530   1.232 -0.1584 -0.0218 -0.0951
30102W        W45233   2.041  14.037   4.382  0.2661  0.1294  0.1204
30103W        W45234  17.579  15.554  12.799  0.0107 -0.0885 -0.2595
30104W        W45235   0.317   5.848   2.626  0.0411  0.0228 -0.0473
30105W        W45236  10.203  11.557  12.541 -0.0505 -0.4262 -0.1400
30106W        W45237  13.178   6.670  12.512 -0.0953 -0.0194 -0.1967
30107W        W45238   3.875  13.244  10.118  0.0775  0.3209  0.0363
30108W        W45239  17.792  15.597  14.884  0.2210  0.1671 -0.1556
30109W        W45240  18.250   0.565  12.614 -0.1333  0.0703 -0.1294
30110W        W45241  14.009  16.619   3.529  0.1426 -0.0485  0.0313
30111W        W45242   3.549   3.226  15.032  0.1395 -0.1491 -0.1093
30112W        W45243  12.064   5.127   9.820  0.2252 -0.3627 -0.2489
30113W        W45244   1.299  10.522   5.467  0.1406  0.0817  0.1993
30114W        W45245   5.687   8.311  12.588  0.2892  0.1141  0.1007
30115W        W45246   2.494  14.676   1.712 -0.2197  0.1339 -0.1563
30116W        W45247   9.608  12.096  10.577 -0.1664  0.0349  0.0019
30117W        W45248  14.133   6.181   3.610  0.1038 -0.0420 -0.1481
30118W        W45249   4.150   5.191   4.897  0.2149  0.0760  0.1880
30119W        W45250  12.577  14.231   0.516 -0.1781 -0.2575  0.0825
30120W        W45251   1.497   9.910  11.410  0.3274 -0.0653 -0.0748
30121W        W45252   3.509   2.589   3.526  0.1898 -0.0706  0.1939
30122W        W45253   4.703  12.929   0.523  0.1522 -0.0289 -0.3457
30123W        W45254   2.305  17.870  11.433  0.2514  0.2525 -0.0732
30124W        W45255  10.243   8.609   0.308 -0.0002  0.3874  0.1018
30125W        W45256   4.068  10.330  11.488 -0.1641  0.1364  0.0488
30126W        W45257  13.441  16.151   3.370 -0.1926 -0.1797  0.1833
30127W        W45258   9.621   2.655  13.208  0.2425 -0.2257  0.2573
30128W        W45259   1.002  17.962  14.774  0.0506 -0.0047 -0.0499
30129W        W45260   4.012  10.858   1.168 -0.1223 -0.2014  0.2926
30130W        W45261  13.858  16.618  14.161  0.1483 -0.1456  0.0089
30131W        W45262  16.868  16.440   3.994 -0.0244  0.1533  0.0699
30132W        W45263  18.139   0.161  14.548  0.1220  0.1469 -0.2376
30133W        W45264   2.815  14.828   2.151  0.0317  0.3043 -0.1029
30134W        W45265   5.878   0.885   1.649 -0.1018  0.2743 -0.0800
30135W        W45266  10.423   8.653   1.151 -0.1357  0.0851 -0.1653
30136W        W45267   9.654   1.748  13.460 -0.0935 -0.1246  0.3631
30137W        W45268   1.694  10.473  15.573 -0.2931  0.1293  0.1444
30138W        W45269   7.127  11.580   0.976 -0.0185  0.1630 -0.2481
30139W        W45270  10.105   3.028  14.731 -0.4909  0.1514 -0.1097
30140W        W45271   6.267  12.900   0.240 -0.2741 -0.1108 -0.3905
30141W        W45272  13.108   4.250  13.122 -0.1308  0.0467 -0.1463
30142W        W45273   1.246   4.995  14.435 -0.1913  0.1203  0.0485
30143W        W45274  10.726  12.266   2.638  0.1749 -0.1145 -0.0013
30144W        W45275   9.945   1.013   4.686 -0.1414  0.1146  0.2223
30145W        W45276  16.547  18.319  10.860  0.4291 -0.1513 -0.0456
30146W        W45277   7.803  15.271  12.740  0.0349  0.0141  0.2713
30147W        W45278   7.847  13.451  14.165  0.2804  0.1636  0.1338
30148W        W45279   3.380   3.239  10.792 -0.2843  0.4649  0.0703
30149W        W45280   6.852   1.211   1.408 -0.2397 -0.3310 -0.2441
30150W        W45281   1.364  18.467   4.739  0.0644  0.0158  0.0839
30151W        W45282   9.948   4.382  13.179  0.0680 -0.0095 -0.5598
30152W        W45283  14.300  18.187   5.560  0.2352 -0.2868  0.0508
30153W        W45284  12.669  12.064   0.579  0.3010  0.0230  0.1127
30154W        W45285   2.899   2.101   4.051  0.0110  0.2996  0.2920
30155W        W45286   5.841  16.796   0.742 -0.2399  0.2723 -0.1866
30156W        W45287  12.153  11.100  11.365 -0.1868  0.0648  0.2342
30157W        W45288   6.261  18.340  11.470 -0.0194  0.0007 -0.3656
30158W        W45289   9.295  15.897   2.727  0.0567  0.1104  0.1664
30159W        W45290  13.189   4.050   4.073  0.0073  0.1636 -0.0009
30160W        W45291  13.953  15.555  12.179  0.1404  0.3189 -0.1688
30161W        W45292   8.134  17.886   1.325 -0.3240 -0.0176  0.1908
30162W        W45293  16.766   8.596   2.841 -0.0703 -0.2706  0.2390
30163W        W45294  15.263   7.804   3.807 -0.1571  0.0669 -0.2300
30164W        W45295   6.472   1.042  13.928 -0.0041 -0.1272  0.1833
30165W        W45296   2.542   9.434  13.754  0.0826  0.0382 -0.0426
30166W        W45297  14.405  11.814   0.619 -0.1407  0.3240 -0.0585
30167W        W45298   6.653  16.224  14.300 -0.0061 -0.0641  0.1100
30168W        W45299  11.016  11.377   3.688 -0.0505  0.0020 -0.0521
30169W        W45300  13.897   5.463   1.223  0.1889 -0.1493  0.0846
30170W        W45301   6.206   4.464   4.316 -0.0270 -0.2665 -0.3373
30171W        W45302  12.633   4.120   2.617  0.2115  0.0103  0.0292
30172W        W45303   6.837   2.926   1.407  0.1404  0.0295 -0.1450
30173W        W45304  16.701   2.229   3.352 -0.1045  0.3229 -0.2102
30174W        W45305   0.175   3.538   5.880  0.0813 -0.0092  0.2419
30175W        W45306   4.824  16.102   2.330 -0.0201 -0.0389 -0.1893
30176W        W45307   2.634  13.695  11.283 -0.0256  0.1425  0.1900
30177W        W45308  12.221  17.964  14.971 -0.2381  0.1867 -0.2402
30178W        W45309   1.909  12.799  14.798  0.2169 -0.1404  0.1158
30179W        W45310   6.344  17.993  13.674  0.1698 -0.0158  0.0573
30180W        W45311  15.592   2.922   4.667  0.1478 -0.1389  0.0670
30181W        W45312  12.444   6.860   4.496  0.2646  0.0705 -0.1237
30182W        W45313  15.814  16.562  12.586  0.0106  0.0921  0.1621
30183W        W45314   9.170   9.970   3.190  0.0188  0.3576 -0.1230
30184W        W45315   0.747   9.169   0.130  0.0378  0.0111 -0.1067
30185W        W45316   4.731   8.432   0.712  0.1494 -0.1452 -0.3757
30186W        W45317  14.414  18.107   1.495 -0.1212 -0.2944  0.1860
30187W        W45318  11.819  11.873   3.916 -0.2306  0.0988 -0.0298
30188W        W45319   5.984  12.503   2.635 -0.0418  0.1459 -0.1330
30189W        W45320   2.194  14.531  12.145 -0.0137 -0.1055 -0.2381
30190W        W45321   1.423   4.910  15.262 -0.2755 -0.2407  0.3846
30191W        W45322  11.614  11.460   4.291  0.1046 -0.1050  0.3827
30192W        W45323   2.682   3.977   0.909 -0.5364  0.1266 -0.1512
30193W        W45324   9.712   6.853   0.015  0.0568  0.3619  0.2348
30194W        W45325  10.550   7.183  12.983 -0.0098  0.2150  0.0366
30195W        W45326  13.959  13.426  13.243  0.0634  0.1459  0.1694
30196W        W45327   8.260   8.417   0.817  0.4331  0.1805  0.1712
30197W        W45328   8.891   7.319   5.138  0.1137  0.3070 -0.0945
30198W        W45329  13.985   6.826  12.803  0.1412  0.0977 -0.3571
30199W        W45330   2.674  12.315   5.325  0.0255 -0.2837 -0.1344
30200W        W45331  16.622   5.313  14.144  0.2261 -0.2218 -0.1052
30201W        W45332   0.751   3.307  13.594 -0.1629  0.2632 -0.1705
30202W        W45333  12.893   5.587   3.156  0.0298  0.0629  0.3334
30203W        W45334  13.189   4.711  13.535  0.0907 -0.3366 -0.2520
30204W        W45335   1.978   4.990  13.546 -0.1546  0.1115 -0.0624
30205W        W45336  14.474   7.825  15.534  0.1638  0.3417  0.0698
30206W        W45337  16.394   1.974   5.846 -0.2346  0.1146 -0.2357
30207W        W45338  13.912   1.555  15.358  0.1129  0.0638  0.1293
30208W        W45339   3.684  11.556   3.025 -0.0108  0.1140 -0.1148
30209W        W45340  12.136   3.678  15.775 -0.0387 -0.2673 -0.2192
30210W        W45341   4.758  11.780   4.688 -0.0605 -0.0069  0.0007
30211W        W45342  16.070  13.404  13.878 -0.0525 -0.1623 -0.1268
30212W        W45343   3.043  13.842   9.893 -0.1779  0.0756  0.0757
30213W        W45344   8.641   0.884   4.171  0.2085  0.0996  0.1786
30214W        W45345   3.533   9.356   2.577 -0.1640 -0.3196 -0.2668
30215W        W45346   6.883   4.460   0.350  0.1890 -0.1963  0.0002
30216W        W45347  12.251  16.404   5.454 -0.0047 -0.0451 -0.3208
30217W        W45348   3.130   0.156   0.913  0.2226  0.0029  0.0045
30218W        W45349   4.281   7.023   0.011  0.1608 -0.0317 -0.0733
30219W        W45350  12.510  11.680  14.982  0.1265 -0.0876 -0.0692
30220W        W45351  13.394  10.905   0.643  0.0277 -0.1903 -0.0910
30221W        W45352  10.741   6.871  15.019 -0.0650  0.2652 -0.0999
30222W        W45353   8.963   1.938   3.275 -0.0588 -0.3561  0.0400
30223W        W45354  10.754  16.673  14.285 -0.1222 -0.0426  0.0210
30224W        W45355  11.304  16.985  15.453 -0.3537  0.1035 -0.1894
30225W        W45356   7.650   3.230  11.846 -0.0256  0.3612  0.0689
30226W        W45357  15.258  14.337  10.664  0.3208  0.1177 -0.0613
30227W        W45358  16.084   6.358  11.984  0.4728  0.1269 -0.1888
30228W        W45359  11.688   6.840  12.797  0.0792 -0.1047 -0.0864
30229W        W45360  10.493   7.418   1.316  0.2315 -0.1635 -0.1843
30230W        W45361   5.667   7.901   3.639 -0.2693  0.2979 -0.1417
30231W        W45362   0.960   6.047  12.303  0.0471  0.1863  0.0658
30232W        W45363   2.990   9.929   3.835 -0.0461  0.2813  0.1599
30233W        W45364  14.437  10.709   4.663 -0.1352 -0.0092  0.0014
30234W        W45365   0.426   6.647   1.777  0.5248  0.2453 -0.4261
30235W        W45366   7.906  17.286  12.910  0.0532 -0.0053  0.4309
30236W        W45367   6.411  15.704  12.972  0.0956 -0.0958 -0.2191
30237W        W45368   3.940  10.810   2.027 -0.0851 -0.0858 -0.0480
30238W        W45369  13.015   6.077   4.468  0.0734  0.0507 -0.0340
30239W        W45370  13.842   9.763   4.713  0.1262 -0.2025 -0.0367
30240W        W45371   4.564   4.811  12.361  0.3062 -0.1166  0.1785
30241W        W45372   8.836  15.396  10.343 -0.0761 -0.3058 -0.0315
30242W        W45373   9.765   2.981  11.928 -0.0611  0.1579  0.1281
30243W        W45374   6.901  13.261   2.648 -0.6855 -0.2633 -0.1442
30244W        W45375  17.307   7.681   5.741 -0.0938 -0.1342  0.2720
30245W        W45376  17.297   3.381   0.406 -0.3141 -0.1063 -0.0745
30246W        W45377  15.123  17.527   5.243 -0.0948 -0.1504  0.0246
30247W        W45378  18.099  15.701   2.576 -0.1225  0.0812 -0.1269
30248W        W45379   8.951  16.522  11.053 -0.2689  0.0373 -0.0828
30249W        W45380  16.683   3.517  14.560  0.1260  0.0613  0.0586
30250W        W45381   9.464   4.105  15.137 -0.0719 -0.0346 -0.1393
30251W        W45382   1.509   5.752   1.522 -0.0837  0.0880 -0.1618
30252W        W45383  15.141  12.955   0.143  0.0597 -0.0507  0.0015
30253W        W45384  13.007   9.152  14.992 -0.1409  0.0424 -0.0129
30254W        W45385  16.057   8.498  14.322 -0.1691  0.0804 -0.0367
30255W        W45386   2.856  14.489  13.849 -0.0158  0.1804  0.0691
30256W        W45387   3.631   1.022  14.789 -0.2243 -0.1059  0.1299
30257W        W45388   6.318   1.222   4.493  0.2052  0.0160 -0.0857
30258W        W45389   7.819  10.351   4.420 -0.3061 -0.0668 -0.1601
30259W        W45390   0.477  17.460  13.337  0.1445 -0.2250  0.1115
30260W        W45391  14.529  17.570  12.772 -0.0776 -0.0354  0.3782
30261W        W45392   5.798   6.689  13.409  0.1789 -0.0953 -0.3342
30262W        W45393   5.023   4.463   2.364  0.0987 -0.0522  0.1361
30263W        W45394   5.526   4.557   1.277  0.0943  0.0193  0.3827
30264W        W45395  16.116   8.005  13.174  0.1545 -0.0864 -0.0072
30265W        W45396   4.738  13.035   5.268 -0.2893 -0.0766  0.6290
30266W        W45397   6.107  10.742   3.009  0.1550 -0.1118  0.0803
30267W        W45398  10.248  13.637   3.563 -0.2997 -0.1476  0.1031
30268W        W45399  12.747  13.643  13.292  0.0837 -0.0129 -0.0013
30269W        W45400  11.432   2.647  12.006  0.2627  0.0180  0.2236
30270W        W45401   5.481  17.977  14.030 -0.3257 -0.3357  0.2340
30271W        W45402  17.230   7.515  15.269  0.0309  0.0815 -0.2594
30272W        W45403  10.394  11.744  14.907 -0.1480 -0.1040  0.2054
30273W        W45404   9.677   8.682  15.416  0.3712  0.0255  0.1734
30274W        W45405   6.704  13.656  11.068 -0.0021  0.0581 -0.1402
30275W        W45406   7.672   4.776  14.300 -0.1273 -0.3597  0.1201
30276W        W45407   1.167  12.083   1.209 -0.3136 -0.0528  0.2474
30277W        W45408   5.830  12.460  15.678 -0.3692  0.2038  0.0587
30278W        W45409   9.243   1.537   1.126 -0.2901 -0.2118  0.1738
30279W        W45410   0.562  12.098   5.145 -0.0682  0.2299 -0.2091
30280W        W45411  15.454  13.490   3.307 -0.0580 -0.1580 -0.0636
30281W        W45412  11.883  14.793   2.493  0.0262  0.1547 -0.0535
30282W        W45413   9.525  12.329  14.911  0.0140 -0.1983 -0.0054
30283W        W45414   3.457   4.862   0.608 -0.0339 -0.2278  0.2644
30284W        W45415  13.284  15.275   4.966 -0.0437 -0.0629  0.1990
30285W        W45416  15.519   3.558   3.738  0.0015  0.1084 -0.2286
30286W        W45417  12.749   8.566  11.319  0.0037 -0.2746  0.2450
30287W        W45418   3.084   6.946  11.007  0.2537 -0.4411 -0.2366
30288W        W45419   9.996  16.722  15.396 -0.3252 -0.0995 -0.1572
30289W        W45420   9.073  15.699  11.085  0.0298  0.0786  0.3560
30290W        W45421  12.975   5.185   1.286 -0.1695  0.1631 -0.2950
30291W        W45422  12.453   6.975  14.575 -0.0052 -0.1295 -0.0952
30292W        W45423  13.690  17.448   3.889  0.1912 -0.1636 -0.0771
30293W        W45424  14.104  11.953  11.976  0.0499  0.0332  0.0696
30294W        W45425  17.319   1.103   3.334  0.0605 -0.1347  0.0961
30295W        W45426  12.186   1.238  15.259  0.0185  0.0704 -0.0839
30296W        W45427   2.324  12.801   0.245 -0.1369 -0.2376 -0.1420
30297W        W45428   5.333  11.477  13.236 -0.1593  0.3565  0.2020
30298W        W45429  14.158   2.456  14.923  0.2528  0.2228 -0.1080
30299W        W45430  11.856   9.842  15.107  0.0256 -0.0525 -0.0461
30300W        W45431   2.344  12.514  13.824  0.2871  0.0499  0.0785
30301W        W45432  16.662   5.263   2.178 -0.0361 -0.0175 -0.3218
30302W        W45433   7.675  10.712  11.083  0.0374 -0.1958  0.1346
30303W        W45434  10.876   0.372  14.011 -0.2855  0.1041 -0.0937
30304W        W45435  17.720   0.877   3.548  0.2807  0.2407 -0.0918
30305W        W45436   4.143  13.132   4.631  0.1003 -0.0835  0.2848
30306W        W45437   2.759   2.611  15.700 -0.4266 -0.3470  0.1812
30307W        W45438   2.555  11.650  14.201 -0.3964 -0.0141 -0.3205
30308W        W45439   8.849   1.867  12.709  0.4416  0.2449 -0.0026
30309W        W45440  10.150  15.641   3.217 -0.0544  0.1325  0.0078
30310W        W45441  16.177  16.546   5.177 -0.0431 -0.0473 -0.0935
30311W        W45442  10.236   5.540  13.016 -0.2716  0.0427  0.0392
30312W        W45443   2.372  13.789   4.059 -0.0653  0.0993  0.0351
30313W        W45444   3.918   1.896   1.568  0.3663 -0.1530 -0.1984
30314W        W45445  11.832  13.664  14.746  0.1014 -0.1279 -0.0168
30315W        W45446  14.560   3.338   1.686  0.0262  0.1071 -0.1129
30316W        W45447  12.040   1.409  13.114  0.1201 -0.0462 -0.1961
30317W        W45448  14.439   1.222  15.098  0.1206  0.2776  0.1406
30318W        W45449  17.543  13.759   5.504  0.0382  0.0010 -0.2345
30319W        W45450   5.517  11.276   1.757  0.1768 -0.0679  0.4308
30320W        W45451  17.720  18.363  13.807 -0.0391 -0.3776 -0.1812
30321W        W45452  16.351   4.237  12.003  0.0162  0.1446 -0.0647
30322W        W45453   2.268   6.620  13.497  0.1822 -0.1499  0.0190
30323W        W45454  16.063  15.321  12.197  0.0883 -0.4707  0.1556
30324W        W45455  16.311  12.310  13.633  0.0060 -0.4457 -0.0802
30325W        W45456   1.074   1.971  14.615  0.2567 -0.0808  0.3244
30326W        W45457   7.762  16.677  11.623 -0.1154 -0.2453 -0.1781
30327W        W45458   7.165   0.595   3.323 -0.2424  0.1038 -0.0917
30328W        W45459  18.444  12.622   4.741  0.0712 -0.0363  0.3469
30329W        W45460   6.121  17.179  12.511  0.2437 -0.0967 -0.4685
30330W        W45461   6.956   2.873   4.591  0.0924  0.0536 -0.4440
30331W        W45462   4.219  13.762   1.463  0.0635 -0.2842 -0.2041
30332W        W45463  12.529  17.982  13.653  0.1451  0.0817 -0.0529
30333W        W45464  17.052  11.323   5.508 -0.0364  0.2642  0.1250
30334W        W45465   1.907   0.774   4.449 -0.1128 -0.1325  0.1378
30335W        W45466   0.948   8.479   0.486 -0.0024 -0.0508 -0.0161
30336W        W45467  14.999  15.780   3.868  0.0005 -0.2350  0.0821
30337W        W45468   0.069   6.418  14.644  0.2226  0.2969  0.2051
30338W        W45469   3.993   8.753  11.741 -0.0498 -0.1663 -0.0874
30339W        W45470  17.987  13.894  15.739  0.1938 -0.1404  0.0206
30340W        W45471   6.615  17.272  12.619  0.1562  0.2848 -0.4181
30341W        W45472  15.415  15.696   2.168  0.1368  0.2531  0.1656
30342W        W45473  16.006   1.620  13.725  0.0995  0.0765  0.0866
30343W        W45474  10.417  18.163   3.104  0.0745  0.1033  0.0712
30344W        W45475  14.416  14.056   3.573  0.1231  0.0905 -0.1622
30345W        W45476   2.318   6.611   2.743 -0.0655  0.1876  0.2182
30346W        W45477  12.013  13.708   3.622  0.1168 -0.2761  0.3478
30347W        W45478  13.826   9.839  12.211 -0.0104 -0.1494  0.1985
30348W        W45479  17.771   5.430  13.048  0.0796  0.1497 -0.0346
30349W        W45480   9.016   9.192   2.147  0.3377 -0.1579  0.0185
30350W        W45481   3.790   3.975  13.429 -0.2346 -0.2166 -0.0884
30351W        W45482  13.068   8.166   0.106  0.4306 -0.0362 -0.0414
30352W        W45483  12.065   1.005  10.746 -0.0713  0.0333 -0.2955
30353W        W45484   0.137  17.640   2.577 -0.1850 -0.2248 -0.0017
30354W        W45485  13.857   0.618   1.043  0.1313  0.0106 -0.0660
30355W        W45486   2.904  12.965  15.358 -0.0298 -0.1095  0.1469
30356W        W45487   4.180   5.396   3.081 -0.1251  0.1908 -0.2291
30357W        W45488   4.407  12.451   4.935  0.3170 -0.3308 -0.1173
30358W        W45489   0.647   0.012   0.465 -0.0827  0.0037  0.2868
30359W        W45490  10.356  13.041  15.788  0.1413 -0.1059  0.1574
30360W        W45491  17.720   7.067  15.854  0.2479 -0.0912  0.2292
30361W        W45492   0.623  16.652  12.564  0.0093  0.1687  0.3377
30362W        W45493   0.800  13.734  15.168 -0.2169  0.0510 -0.0941
30363W        W45494  11.401   6.443  12.576 -0.0442 -0.2384  0.0556
30364W        W45495  13.211  13.591  11.726  0.0807 -0.0801  0.0539
30365W        W45496  14.541   3.590   0.315  0.1113  0.2583 -0.1944
30366W        W45497   4.826   0.903   2.061  0.0322  0.1314  0.0437
30367W        W45498  16.867   7.984  12.770 -0.3236 -0.5415 -0.4919
30368W        W45499   9.536  18.202   3.088  0.1416 -0.2200 -0.2987
30369W        W45500   9.824  15.205   4.075  0.2413  0.1531  0.0958
30370W        W45501   6.723  11.987   3.438  0.3589 -0.3514  0.1998
30371W        W45502   2.652   9.517   2.132 -0.2707 -0.4251  0.0711
30372W        W45503   3.664   3.870  11.128  0.3196  0.0759 -0.1503
30373W        W45504   7.895   7.698   5.344  0.0061  0.0741  0.1462
30374W        W45505   0.676   7.658   5.039  0.0549 -0.3391  0.0203
30375W        W45506  15.585  16.427   3.112  0.0620 -0.2613 -0.3331
30376W        W45507  11.198   9.216   2.269 -0.0594 -0.1570 -0.1884
30377W        W45508  12.690   5.441  12.782 -0.0181 -0.1629  0.2019
30378W        W45509  17.808   4.228  13.550 -0.0757 -0.0309  0.0246
30379W        W45510   0.359   0.110   1.123  0.1337  0.0948  0.2258
30380W        W45511  16.623   5.825  14.371  0.0861 -0.0339  0.4100
30381W        W45512   3.850   5.285   0.221  0.1589  0.1539  0.1140
30382W        W45513   5.361   0.971  15.554  0.4860  0.4878  0.0518
30383W        W45514  10.327   1.198  10.686  0.1751 -0.0497 -0.2630
30384W        W45515   8.156   8.228   3.820 -0.0165 -0.1167 -0.0321
30385W        W45516   3.396  15.849   5.612  0.0694 -0.0506 -0.4035
30386W        W45517  16.836   3.901  12.490  0.0199 -0.1501  0.3312
30387W        W45518   9.309   4.703   1.917 -0.1192  0.0522  0.0037
30388W        W45519  14.830  15.640   0.971  0.1334 -0.0565  0.1440
30389W        W45520  15.051   8.679   5.537  0.0377  0.1376  0.3242
30390W        W45521  14.275   3.397  11.971 -0.1202 -0.0912 -0.0601
30391W        W45522   4.396   4.123   1.976 -0.4353  0.0521 -0.0843
30392W        W45523   4.806   2.781  13.255 -0.1198  0.2850 -0.2273
30393W        W45524  12.215  18.386   2.152 -0.0891  0.0428  0.0808
30394W        W45525   2.834   3.963   3.456 -0.2011  0.2670  0.0134
30395W        W45526   3.895  18.032   0.149 -0.3801  0.0599  0.0222
30396W        W45527  13.548   3.946  13.049 -0.1235  0.0657 -0.0447
30397W        W45528  13.250  12.631  15.675 -0.3395 -0.0476  0.1943
30398W        W45529  16.451  12.766  13.407  0.2021 -0.1571  0.1974
30399W        W45530  13.006   7.341  10.482  0.2948  0.3968 -0.1788
30400W        W45531  11.981   6.944   3.636 -0.0824  0.0989 -0.1656
30401W        W45532  15.831   3.588  10.940  0.1769  0.0393 -0.3782
30402W        W45533  13.760   1.027   3.926  0.0087 -0.2024  0.1224
30403W        W45534   1.233  12.880   1.809 -0.0113 -0.1346  0.0244
30404W        W45535   5.301   7.460   5.884 -0.0938 -0.0296  0.0568
30405W        W45536  13.783   5.894  11.777 -0.0158  0.1505  0.0727
30406W        W45537   0.693   2.652  13.183  0.2774 -0.0317  0.1198
30407W        W45538   0.007  11.440  15.562  0.1466  0.0736  0.2767
30408W        W45539  13.309  17.052  12.649  0.0941  0.3492 -0.2160
30409W        W45540   3.674   2.277   0.262 -0.1134 -0.0642 -0.1323
30410W        W45541   0.168  12.991  13.283 -0.1313 -0.3727  0.1786
30411W        W45542   0.229  14.279   0.986  0.0657 -0.1490 -0.2359
30412W        W45543   7.117   1.021  15.220 -0.3044  0.1132 -0.2013
30413W        W45544  15.266   8.111  15.788 -0.2295 -0.2133 -0.1228
30414W        W45545  11.508   5.775  14.551  0.3276 -0.1723  0.0469
30415W        W45546   5.432   8.391  14.789  0.0945 -0.3749  0.0438
30416W        W45547   0.958   0.736  15.286 -0.1440  0.0405  0.0117
30417W        W45548   6.580   0.152   0.060  0.5660  0.0623  0.0681
30418W        W45549   5.004   9.350  13.426 -0.2396 -0.1700 -0.4425
30419W        W45550  15.113  14.076   5.304  0.0352  0.0352 -0.0250
30420W        W45551   0.774  11.683  15.177  0.1415 -0.1526 -0.1144
30421W        W45552  15.446   0.905  13.919  0.0082 -0.0936  0.0856
30422W        W45553   0.245  18.301   0.737 -0.0116  0.1761 -0.2747
30423W        W45554  16.865   5.263  11.942  0.0814  0.1065 -0.1633
30424W        W45555   1.973   8.462  12.117 -0.3553 -0.1166  0.0380
30425W        W45556  16.942   1.594  13.184 -0.2461 -0.0294 -0.1726
30426W        W45557   2.989  17.713  10.826 -0.0558  0.2606 -0.2160
30427W        W45558   1.124   9.345   0.870  0.0498 -0.0738  0.1580
30428W        W45559  10.803  12.380   5.204 -0.1145 -0.0425 -0.3740
30429W        W45560   9.004  16.520   4.041  0.2013 -0.2141 -0.0873
30430W        W45561   0.442  17.602   4.378 -0.1054 -0.0618  0.2113
30431W        W45562  10.505  13.579  12.257 -0.2831  0.4577 -0.0065
30432W        W45563   4.267   4.928   1.575 -0.0351 -0.1525  0.0120
30433W        W45564   7.250   2.795   3.420  0.1758 -0.0000  0.0181
30434W        W45565   1.991   4.321  15.040 -0.0360  0.0173 -0.1448
30435W        W45566   1.136   6.855   3.266  0.1981  0.2066  0.1557
30436W        W45567   7.512   3.698   0.581 -0.2573 -0.0645 -0.1297
30437W        W45568   7.233   3.683   2.827  0.3813 -0.0476  0.3219
30438W        W45569  14.859   6.103  12.434  0.0408 -0.0799 -0.1141
30439W        W45570   8.795  11.449   2.932 -0.4072  0.0690  0.0325
30440W        W45571  13.013  17.767   0.476  0.0035  0.0230 -0.0385
30441W        W45572   4.048  16.803   9.544  0.1335  0.1351  0.2239
30442W        W45573   9.010  18.468   2.461  0.3090 -0.0623  0.0280
30443W        W45574  14.840   5.207   4.255 -0.1080 -0.1362 -0.2184
30444W        W45575  18.458   0.411   5.383 -0.2166 -0.2097  0.1709
30445W        W45576  17.472  12.161  14.396 -0.1549 -0.0671 -0.0046
30446W        W45577  16.502  11.537  13.116  0.0977 -0.2400  0.2101
30447W        W45578   7.323   9.098   1.553  0.1882  0.0514 -0.1278
30448W        W45579   1.733  13.735  13.321 -0.2665  0.0311 -0.0265
30449W        W45580   2.645   5.711  12.699 -0.3459  0.0221 -0.1391
30450W        W45581   1.568   9.249  11.664  0.0829 -0.1221 -0.0075
30451W        W45582   6.718   4.196   2.997 -0.0504  0.0512 -0.1242
30452W        W45583   5.631   9.784   5.364 -0.2406  0.0478  0.0075
30453W        W45584   0.775  11.804  14.625  0.2756 -0.1053 -0.2679
30454W        W45585   1.650   7.411  15.461  0.2349 -0.1277  0.0205
30455W        W45586   9.271   9.476  13.951  0.1085  0.0758 -0.1619
30456W        W45587   3.345   8.075  15.329  0.0335  0.2353 -0.1840
30457W        W45588  15.179   7.671   2.358  0.0203  0.0433 -0.2557
30458W        W45589  16.514   1.523  12.935  0.3933  0.0887  0.0245
30459W        W45590   3.007   0.560  15.301 -0.0065  0.1371 -0.1370
30460W        W45591  16.492  14.249   4.965 -0.4713 -0.1386 -0.0665
30461W        W45592   9.354   2.250  10.889 -0.2546 -0.1728 -0.2683
30462W        W45593   6.262  11.047   3.797 -0.1389  0.3446  0.0369
30463W        W45594  13.458  13.928  12.565 -0.1384 -0.0767  0.0088
30464W        W45595   7.573  17.822   1.440 -0.0756 -0.0220  0.0321
30465W        W45596   8.386  10.789  11.741 -0.0153 -0.0951  0.0570
30466W        W45597   2.821   3.214  14.349  0.0609  0.0643 -0.0107
30467W        W45598   7.079   8.093   1.903 -0.0479  0.0421 -0.1400
30468W        W45599   5.703  16.419   5.154  0.2164 -0.0473  0.0195
30469W        W45600  17.923  12.327  12.460 -0.2046 -0.0073 -0.2440
30470W        W45601  13.437   9.727  13.170 -0.1214 -0.3309 -0.0807
30471W        W45602  14.868   0.304   3.648  0.0681 -0.0118  0.3794
30472W        W45603  10.254  14.877   4.015 -0.0004  0.0434 -0.1138
30473W        W45604  10.905   8.885   9.595  0.1764  0.3159  0.1676
30474W        W45605   6.247  16.236   1.347  0.0628 -0.1402 -0.0614
30475W        W45606  17.547  11.990  11.644  0.1170 -0.3684  0.0456
30476W        W45607   9.923   3.882  15.279 -0.0505 -0.3242 -0.0580
30477W        W45608   8.531  13.308  12.880 -0.1272  0.2588  0.0137
30478W        W45609  16.893  13.520   0.625 -0.0279  0.0206 -0.0498
30479W        W45610  10.283   4.280   5.260 -0.2030  0.1662 -0.2679
30480W        W45611   7.253   5.153  15.376  0.0103 -0.1445  0.1387
30481W        W45612   9.151  14.042   1.188  0.2547  0.0912  0.2243
30482W        W45613   1.893  12.854   1.094  0.0001  0.0290  0.0530
30483W        W45614   0.918   5.904   0.416  0.6928  0.1311  0.0171
30484W        W45615  14.689   2.977  13.696 -0.0633 -0.2543 -0.0754
30485W        W45616  14.106   8.573  14.783 -0.3361 -0.0493 -0.1051
30486W        W45617   2.069  17.028   2.533 -0.2005 -0.0205  0.1322
30487W        W45618  10.996  15.517   4.363  0.1370  0.0076 -0.0524
30488W        W45619  11.477   3.106   1.092 -0.3532  0.0329  0.0759
30489W        W45620  11.548   0.990  11.725  0.0066  0.0540 -0.0183
30490W        W45621  12.570   2.811   1.647 -0.0386  0.1466  0.0411
30491W        W45622  10.089  15.647   4.216  0.0542 -0.1233 -0.3315
30492W        W45623  13.257  14.940  15.370  0.1048 -0.0862 -0.0443
30493W        W45624   7.642   3.024   5.260  0.0188 -0.1615 -0.0079
30494W        W45625  11.511  12.686  14.381 -0.2489 -0.0065  0.3234
30495W        W45626  16.658  11.818   2.143  0.2695  0.2006 -0.1435
30496W        W45627  16.864   1.826  14.547  0.1351 -0.1008  0.0422
30497W        W45628   3.743   6.072  14.778 -0.1456  0.0034 -0.1119
30498W        W45629   7.696  10.226  12.841 -0.0807 -0.2392 -0.2360
30499W        W45630  13.699   7.495   5.837  0.1211  0.2348 -0.1809
30500W        W45631   1.394  14.297   2.255  0.2713 -0.0987 -0.1527
30501W        W45632   1.317   0.703   5.560  0.2045  0.0684  0.0115
30502W        W45633  13.928   3.692   2.528  0.0397 -0.1959  0.0774
30503W        W45634  16.655  10.646  13.513 -0.0791  0.1576  0.1136
30504W        W45635   6.643  10.869  11.058  0.2442  0.1185 -0.0798
30505W        W45636   8.832  11.091  11.757  0.1427 -0.0849 -0.1642
30506W        W45637   4.859  16.793  15.787  0.3141 -0.0078 -0.0871
30507W        W45638  15.225  13.490   0.560  0.0461  0.0181 -0.1120
30508W        W45639  15.900  17.936  11.501 -0.4003 -0.1710 -0.0270
30509W        W45640   2.454   7.290   1.076  0.0191 -0.0095  0.2316
30510W        W45641  11.922   1.630  12.157  0.1369 -0.1697 -0.1323
30511W        W45642   6.057  15.532   2.516  0.2046  0.0883 -0.0137
30512W        W45643   1.148  13.688  10.688  0.0739 -0.0662 -0.1567
30513W        W45644   8.766   4.616  15.800 -0.0822  0.0878  0.2308
30514W        W45645   7.882  17.785   0.908  0.1037 -0.3441  0.2864
30515W        W45646   5.431   9.453   2.722  0.1944 -0.0181 -0.0695
30516W        W45647   8.260   5.928  13.066 -0.2154  0.2468  0.0655
30517W        W45648  15.999   0.667  11.795  0.2144 -0.0743  0.1373
30518W        W45649  17.244  15.451  12.386 -0.1556  0.1672  0.1531
30519W        W45650   8.394   0.704  10.752 -0.2887 -0.2103  0.1199
30520W        W45651  12.416  13.672   1.335  0.0541 -0.0281  0.2906
30521W        W45652   0.325  10.860   4.626  0.0090 -0.1869 -0.1313
30522W        W45653  11.868  17.561  10.076 -0.1632 -0.2337  0.3231
30523W        W45654  16.254   5.674  14.038 -0.0198  0.0335  0.0073
30524W        W45655   2.258   0.210   0.680 -0.1757  0.2203  0.1851
30525W        W45656  16.800   7.316   0.505 -0.2275  0.0893  0.0782
30526W        W45657   3.244   6.337   9.946 -0.1573  0.0129 -0.2429
30527W        W45658  14.743  15.974  12.856  0.1104  0.0871  0.1241
30528W        W45659   6.744  13.923  13.165  0.0212 -0.0168  0.1168
30529W        W45660   8.613   9.873   3.430 -0.4177  0.0806 -0.0289
30530W        W45661   7.556   0.698   3.707  0.3105  0.3541  0.2254
30531W        W45662  12.935   9.862   4.309 -0.0949 -0.2212  0.0561
30532W        W45663   8.066   2.995   4.747  0.2049 -0.1265  0.0835
30533W        W45664  11.124  17.619   0.923 -0.1312  0.0204  0.0172
30534W        W45665   5.080  14.323   0.688 -0.1357  0.2084 -0.0769
30535W        W45666   7.734   2.741   3.500  0.0117 -0.1863 -0.2979
30536W        W45667   2.220   2.623   4.212 -0.2928  0.1531  0.0957
30537W        W45668  14.108   5.076   0.328 -0.0660 -0.0862  0.1934
30538W        W45669   3.729  14.285   1.939  0.1087 -0.2321 -0.0381
30539W        W45670   9.072   6.316   0.284 -0.0718  0.2013  0.0798
30540W        W45671   7.946   7.170   5.454  0.1236 -0.0728 -0.1952
30541W        W45672   8.710  12.331   1.854 -0.2493  0.3816  0.0367
30542W        W45673  17.008  17.571  14.719  0.0880 -0.1410 -0.0336
30543W        W45674  13.471  14.420   1.437  0.0421  0.1119 -0.1793
30544W        W45675  12.843   9.304   3.999  0.0555  0.3823  0.0453
30545W        W45676  17.767   6.053  15.702  0.2814  0.0226  0.0450
30546W        W45677   3.057   9.133  13.977  0.0024  0.0538 -0.0748
30547W        W45678  18.213  15.848   6.114  0.1135 -0.3519 -0.0383
30548W        W45679  15.043   8.234   0.689  0.2381  0.0665  0.0894
30549W        W45680  11.994   9.794   1.512  0.1856 -0.0958 -0.0324
30550W        W45681   5.912  15.579   0.526  0.0617 -0.0581 -0.3449
30551W        W45682   8.970   4.427   0.795  0.0045 -0.1455  0.0050
30552W        W45683  11.877   0.109   1.777  0.1743 -0.0064 -0.1635
30553W        W45684  10.377  15.159  12.251  0.0919 -0.3388 -0.0365
30554W        W45685   3.518   9.471   3.596 -0.3279  0.1207 -0.3251
30555W        W45686   4.642  18.427   4.461 -0.1619 -0.0230 -0.0833
30556W        W45687  13.975   0.209  10.920 -0.0029 -0.2117  0.0892
30557W        W45688   3.271   3.972   4.333  0.0962  0.1272  0.1464
30558W        W45689   5.198  10.126   2.160  0.0565 -0.0046  0.0203
30559W        W45690  17.947   4.393  12.384 -0.0065 -0.0438  0.1611
30560W        W45691   2.739   2.041   3.404  0.1895 -0.0450 -0.0749
30561W        W45692   4.588  15.772  11.620  0.2304  0.4038 -0.2336
30562W        W45693   6.328   7.599  12.716  0.0793 -0.1275  0.2525
30563W        W45694  18.462  12.335  14.108  0.1814 -0.1254  0.0481
30564W        W45695   8.355  15.932  15.338  0.0645  0.1318  0.1702
30565W        W45696  12.716   1.441  14.170 -0.0619 -0.1095 -0.3511
30566W        W45697  12.844   4.840   2.371 -0.1271  0.0157  0.0950
30567W        W45698  17.889   4.507   3.634  0.2687  0.0980 -0.1005
30568W        W45699   9.801   5.364   4.856 -0.0902 -0.2182  0.2649
30569W        W45700   4.196   8.356  15.890  0.0724 -0.3412 -0.4751
30570W        W45701  14.054   1.590   5.907 -0.0291  0.1061  0.0700
30571W        W45702   0.658   7.364  14.472  0.0749 -0.2032 -0.0926
30572W        W45703  10.093   9.969   1.766 -0.0791 -0.1965 -0.0628
30573W        W45704  16.892  17.894   5.697 -0.0646 -0.0153  0.2042
30574W        W45705   4.693   3.903  11.990  0.1085 -0.1134 -0.0103
30575W        W45706  14.327   5.515  12.882  0.3101  0.3074  0.1573
30576W        W45707   6.892   4.252   4.842  0.0072 -0.1005 -0.2790
30577W        W45708  10.628  13.810  10.830  0.0456  0.3306  0.1186
30578W        W45709  16.257  14.835   1.656  0.2196 -0.1631 -0.0817
30579W        W45710  11.027   6.096  13.728  0.0742  0.0009 -0.0229
30580W        W45711  10.994  14.168  10.774  0.1059 -0.0895 -0.2996
30581W        W45712  15.333   4.540  12.295  0.2730  0.0020  0.0736
30582W        W45713  13.343   4.729   4.540 -0.0181 -0.1428 -0.2976
30583W        W45714   6.574  11.917  13.382 -0.0522 -0.0707  0.0856
30584W        W45715  15.762   5.658  15.326  0.0768 -0.0205 -0.1345
30585W        W45716   7.576   2.080  13.070 -0.0030 -0.1445 -0.1595
30586W        W45717   4.465   9.632   1.550  0.2003 -0.0577  0.1285
30587W        W45718   9.094  14.141  15.585 -0.0873 -0.0565 -0.2478
30588W        W45719  15.008  14.290  12.987  0.1955 -0.2100 -0.2365
30589W        W45720   4.801  11.045   1.465  0.0254  0.0640  0.0437
30590W        W45721   7.037  10.063   4.420  0.1301 -0.0578  0.2552
30591W        W45722   4.734   1.597  14.607 -0.1567  0.5964 -0.1878
30592W        W45723   5.496  16.120   3.134  0.0491  0.1342 -0.1962
30593W        W45724   2.762   0.393   5.046  0.1777 -0.1304  0.0820
30594W        W45725  14.495  16.872   3.504  0.1510  0.1851 -0.0817
30595W        W45726  10.112  15.237   3.617 -0.0274  0.2720 -0.0932
30596W        W45727  12.043   9.669  14.182 -0.0142 -0.0552  0.2818
30597W        W45728   3.307   3.193   0.962 -0.0874  0.1955  0.0218
30598W        W45729   4.403   3.041  11.882 -0.0765  0.0739 -0.2275
30599W        W45730  11.059  13.493  13.866  0.0612 -0.0681 -0.0201
30600W        W45731   8.020   1.869   3.308  0.0697 -0.1176 -0.3093
30601W        W45732   8.434   4.222   2.275  0.0751  0.0721  0.0040
30602W        W45733   5.473   8.752  15.444  0.0210 -0.1986 -0.0742
30603W        W45734   0.707   7.010  14.776  0.2073 -0.0937  0.0195
30604W        W45735  10.760   5.999   0.933 -0.0609 -0.3313 -0.4131
30605W        W45736  13.634   4.974   0.230 -0.1169 -0.0600 -0.0855
30606W        W45737   6.696  10.862   4.971  0.1310  0.1575 -0.0945
30607W        W45738  13.051  12.852   6.086 -0.2092 -0.1394  0.0481
30608W        W45739  11.987  10.878  12.909 -0.0134 -0.1696 -0.1778
30609W        W45740  14.117   0.362  12.534  0.0715  0.0256 -0.1357
30610W        W45741  10.205  17.405  13.449 -0.1373  0.1154 -0.0561
30611W        W45742   1.090  15.167  15.183  0.0314 -0.2893  0.1335
30612W        W45743  10.427  15.540   9.632 -0.0977 -0.2744 -0.0648
30613W        W45744  10.517  15.868   0.638 -0.0887 -0.1718 -0.2932
30614W        W45745   4.509  14.487  14.660  0.1731  0.0994 -0.0292
30615W        W45746   2.578  11.093  14.106  0.1688 -0.0814 -0.3716
30616W        W45747   8.637   8.071   3.661  0.2912 -0.2541 -0.0753
30617W        W45748  14.015   5.651  12.144 -0.1982  0.1006 -0.0357
30618W        W45749  13.945   9.291  11.995 -0.2806 -0.0297 -0.0850
30619W        W45750  11.838  17.556  13.185  0.3328 -0.0075  0.2502
30620W        W45751   4.298   2.913   3.099  0.2716 -0.1934 -0.0376
30621W        W45752   6.463   6.797   2.035 -0.0453  0.0161 -0.1141
30622W        W45753  12.180  14.423   2.949 -0.1082 -0.0970 -0.0660
30623W        W45754   2.628  15.437  15.125  0.5155  0.2298  0.2191
30624W        W45755  17.246  11.744  14.278 -0.0006  0.1694  0.3490
30625W        W45756   7.175   8.416  15.740 -0.1300  0.1200 -0.1839
30626W        W45757  17.580   0.286   1.279  0.0599 -0.2110 -0.0221
30627W        W45758  14.409   0.694   5.289  0.0645 -0.0769 -0.0971
30628W        W45759  12.877   6.963   5.964  0.0354  0.2419  0.2607
30629W        W45760   3.351  10.267   4.563 -0.1484  0.1766 -0.0535
30630W        W45761  10.276  17.447  12.028  0.1761  0.1875  0.1069
30631W        W45762  14.408   7.042  14.393 -0.0774  0.1850  0.0233
30632W        W45763   1.466   4.756   5.875 -0.0239  0.0840 -0.0573
30633W        W45764   0.022  17.788  13.394  0.0502 -0.0509  0.1992
30634W        W45765   1.366   9.320  13.792  0.0685 -0.1758  0.1781
30635W        W45766  12.334   2.241  15.368 -0.0051  0.0693 -0.1874
30636W        W45767  11.979  14.165   3.843  0.1274 -0.2138  0.1943
30637W        W45768  16.258   0.359   1.791 -0.2084 -0.1343 -0.0000
30638W        W45769   3.251  16.400   1.204 -0.0244 -0.0931 -0.3283
30639W        W45770  18.320  11.261  14.411  0.0571 -0.2866  0.0007
30640W        W45771  11.741   2.516  14.706  0.2785 -0.0948  0.0678
30641W        W45772  16.007   8.053  14.196  0.0869 -0.0695  0.0647
30642W        W45773  17.384   9.432  13.732 -0.0446 -0.0291  0.0796
30643W        W45774  15.768   9.292   5.119  0.0305  0.4280 -0.1747
30644W        W45775   0.259   1.006   1.811  0.0729  0.1686  0.2497
30645W        W45776   8.667   8.174   4.164  0.1342 -0.4772  0.2168
30646W        W45777  11.906  15.866   1.691 -0.1299 -0.0527  0.2864
30647W        W45778  17.964   9.781   1.983  0.1436  0.2325 -0.0117
30648W        W45779  15.619   7.158   3.129  0.0929  0.0608  0.1351
30649W        W45780  13.587  14.156  11.614  0.0916 -0.2557  0.1030
30650W        W45781   8.436   2.756  11.380  0.1741 -0.0762 -0.3470
30651W        W45782   7.836  16.179   3.840  0.1464  0.0958  0.3531
30652W        W45783   5.040  17.496   0.874  0.2965  0.2010  0.0190
30653W        W45784   1.449  11.055   0.241  0.1549  0.1027 -0.3935
30654W        W45785  12.961   4.088  14.738  0.0671 -0.1700  0.0094
30655W        W45786   9.314  14.780   3.442 -0.3024 -0.1205 -0.1785
30656W        W45787  11.625   9.433   1.360  0.2954 -0.2226 -0.5012
30657W        W45788  15.928   2.746  13.545  0.0755  0.0560 -0.5223
30658W        W45789   2.811  11.783   1.765 -0.1964 -0.1820  0.0215
30659W        W45790   8.282  16.539  13.465  0.0003  0.0843 -0.2354
30660W        W45791   5.451  15.717  12.372 -0.2509  0.3968 -0.0529
30661W        W45792   7.903   8.379  14.794  0.4404  0.0960 -0.0254
30662W        W45793  14.885  11.014   3.854  0.0520  0.2630  0.1712
30663W        W45794   9.606   2.967   3.988  0.1193  0.0306  0.2310
30664W        W45795   6.955   3.354   3.923 -0.2279 -0.0540  0.3743
30665W        W45796  13.653   3.282   2.682 -0.1469  0.0462 -0.2322
30666W        W45797   4.087  11.967  14.441  0.0516 -0.2731 -0.0947
30667W        W45798  10.015   1.886   3.057 -0.0935  0.2004  0.0571
30668W        W45799  11.553   1.878  12.381 -0.1361  0.2191 -0.1462
30669W        W45800   8.185   6.865   3.077 -0.2706 -0.1003  0.0262
30670W        W45801  15.154  11.064  11.630  0.4064  0.1346  0.0881
30671W        W45802  17.627  10.209  14.052 -0.1849  0.3135  0.2761
30672W        W45803  12.491   1.512  12.616  0.4709  0.2184  0.1853
30673W        W45804  14.076  13.046   2.125  0.2572  0.0068  0.0824
30674W        W45805  10.665  14.009   3.531 -0.1940 -0.2180  0.2532
30675W        W45806   2.165   6.072  10.919 -0.2636  0.0474 -0.0120
30676W        W45807   5.774  11.537  13.483 -0.1165 -0.0285  0.1227
30677W        W45808  12.927  14.036   4.044  0.0032 -0.2432  0.0376
30678W        W45809  13.958   3.166  12.456  0.4119 -0.0091 -0.2945
30679W        W45810   6.118  10.744   1.565 -0.1859 -0.3415 -0.0809
30680W        W45811  17.177   5.406   5.019 -0.0506 -0.0977 -0.2730
30681W        W45812   1.270  15.007  13.097  0.0995 -0.3336  0.1255
30682W        W45813   9.204  13.310  12.146  0.2848 -0.1507  0.3935
30683W        W45814   4.050   3.201   1.838  0.2303 -0.1638 -0.0594
30684W        W45815   7.814   5.199  11.197 -0.1179 -0.1880  0.2322
30685W        W45816   6.520  14.750  15.622 -0.1633  0.1822  0.2145
30686W        W45817   5.174  17.903   1.855 -0.1951 -0.0135 -0.2839
30687W        W45818   1.451   5.595   3.955 -0.0603  0.0640 -0.2057
30688W        W45819   9.835   0.265   5.321  0.3554 -0.1352  0.2896
30689W        W45820  16.945  13.481  13.361 -0.0398 -0.2451  0.2051
30690W        W45821  13.795   3.055  15.516 -0.1098 -0.1131  0.0623
30691W        W45822  11.986   8.672  14.967 -0.3310 -0.1534  0.0522
30692W        W45823  17.040   0.857  15.049  0.3916 -0.4143 -0.5228
30693W        W45824   2.570   6.714   0.102 -0.1159  0.1995 -0.0450
30694W        W45825  17.051   2.215   0.083 -0.0254 -0.5916  0.1047
30695W        W45826  16.986   3.892   3.215  0.1429 -0.1379  0.0104
30696W        W45827  11.561  18.385  10.883 -0.1959 -0.3932 -0.3595
30697W        W45828   0.176   1.626   3.576  0.2633 -0.1570  0.1214
30698W        W45829   9.052  14.840  11.045 -0.2175 -0.1040 -0.0497
30699W        W45830  12.424  16.651   3.658 -0.0504  0.2628 -0.1294
30700W        W45831   9.369  17.096   0.981  0.0467 -0.0239 -0.0565
30701W        W45832   2.360   8.140  13.325  0.0181 -0.2258 -0.2094
30702W        W45833  15.800   5.432  10.902 -0.5354 -0.2656  0.0884
30703W        W45834  17.265  18.415   0.597  0.1265  0.0466 -0.0709
30704W        W45835  14.788   5.993  11.487  0.0702  0.0062  0.2291
30705W        W45836  16.816  16.320  13.460  0.0749 -0.1340  0.1520
30706W        W45837  10.675   2.424  14.640 -0.1353 -0.2261 -0.0083
30707W        W45838   9.309  11.662   0.607 -0.0036 -0.1730 -0.0836
30708W        W45839  15.889   9.932   4.182 -0.2852  0.1721  0.2596
30709W        W45840   1.700   2.102  15.291 -0.0660 -0.3001 -0.1981
30710W        W45841   4.592   9.864  13.853 -0.2035  0.0739 -0.2632
30711W        W45842  13.244   3.478   3.816  0.0496 -0.0816  0.2569
30712W        W45843   9.445  14.922  12.849  0.1680  0.0345  0.2705
30713W        W45844  12.262  11.547  11.048  0.0510  0.2216  0.2054
30714W        W45845  18.141  14.181   3.207 -0.2909  0.0386  0.2363
30715W        W45846   9.212   1.563  13.349  0.2942 -0.0892  0.0014
30716W        W45847  17.031   6.635  11.364  0.4425 -0.1117  0.2845
30717W        W45848  16.809  12.180  14.999 -0.0214 -0.2524  0.3289
30718W        W45849  17.643  10.494   3.181 -0.0469  0.0099 -0.3572
30719W        W45850  16.764  10.142  12.749  0.3957  0.0728 -0.1136
30720W        W45851   5.948   1.509  13.973 -0.3272 -0.2882 -0.1443
30721W        W45852  10.679   2.778  15.848 -0.3435  0.1094  0.0999
30722W        W45853  17.360   8.827  14.988  0.1725 -0.1757 -0.0348
30723W        W45854  10.812  13.143  14.516 -0.3436  0.0558 -0.0299
30724W        W45855   4.525  16.798   5.431  0.0809 -0.0313  0.2625
30725W        W45856  14.877  15.165   1.020 -0.0819  0.1419  0.0374
30726W        W45857   1.088  16.104   1.780  0.0354 -0.2333 -0.4964
30727W        W45858   7.110   5.533   4.922  0.2593  0.1338 -0.1245
30728W        W45859   2.757  15.310   0.632  0.0717  0.0020  0.0530
30729W        W45860  17.883  11.568  14.320  0.0136  0.1511  0.0197
30730W        W45861   3.437   8.745  14.153  0.4241  0.3201  0.0260
30731W        W45862   5.751   1.952   4.099  0.1209  0.0689 -0.2603
30732W        W45863  15.480   8.540  14.977  0.0614  0.1048  0.3124
30733W        W45864  18.293  10.880   4.471  0.0763 -0.0088  0.3795
30734W        W45865   2.279  13.767   2.057  0.0389  0.0110  0.1092
30735W        W45866   2.915   1.968   2.506 -0.2511  0.1460  0.1420
30736W        W45867   9.036  10.928  12.416  0.1501 -0.2077  0.1452
30737W        W45868   6.284  10.382   1.164  0.1198 -0.1339 -0.0492
30738W        W45869   5.343   2.255  12.329 -0.1045  0.2921 -0.0389
30739W        W45870   6.322  14.316   0.580 -0.0517 -0.2783 -0.0375
30740W        W45871   4.260   6.515   3.363  0.1048 -0.0089  0.1716
30741W        W45872   5.157  16.155   3.740 -0.1572  0.1031  0.2770
30742W        W45873  14.148   3.777  13.915  0.0869  0.2834  0.2064
30743W        W45874   4.544  14.843  12.299 -0.1173 -0.2637  0.0680
30744W        W45875  15.827  11.606   3.048 -0.3227  0.1245 -0.3265
30745W        W45876   4.589   7.154   2.188 -0.0281 -0.0654  0.0872
30746W        W45877   5.041   1.588   1.287 -0.0584  0.3890  0.4176
30747W        W45878   4.972   7.304   4.895 -0.0378  0.0524  0.1344
30748W        W45879  10.091   9.213   1.936 -0.1528 -0.2592 -0.0331
30749W        W45880  18.498  12.709   2.239  0.3185  0.0322 -0.2550
30750W        W45881   4.500  13.367  13.028 -0.0113  0.1432  0.5002
30751W        W45882   2.108  10.149  10.843  0.1095  0.2160  0.0682
30752W        W45883   8.973   5.252  13.091  0.0614 -0.1002  0.0432
30753W        W45884  16.499  18.016   1.519 -0.3775  0.0253  0.3236
30754W        W45885  18.138   2.175   2.942  0.0392  0.0302  0.0071
30755W        W45886   8.780  14.085  13.477  0.0362 -0.1422 -0.0217
30756W        W45887  14.372   4.051  12.695 -0.1339  0.0364  0.2621
30757W        W45888   7.461  13.767  12.076 -0.1138 -0.3316 -0.1575
30758W        W45889   7.937  12.654  13.183  0.0765 -0.1675  0.2359
30759W        W45890   8.317  14.541  15.581 -0.0430 -0.0951  0.0095
30760W        W45891   1.363  15.189   3.555 -0.3614  0.1424  0.2065
30761W        W45892  14.677  10.620   1.953  0.1445  0.0673 -0.1148
30762W        W45893  18.046  17.836  11.127  0.0727  0.2738 -0.1519
30763W        W45894  17.379   8.618  15.429 -0.3876  0.1095  0.0511
30764W        W45895  17.178   0.444  14.170 -0.0582  0.1413 -0.3413
30765W        W45896  16.473  17.916   5.169 -0.1025  0.2362  0.3131
30766W        W45897   1.231   8.468   0.910  0.1148  0.0266  0.0228
30767W        W45898   1.935   9.051   0.760 -0.1514  0.1661  0.0278
30768W        W45899  12.854   1.509   3.947  0.0116 -0.1006  0.0870
30769W        W45900   6.487  12.007   3.920 -0.0443 -0.2964 -0.2415
30770W        W45901   5.675   8.965   4.841  0.0110 -0.3778 -0.0994
30771W        W45902   3.981   5.869   4.055  0.0760  0.1355 -0.2486
30772W        W45903  10.612   8.632   3.095  0.0770  0.3931 -0.1918
30773W        W45904   4.159  11.654   5.575 -0.1054  0.1064  0.2510
30774W        W45905   0.903  15.271   0.040 -0.0911  0.4483  0.1078
30775W        W45906  12.676  13.592   2.021  0.0863  0.0209 -0.0657
30776W        W45907   7.458   8.320   0.351  0.2501 -0.0202 -0.1135
30777W        W45908  16.904   5.712   2.202 -0.1147  0.1005  0.1620
30778W        W45909   5.443   3.244   3.794  0.3487  0.1405 -0.0409
30779W        W45910  13.730  16.674   5.104  0.0179  0.0106 -0.2057
30780W        W45911   2.132   1.337  12.383  0.1230  0.0511  0.1119
30781W        W45912   3.355   2.625  12.488 -0.0681 -0.1108  0.0609
30782W        W45913  15.091   5.790  15.281  0.1209  0.0448 -0.1480
30783W        W45914  17.835   8.618   2.464  0.1014 -0.3279  0.0121
30784W        W45915   5.336  12.101  12.252  0.0471 -0.2188 -0.0828
30785W        W45916   8.654   8.792   2.977  0.0150 -0.3012  0.1008
30786W        W45917  17.358  14.022   2.055 -0.0725  0.2853 -0.2799
30787W        W45918   6.262   8.380  15.865 -0.2538  0.2283  0.0757
30788W        W45919   7.102   2.142  11.281  0.0615 -0.3457 -0.0521
30789W        W45920  18.017  15.169   1.205  0.1713  0.1692 -0.0674
30790W        W45921   9.542  10.498  11.644 -0.0914  0.2315 -0.2631
30791W        W45922   1.371  13.700  13.631  0.0703  0.2821 -0.1177
30792W        W45923  13.357   0.646   2.242 -0.0803  0.1250 -0.0782
30793W        W45924   9.532  12.822  15.158 -0.0462  0.0431 -0.3267
30794W        W45925  16.693   0.358  14.893  0.0629  0.1177  0.1323
30795W        W45926  16.458   7.831  14.222  0.1232  0.0635 -0.4301
30796W        W45927  18.375   6.605  12.881  0.1151 -0.1022  0.1184
30797W        W45928   9.034  16.640  13.054 -0.1796 -0.4101 -0.1181
30798W        W45929  10.713   6.009  11.686 -0.3628  0.3070 -0.1350
30799W        W45930  12.727   0.578   4.967  0.2677  0.1024 -0.2232
30800W        W45931  13.892  17.137   5.008  0.0889 -0.1000 -0.2994
30801W        W45932   1.578   7.475   4.644 -0.0630 -0.3546 -0.0284
30802W        W45933   3.261   0.141  11.797 -0.1079 -0.0665 -0.2067
30803W        W45934   1.154  16.489   3.845  0.2306 -0.1919  0.0761
30804W        W45935   9.491   1.636  10.221  0.0520 -0.1551 -0.2011
30805W        W45936   9.809  13.908   0.313 -0.2386 -0.3598 -0.1421
30806W        W45937  14.441   2.608   3.836  0.1781 -0.0443  0.4518
30807W        W45938  10.910   2.744  13.780  0.3760  0.2315  0.2336
30808W        W45939   9.287  16.299  13.980 -0.0783 -0.3165  0.2810
30809W        W45940  14.574  14.564   2.770 -0.0846 -0.3231 -0.0815
30810W        W45941  17.354   8.251   5.788  0.2543 -0.2347  0.0032
30811W        W45942   0.823   9.507  15.664  0.0142 -0.1984 -0.0877
30812W        W45943   6.282   1.950  14.084 -0.0303  0.0225  0.0631
30813W        W45944  16.961  14.693   6.348 -0.1221  0.3259  0.3718
30814W        W45945  15.582   4.108   2.014 -0.3253  0.0261  0.2148
30815W        W45946   5.086   5.178  14.051 -0.0549 -0.2180 -0.0006
30816W        W45947  10.737  11.526  13.670 -0.3095  0.0180  0.1220
30817W        W45948  15.187  13.794  13.524 -0.3151  0.2478  0.0285
30818W        W45949  12.608   7.785   2.665 -0.1098  0.0873 -0.1726
30819W        W45950  11.340  15.487  10.473  0.1266 -0.1694  0.0861
30820W        W45951   6.246   5.329   2.788  0.0814 -0.2224  0.0200
30821W        W45952   1.645  14.957  10.091 -0.3874  0.1400  0.1163
30822W        W45953   3.999   3.445  15.198 -0.1780 -0.0723 -0.2952
30823W        W45954   2.302   9.946   1.781 -0.3366 -0.4097 -0.0776
30824W        W45955  18.312   1.855   4.539 -0.1486  0.2443  0.0743
30825W        W45956  14.718   0.118  11.812 -0.1835  0.1247  0.1477
30826W        W45957   2.962  14.306   1.570  0.2461  0.1792  0.0529
30827W        W45958   1.959  12.494   2.990 -0.4447  0.2182  0.2028
30828W        W45959   7.208   8.422  15.220 -0.0719  0.1677  0.0097
30829W        W45960   4.461  15.307  15.694  0.3756 -0.0268 -0.1627
30830W        W45961   1.735  12.253   6.528 -0.0641 -0.2161  0.3370
30831W        W45962   0.860   5.989  13.774  0.2075 -0.0152 -0.0807
30832W        W45963  18.349   2.961  14.197  0.2332  0.1556  0.1724
30833W        W45964  16.789   7.489  15.469 -0.1707 -0.1423 -0.2811
30834W        W45965   1.806   0.671   5.598  0.2250  0.0300  0.0146
30835W        W45966   2.068  18.223   1.635 -0.1412  0.0497  0.0628
30836W        W45967  15.314  14.778  13.084 -0.1159 -0.0925 -0.1778
30837W        W45968  13.353   0.909  12.002 -0.0936  0.1294  0.2086
30838W        W45969   8.089  13.278   2.030 -0.1371  0.0328 -0.4109
30839W        W45970   8.391   1.623   5.141  0.1044 -0.1411 -0.1758
30840W        W45971   2.235  13.818  13.311 -0.1722  0.0619 -0.2147
30841W        W45972  13.613   2.718  13.736 -0.1200 -0.1492  0.0685
30842W        W45973  17.255   6.098   4.689  0.0266 -0.1960 -0.2449
30843W        W45974   4.954  11.857   0.862 -0.0209  0.2490  0.1776
30844W        W45975  18.276  13.279   6.030 -0.0357  0.0923 -0.0329
30845W        W45976   5.253   8.980  14.973  0.3777 -0.2928  0.1261
30846W        W45977  13.823   7.018  15.642 -0.0028  0.2396  0.0184
30847W        W45978   7.080   9.753  13.365  0.1771 -0.1132  0.0658
30848W        W45979   9.295   7.400  11.746  0.1685  0.0254  0.1329
30849W        W45980   1.117  14.668   1.365 -0.2245  0.1204 -0.2243
30850W        W45981  16.825   7.395  13.449  0.1974 -0.2291  0.3978
30851W        W45982   9.693   7.352  13.412 -0.1248 -0.1798 -0.0454
30852W        W45983  17.510  18.102   6.004 -0.0622 -0.0196 -0.0351
30853W        W45984  16.071   3.975   1.864 -0.0189 -0.3600 -0.1594
30854W        W45985   4.377   9.076   1.554 -0.2298 -0.1947 -0.0863
30855W        W45986   8.332   9.493  12.709  0.2138  0.0703  0.1912
30856W        W45987   7.921   3.372  10.072 -0.0384  0.0076  0.2668
30857W        W45988   9.282  12.724   0.462 -0.2240 -0.1001  0.0267
30858W        W45989  18.235  16.596   3.111  0.1878 -0.0384 -0.0971
30859W        W45990   0.258   5.840   5.417  0.0574 -0.0767 -0.2244
30860W        W45991   5.581  10.489  12.469  0.1577  0.2923  0.0914
30861W        W45992   4.526   3.955  14.714  0.0152  0.2133  0.0766
30862W        W45993  16.578   5.632   2.595 -0.1080 -0.0779 -0.2198
30863W        W45994   9.224   0.043   2.868 -0.1345 -0.0093 -0.3023
30864W        W45995   5.230  16.498   3.406 -0.2254  0.0079  0.1772
30865W        W45996  10.926   6.285   1.312 -0.1688 -0.1389 -0.0304
30866W        W45997   8.755   8.301   5.147 -0.0871 -0.0374 -0.1383
30867W        W45998  16.084  14.446   3.948  0.3474 -0.0327  0.4296
30868W        W45999  11.721   8.174  11.693 -0.0517 -0.1484  0.1799
30869W        W46000   8.448  14.978   1.943 -0.1443 -0.0795 -0.1566
30870W        W46001   1.660  10.688  10.243  0.0616  0.1572 -0.0527
30871W        W46002   7.194  15.041  10.069 -0.0621  0.1514  0.2295
30872W        W46003  17.859   5.105  10.579  0.0350  0.0124 -0.3635
30873W        W46004   0.864  17.031  15.806 -0.1661  0.0284  0.6329
30874W        W46005   5.978  12.891  13.155  0.3713  0.0095 -0.0312
30875W        W46006   9.983  14.031   2.512 -0.0485  0.3176  0.0251
30876W        W46007   8.617  13.930  11.375 -0.2902 -0.0541  0.0334
30877W        W46008   7.657  17.867  11.052  0.0071  0.1922  0.1046
30878W        W46009   7.889  15.782  12.638 -0.0634  0.1474 -0.0082
30879W        W46010   9.826  12.669  10.385 -0.1310 -0.0837 -0.1917
30880W        W46011  18.337   0.639  10.217 -0.3421  0.0129 -0.0952
30881W        W46012  12.843  12.352  15.209  0.1055 -0.2020 -0.0620
30882W        W46013  17.398  16.038   1.078 -0.2088  0.0257  0.0320
30883W        W46014   3.258   9.874  15.356  0.1354 -0.0193  0.2951
30884W        W46015   1.551   2.199   1.579  0.2931  0.2225 -0.0647
30885W        W46016  13.256  15.722   5.304 -0.1727 -0.4948  0.3024
30886W        W46017  12.863  16.611  13.882 -0.2412 -0.3940 -0.1782
30887W        W46018  14.416   1.877  14.239  0.2144 -0.0600 -0.3341
30888W        W46019  15.501  13.533  14.352  0.0738 -0.0920 -0.2272
30889W        W46020  10.321   0.500  15.786  0.2056 -0.1548  0.1681
30890W        W46021   0.455   6.069  11.485  0.1514 -0.0111  0.1353
30891W        W46022  17.195   7.772   3.661  0.1448  0.1196 -0.3942
30892W        W46023  16.481  14.874   0.490 -0.2260 -0.0265  0.1153
30893W        W46024   8.358   6.548   5.648 -0.1773 -0.2518 -0.0156
30894W        W46025  11.362  10.614  12.510  0.1509  0.0672  0.0272
30895W        W46026   5.991   1.136  10.597  0.1578  0.0591 -0.2395
30896W        W46027  18.136   6.547   2.879 -0.1457 -0.1675 -0.0458
30897W        W46028  14.880  15.192  12.397 -0.0145  0.0782  0.0447
30898W        W46029  15.647   8.108   4.578 -0.0422 -0.0391  0.1445
30899W        W46030  13.357   3.728   0.210  0.0985  0.1805 -0.1015
30900W        W46031   8.653   3.884  11.176  0.1776 -0.3703  0.0686
30901W        W46032  13.523  15.304   4.467  0.3339  0.0650 -0.2171
30902W        W46033   6.746  13.834  15.716  0.0954 -0.1175  0.1233
30903W        W46034  18.238  18.338   1.985 -0.0407  0.1511 -0.0505
30904W        W46035   3.552   1.367   1.535 -0.2210 -0.0935  0.1655
30905W        W46036   6.149  15.332  15.549 -0.0780 -0.3335  0.0263
30906W        W46037   3.208  15.914   1.374 -0.3752  0.1082 -0.2719
30907W        W46038  11.470  16.558  15.306  0.6119 -0.1869 -0.4298
30908W        W46039   2.561   0.573   1.767 -0.0945 -0.0757  0.3810
30909W        W46040  13.709  11.419   0.741 -0.0625  0.3441  0.1620
30910W        W46041   1.891  15.344   2.748  0.0639 -0.0100 -0.2810
30911W        W46042   2.732  10.592  14.976 -0.0421  0.2846  0.0389
30912W        W46043   6.715   8.361  14.431 -0.0164  0.0918 -0.1825
30913W        W46044   4.428   8.156   0.341  0.2028  0.1153 -0.1339
30914W        W46045  17.583  15.593   4.821 -0.0935  0.0629 -0.1715
30915W        W46046   4.788   1.968   5.054 -0.0332 -0.0562 -0.2602
30916W        W46047   4.994   5.494  12.055 -0.1106 -0.2371  0.1665
30917W        W46048  12.983   9.614   4.929 -0.2228 -0.3423  0.4307
30918W        W46049   2.451   2.408  15.337  0.0909 -0.0164 -0.2146
30919W        W46050  12.406  11.589  13.539 -0.0063 -0.1089 -0.0159
30920W        W46051  17.199  10.919  10.957 -0.0778 -0.1565 -0.0439
30921W        W46052  16.020  17.453  13.746  0.2042  0.1439  0.0424
30922W        W46053   3.220   9.785  14.802 -0.2727 -0.0132 -0.1129
30923W        W46054   6.008  16.144  10.377  0.1674 -0.1721 -0.1337
30924W        W46055   7.852  10.450   3.393  0.1670 -0.2873 -0.0409
30925W        W46056  12.758   4.826   1.714  0.3397 -0.0405  0.1921
30926W        W46057  10.121   1.691   1.496  0.0359 -0.1792  0.1534
30927W        W46058   5.111   2.115   5.422  0.0046 -0.1302 -0.0418
30928W        W46059   8.466   2.751  13.840 -0.0204  0.0341 -0.5639
30929W        W46060  17.483   9.964  13.087 -0.0021  0.0174 -0.1724
30930W        W46061  15.935   2.897   4.995 -0.0198 -0.0259  0.1128
30931W        W46062   8.983  11.642  15.262 -0.1288 -0.0579  0.1189
30932W        W46063  15.649   6.492   3.089  0.0513 -0.0823 -0.0445
30933W        W46064   7.976   4.026   2.390  0.2018 -0.0012  0.0150
30934W        W46065   0.341  15.769  15.487 -0.1586  0.1106 -0.2483
30935W        W46066   8.620   8.601   3.744  0.1011  0.2920  0.0194
30936W        W46067  14.059  16.408  11.592 -0.0785 -0.1286  0.0772
30937W        W46068  10.397   8.198  14.140 -0.3339  0.4856 -0.0033
30938W        W46069   4.914  11.984  10.914  0.1233 -0.0030  0.2777
30939W        W46070   0.369   9.844   0.059 -0.0779 -0.0372  0.0465
30940W        W46071   5.844   7.811   1.235  0.1680 -0.0290 -0.1171
30941W        W46072   2.634   6.216  14.244 -0.1251  0.0642  0.4154
30942W        W46073   0.221   7.964   3.487  0.1028  0.0549 -0.2265
30943W        W46074   4.865   0.573  14.028 -0.0704 -0.0158 -0.0661
30944W        W46075  15.558  12.885   2.902 -0.2715 -0.2672  0.2683
30945W        W46076   9.212   7.442  13.306 -0.0435  0.1913  0.5393
30946W        W46077  12.376   4.276  13.475  0.2018  0.0066  0.3498
30947W        W46078  11.081   6.008   3.349 -0.2703  0.1960 -0.0389
30948W        W46079  11.145  11.503   1.974  0.1018 -0.1804 -0.2063
30949W        W46080   4.994   9.867   3.553 -0.1446  0.1832 -0.1587
30950W        W46081   2.586   6.220  15.209 -0.0477  0.0182 -0.2970
30951W        W46082   2.648   5.988   0.874  0.0443 -0.1291  0.3917
30952W        W46083   0.847  14.011  12.391  0.2807  0.0518  0.0546
30953W        W46084   7.588   3.406  12.858  0.1189  0.0617 -0.0068
30954W        W46085   3.281   9.688  11.725 -0.2463  0.1279  0.2041
30955W        W46086  15.002  12.248  12.290  0.0557  0.2390 -0.2188
30956W        W46087  11.179   2.483  12.916 -0.1651  0.0176  0.2887
30957W        W46088   5.875   8.165  11.092 -0.0655  0.3733 -0.0893
30958W        W46089   8.861   9.265  10.675  0.0422  0.3246 -0.3072
30959W        W46090  18.424   5.036  10.623 -0.1668 -0.0327  0.0798
30960W        W46091   1.091   0.858  11.751  0.0410  0.0033  0.1807
30961W        W46092   0.015   3.428  15.689 -0.0605  0.2545  0.0798
30962W        W46093  10.782   8.298   1.381  0.1105  0.0600 -0.0225
30963W        W46094  13.605   6.039   4.495  0.0465 -0.1055 -0.2373
30964W        W46095  12.184   6.028   2.957 -0.0207 -0.2472  0.1128
30965W        W46096   3.510  10.548  12.997 -0.1102  0.1424 -0.1021
30966W        W46097   9.344   1.132  14.883 -0.2596  0.0872  0.1743
30967W        W46098  17.468  11.787   2.517  0.0501 -0.0709  0.2566
30968W        W46099   9.213  11.972   4.149 -0.3000  0.3264 -0.2396
30969W        W46100   6.885   9.945   1.700  0.1414  0.3732  0.0477
30970W        W46101   0.688  11.018   2.074 -0.3250 -0.0567  0.1750
30971W        W46102   0.712   2.268   1.227  0.5189 -0.1729 -0.0419
30972W        W46103   0.226   6.415   0.100  0.0936 -0.0624  0.0598
30973W        W46104  17.294   1.662   4.633 -0.2220 -0.3810  0.0554
30974W        W46105  16.507   9.708  13.027 -0.0083  0.0248  0.2751
30975W        W46106  12.690  10.385   1.865 -0.0161  0.1426  0.2524
30976W        W46107  18.294   4.323   1.543  0.2953 -0.0097  0.0418
30977W        W46108   4.057   5.218  10.962  0.4963  0.0648 -0.0264
30978W        W46109   3.313  18.494  14.536  0.0775 -0.0926 -0.2192
30979W        W46110   3.814   7.790   0.763  0.1796 -0.1883 -0.0646
30980W        W46111   4.259  15.329  15.161  0.0423  0.1363 -0.3043
30981W        W46112  14.876   6.133  15.659  0.2776  0.1008 -0.0222
30982W        W46113  10.960   0.455   3.393  0.1559 -0.0314 -0.2854
30983W        W46114  10.289   5.634   2.966 -0.3693  0.4119  0.1802
30984W        W46115  12.328   4.845   1.077 -0.0763  0.1200 -0.2056
30985W        W46116  18.000   4.768   4.078 -0.0122  0.1050 -0.1143
30986W        W46117  10.382   5.248   1.847  0.0214 -0.2092  0.1434
30987W        W46118  13.319   7.607  12.494 -0.0345 -0.0639 -0.1026
30988W        W46119   4.853   4.196   6.181 -0.2645 -0.1244  0.1152
30989W        W46120  13.698   6.745   0.191 -0.1322  0.0770 -0.4798
30990W        W46121  13.396   5.157  14.353 -0.2033 -0.3299  0.0916
30991W        W46122  15.055   7.660  13.665 -0.1017  0.1713  0.0138
30992W        W46123   4.439   5.737  14.126 -0.1242 -0.0222 -0.1416
30993W        W46124   1.307   6.499   4.383  0.2227  0.1173 -0.0297
30994W        W46125  16.988  13.256  13.801  0.2361 -0.0953 -0.1172
30995W        W46126   8.398   7.426   5.373 -0.0577  0.1492 -0.1011
30996W        W46127  18.445   6.898  14.640 -0.0382 -0.2163  0.0705
30997W        W46128   2.957  15.709   4.190  0.0744  0.0308  0.1198
30998W        W46129   4.121  10.427   0.838 -0.0950  0.1066 -0.0190
30999W        W46130   9.904  11.490   4.579  0.3976 -0.3134  0.1671
31000W        W46131   1.962  10.140   3.178  0.0793 -0.0248  0.0373
31001W        W46132  18.381  17.286   5.477  0.3055 -0.0017  0.1596
31002W        W46133   8.756   0.017  10.624 -0.3978  0.0482 -0.4301
31003W        W46134   6.933   9.933  11.077  0.1524 -0.0810 -0.2748
31004W        W46135   3.172  10.890   4.811  0.0354  0.2672  0.0105
31005W        W46136   6.641   4.315  12.470 -0.3455  0.0562 -0.1494
31006W        W46137   0.366   4.528   0.731  0.0306  0.0112  0.1722
31007W        W46138   2.410   4.563  14.608 -0.2903 -0.5922  0.0253
31008W        W46139   4.526   8.795   2.864 -0.0600 -0.0027  0.0832
31009W        W46140  16.751  11.767   5.130  0.1502  0.1816  0.0386
31010W        W46141   7.393   2.386  13.668 -0.2087  0.3504  0.0169
31011W        W46142  14.506  17.062  13.447  0.1565 -0.0181  0.4047
31012W        W46143   9.482  15.650   9.363  0.0409  0.2446  0.0478
31013W        W46144  15.381  15.735  14.309 -0.1637  0.3227 -0.0041
31014W        W46145  12.770   6.643  14.643 -0.0466  0.1709  0.4570
31015W        W46146  10.884   1.886   3.401 -0.1923 -0.0930  0.1549
31016W        W46147  16.421   3.604  12.546  0.1939 -0.0832  0.1243
31017W        W46148  14.811  12.839   3.278  0.3998  0.1963  0.2750
31018W        W46149  11.175  13.297   1.998  0.0957  0.3637  0.1370
31019W        W46150   6.150  11.933   3.546  0.1164  0.1624 -0.2769
31020W        W46151  12.008   7.689  10.687 -0.1515 -0.2037  0.1786
31021W        W46152   5.291   1.904  11.391 -0.2455  0.2732 -0.0025
31022W        W46153  13.431  12.397  15.302  0.1249 -0.0149  0.1102
31023W        W46154  17.780  18.216   2.867 -0.1679  0.1136 -0.0508
31024W        W46155   3.818  11.091  13.994  0.0989  0.2632  0.0515
31025W        W46156   9.883   7.218  11.599  0.0757 -0.0203  0.1270
31026W        W46157   5.598   8.270  15.383  0.0345  0.0426 -0.0615
31027W        W46158  16.837  16.011  15.261 -0.0335 -0.3856  0.3301
31028W        W46159   5.732   3.985   4.914  0.0870 -0.2675  0.0395
31029W        W46160  14.214   6.909   0.268  0.1274  0.0868 -0.3132
31030W        W46161  13.930  17.311   3.131  0.0495  0.2340  0.3938
31031W        W46162   7.941   7.331   0.342 -0.1183 -0.2443  0.0053
31032W        W46163   6.508  12.977  12.931 -0.2477  0.2163  0.1704
31033W        W46164  15.106   4.248  13.897 -0.1252 -0.1380  0.0447
31034W        W46165   0.728   7.101  13.212  0.1527  0.0820 -0.0922
31035W        W46166   8.578  11.880  14.242  0.1620 -0.0628  0.2738
31036W        W46167  15.252  12.032   3.472  0.0904  0.3072  0.1303
31037W        W46168  13.169   1.209  14.336 -0.3570 -0.3488 -0.0143
31038W        W46169   3.682   3.023  11.303 -0.1789  0.2506 -0.2399
31039W        W46170   1.976  18.007  12.413 -0.0758  0.3694 -0.0329
31040W        W46171  12.773   3.529  14.796  0.2895 -0.0975 -0.0686
31041W        W46172  13.217  15.666   2.814  0.3832  0.1388 -0.1310
31042W        W46173  15.624   5.290   4.392 -0.0633 -0.1815 -0.1482
31043W        W46174   7.615   7.204  15.405  0.0432 -0.2280 -0.2905
31044W        W46175   1.450   8.631   6.103 -0.1041  0.2453 -0.0213
31045W        W46176   0.878   3.202  10.835 -0.0195  0.1357  0.1921
31046W        W46177   9.063   0.749   1.944  0.0358  0.3716  0.1753
31047W        W46178   6.797  13.469  15.006 -0.3090  0.1193 -0.0177
31048W        W46179   8.187  14.123  14.724  0.0448  0.0337 -0.1625
31049W        W46180   4.847  10.535   4.584  0.1976  0.0035 -0.1554
31050W        W46181  13.424   7.697   3.894  0.0195  0.1703 -0.0862
31051W        W46182   3.305  12.012  12.890 -0.0962  0.1467 -0.0109
31052W        W46183   6.734   9.569  10.826  0.1247 -0.0987  0.4330
31053W        W46184   0.329   6.584  12.826  0.0326 -0.0553  0.1184
31054W        W46185  11.605  16.822   1.466  0.1322 -0.1115  0.1260
31055W        W46186   5.793   0.132   2.155 -0.1412  0.0138  0.2782
31056W        W46187   1.086  17.222  12.247  0.2082 -0.0981 -0.0432
31057W        W46188   2.421   7.626  12.011 -0.0886 -0.1532  0.4455
31058W        W46189  14.734  11.926   0.159 -0.1440 -0.1870  0.0652
31059W        W46190   4.308  17.597   2.038  0.3162 -0.1569  0.0015
31060W        W46191   0.439   0.818   0.620 -0.3223 -0.3071 -0.0388
31061W        W46192  16.994   7.467   1.746 -0.3140  0.0019  0.3512
31062W        W46193  17.182   5.245   2.136 -0.1098 -0.1042  0.3208
31063W        W46194   3.020  18.319  11.040  0.0597  0.1453  0.0730
31064W        W46195  11.451   7.835   4.346  0.0423  0.4534  0.0427
31065W        W46196   4.367   7.140  11.316 -0.0362 -0.0154  0.0376
31066W        W46197  12.938   6.376  13.557  0.2170  0.0660 -0.1031
31067W        W46198   6.990   5.626   2.219  0.3040  0.0989  0.2334
31068W        W46199   9.609   2.935  14.795 -0.4096 -0.0861 -0.1251
31069W        W46200   5.410  10.661   2.362  0.0984  0.5304  0.1360
31070W        W46201   4.819   3.235   0.848 -0.0001  0.0416  0.2866
31071W        W46202   3.442   5.639   0.373  0.3162 -0.1531 -0.0039
31072W        W46203   8.566   3.028  10.581 -0.2209  0.2218  0.0905
31073W        W46204  12.368   4.370  12.355  0.0947 -0.2225 -0.2661
31074W        W46205   9.404  15.828   3.741 -0.1869  0.1613 -0.4473
31075W        W46206   6.832  12.434  14.052  0.1614  0.0071 -0.4391
31076W        W46207   0.722  12.971   2.068 -0.0431  0.0535 -0.0435
31077W        W46208   6.398  10.629  14.054  0.0610 -0.0609 -0.1056
31078W        W46209  14.909   6.996   1.994  0.1152 -0.2513 -0.1502
31079W        W46210  18.029   5.013   2.721  0.1632 -0.1521  0.2060
31080W        W46211  17.239   3.676   3.939 -0.1244 -0.0628  0.3510
31081W        W46212   7.340   7.750  13.981  0.1616  0.2659 -0.4486
31082W        W46213   8.997   6.277  11.323 -0.1851  0.1306  0.1719
31083W        W46214   8.374   1.936   0.141 -0.2254  0.1790 -0.4603
31084W        W46215   5.820  16.065  10.962  0.0387  0.1868  0.0255
31085W        W46216  17.612   6.403  12.147 -0.0934 -0.3348 -0.1357
31086W        W46217   1.397   4.553   4.576 -0.1229  0.1606  0.0682
31087W        W46218  11.105  13.606   1.587 -0.0535  0.0949  0.1053
31088W        W46219  15.108  12.862   1.998  0.1192  0.1137 -0.1718
31089W        W46220  17.992   5.893   2.164 -0.0086 -0.0649  0.0807
31090W        W46221   8.359   7.580  11.678 -0.3053 -0.0313  0.0842
31091W        W46222  13.962  13.291  11.045  0.1671  0.0939  0.1066
31092W        W46223   9.232  18.355   1.136 -0.1629 -0.0665  0.0135
31093W        W46224  15.402   0.218   3.799  0.0520  0.2471 -0.1020
31094W        W46225  12.367   9.795   3.251  0.3002  0.2139 -0.1999
31095W        W46226  16.827  16.514   1.882  0.3159  0.1384 -0.1907
31096W        W46227  14.982   8.255   5.744  0.2341 -0.1664  0.2089
31097W        W46228   2.433   7.213  14.627 -0.1852 -0.3078  0.0606
31098W        W46229  18.053  12.033  12.904 -0.1274  0.1695 -0.2317
31099W        W46230  11.823   8.214   4.395  0.3166 -0.0563 -0.1040
31100W        W46231  11.967   6.029  14.484 -0.1238 -0.0794  0.0197
31101W        W46232   5.718   9.974   3.610  0.2434  0.0794 -0.2428
31102W        W46233  16.886   5.907  13.000  0.0632  0.1032 -0.2851
31103W        W46234   0.597  17.313   0.994 -0.3394  0.2839  0.1137
31104W        W46235  10.337   7.619   5.130  0.1723  0.1851  0.1033
31105W        W46236   7.566   8.016  13.235  0.2655 -0.0901 -0.1327
31106W        W46237  12.012  17.131   1.554 -0.1042 -0.1944 -0.3499
31107W        W46238  13.762  16.718  13.570 -0.1221 -0.1894  0.2294
31108W        W46239  15.629   2.505   3.787 -0.0078  0.1571 -0.3557
31109W        W46240   0.896   6.918  13.776  0.0024  0.3023 -0.1240
31110W        W46241  14.521  15.733  11.026 -0.0869 -0.0698  0.0113
31111W        W46242   1.406   6.948  15.661  0.0046  0.0811  0.4734
31112W        W46243   8.933  12.946   1.093  0.1800 -0.2961 -0.1277
31113W        W46244   7.559  11.839   1.287 -0.3040  0.2216 -0.4166
31114W        W46245  17.391  17.138  15.684  0.5014  0.1706  0.1235
31115W        W46246   1.734  11.462   0.139 -0.1799  0.3283  0.1711
31116W        W46247  11.771   2.003  13.434  0.1396  0.0048  0.2697
31117W        W46248   8.866  17.743  10.549  0.1492 -0.0187  0.0958
31118W        W46249   2.832  11.828  13.808 -0.1801 -0.0042 -0.0793
31119W        W46250   4.394   3.219   3.695  0.2154 -0.0311 -0.4339
31120W        W46251   7.555  17.235  14.887  0.2620  0.1945  0.0185
31121W        W46252  13.293  17.864  12.327 -0.3937 -0.0116 -0.0015
31122W        W46253   7.374  17.139  15.754  0.1446 -0.0338  0.0736
31123W        W46254  11.870  10.421   2.173  0.0389 -0.0695  0.0058
31124W        W46255   3.264   4.808  13.540 -0.1584  0.1734 -0.2798
31125W        W46256   4.421   9.524  15.086  0.0123 -0.0793 -0.0636
31126W        W46257   9.914  12.022   0.325  0.1475  0.0284  0.0499
31127W        W46258  14.338  11.413   0.889  0.3226  0.1115  0.0854
31128W        W46259   5.368  13.439   3.263  0.2202  0.0421  0.3964
31129W        W46260   3.076  16.838   1.537  0.1339 -0.0607 -0.0785
31130W        W46261  17.495   2.752  14.960 -0.1852 -0.0804  0.0567
31131W        W46262   3.083   1.039   2.380 -0.3306  0.1900 -0.0151
31132W        W46263   5.593  11.285  12.874 -0.1926 -0.1383 -0.0820
31133W        W46264  13.966   8.379  14.279 -0.2125  0.0289 -0.2637
31134W        W46265  17.838   3.933  11.981  0.0496  0.1602 -0.2127
31135W        W46266  15.573   3.191  10.933 -0.1092 -0.0353  0.0890
31136W        W46267   9.860  12.303   1.338 -0.3048 -0.1756 -0.0541
31137W        W46268   6.131   9.452   2.610 -0.0369 -0.0474 -0.1826
31138W        W46269   6.032   0.622   4.283 -0.3680 -0.0970  0.1286
31139W        W46270   0.151   5.733  15.447 -0.0981 -0.1670 -0.0901
31140W        W46271  17.093  13.745   1.013  0.2769 -0.0517  0.0419
31141W        W46272   2.701  15.384   3.867  0.2233 -0.0136  0.1914
31142W        W46273   1.741   3.116   1.151  0.1921 -0.1328 -0.0367
31143W        W46274  13.004   9.052   3.093  0.3966  0.0479  0.1844
31144W        W46275  18.416  11.407  15.017 -0.1329 -0.2122  0.6245
31145W        W46276   6.543   1.230  10.493 -0.1626 -0.0763  0.0340
31146W        W46277   0.074   6.302   3.647  0.0803 -0.0368 -0.0225
31147W        W46278   3.077   2.892   3.308  0.3362 -0.3599 -0.0310
31148W        W46279  13.234   1.537   1.976 -0.0503  0.0881 -0.1788
31149W        W46280  12.350   4.878  12.615  0.0940 -0.1203  0.0049
31150W        W46281   6.334  11.329  15.307  0.1867 -0.3272 -0.0493
31151W        W46282  10.200  18.127  12.699 -0.3445 -0.0071 -0.0632
31152W        W46283  16.342   7.703   1.392  0.0283  0.1220  0.1107
31153W        W46284   8.417  15.275   0.746 -0.1998  0.3487 -0.1768
31154W        W46285   3.637  10.700   0.321  0.3585 -0.0409  0.0935
31155W        W46286  10.273   7.566   0.219  0.0001 -0.0617 -0.2721
31156W        W46287  17.076  12.301   1.620  0.2240  0.0824 -0.3618
31157W        W46288   1.974  16.980   3.502  0.1006 -0.1266 -0.0585
31158W        W46289  13.296  15.023   2.324  0.0031  0.2394  0.0782
31159W        W46290   1.976  14.642  11.553  0.0545  0.4287  0.2502
31160W        W46291   3.991  16.514  13.161 -0.1911 -0.0748  0.0338
31161W        W46292   0.128   5.738  14.268  0.1403  0.1592 -0.1063
31162W        W46293  14.872   3.728  14.064  0.3539 -0.1441 -0.2834
31163W        W46294   2.128   4.584  11.852  0.3734  0.0040  0.0493
31164W        W46295  16.482  10.868   0.465 -0.0827  0.1817 -0.0871
31165W        W46296   5.951   5.890  14.650 -0.0390 -0.1343  0.3217
31166W        W46297  12.307   8.456  15.349  0.1812  0.1050 -0.0091
31167W        W46298  11.037   4.295  11.807 -0.3313  0.0005  0.0269
31168W        W46299   6.379   4.889  11.696 -0.2663 -0.0279 -0.0032
31169W        W46300  14.225   0.894   4.599  0.0428 -0.2113  0.0460
31170W        W46301   4.292  14.088   0.952 -0.1823 -0.3174  0.2467
31171W        W46302   0.011  17.697   5.173 -0.1011  0.1204 -0.0916
31172W        W46303  18.459   2.461   1.309  0.0853  0.3005  0.0651
31173W        W46304   2.644   4.081   4.343  0.2520 -0.1039 -0.0961
31174W        W46305   0.428  17.968   5.335 -0.1144  0.0823  0.0005
31175W        W46306  16.670   2.712  11.411 -0.0012 -0.1002  0.0974
31176W        W46307   1.938  16.633  14.797 -0.1449  0.2130 -0.0079
31177W        W46308   2.046   2.726  12.684 -0.2011 -0.3193 -0.0124
31178W        W46309   7.253   1.795   0.040 -0.0870 -0.1875  0.2318
31179W        W46310   6.971   8.863  14.567  0.1180 -0.1978  0.0994
31180W        W46311  14.919  14.377   1.146  0.0940  0.0077 -0.1962
31181W        W46312  10.718  10.204  15.078 -0.0800  0.1941  0.1115
31182W        W46313   9.566   7.171  12.162  0.2698 -0.1323 -0.1283
31183W        W46314  17.731   9.258   0.060 -0.2006 -0.1457  0.1077
31184W        W46315  14.132   6.147  14.379 -0.0925 -0.1365  0.0440
31185W        W46316  16.649  13.061  11.392 -0.2240  0.1454 -0.0762
31186W        W46317   5.032   0.586  13.545 -0.4002 -0.0701 -0.0219
31187W        W46318  15.973  16.862  13.482 -0.1949  0.2021  0.0711
31188W        W46319   7.542   5.852   4.809  0.2524  0.0672  0.0204
31189W        W46320  12.155  14.759  11.968 -0.2596  0.2731  0.3879
31190W        W46321   3.248  11.372  15.737  0.3047  0.1317  0.0856
31191W        W46322   2.288  14.002   2.545 -0.1567  0.0713 -0.2269
31192W        W46323  18.329   3.265   4.875 -0.0547  0.0083 -0.1761
31193W        W46324  18.246  15.228   0.289  0.0165 -0.2005 -0.2633
31194W        W46325  10.794   1.425   2.509 -0.0630 -0.1330  0.0614
31195W        W46326   1.489   0.065  12.974  0.1843 -0.2167  0.0401
31196W        W46327  12.975   6.829  12.109  0.1972 -0.1662  0.3980
31197W        W46328  12.175  14.631  13.439  0.1494 -0.2266 -0.0927
31198W        W46329   6.728   0.319  12.703  0.1330 -0.0913 -0.1116
31199W        W46330  14.200   8.018   4.725 -0.2003 -0.0021 -0.2472
31200W        W46331   8.228   0.562  15.417  0.2768  0.2398  0.1921
31201W        W46332   7.719   4.315  13.158 -0.2546  0.1673  0.1787
31202W        W46333  16.625   0.444  14.384  0.0478  0.0105 -0.1512
31203W        W46334  14.717   7.577   2.076 -0.3083  0.0711 -0.7014
31204W        W46335  14.260   1.046   2.225 -0.2802 -0.3727 -0.0176
31205W        W46336  14.717  13.295  11.674  0.0053  0.1847 -0.1275
31206W        W46337   3.006   7.939   0.916 -0.3622 -0.1689 -0.0384
31207W        W46338  13.055  12.220  12.956  0.0468  0.3019  0.0275
31208W        W46339   3.420  15.304   4.800  0.2734  0.2384 -0.0763
31209W        W46340   7.847  10.163   3.899 -0.1471  0.0682  0.1757
31210W        W46341  10.383   3.013   4.430  0.4954 -0.1528 -0.2548
31211W        W46342   0.056  10.981   0.854  0.1319 -0.1723  0.0451
31212W        W46343   8.755  17.497   1.465  0.0081 -0.4061 -0.1269
31213W        W46344   0.550   5.133  15.030  0.1883 -0.2381  0.0927
31214W        W46345   9.488   0.202   1.413 -0.4043  0.0917 -0.0935
31215W        W46346   1.689   2.886  10.689  0.1622 -0.3086  0.0931
31216W        W46347   1.455  13.086   1.381 -0.1492  0.0657  0.1263
31217W        W46348   9.652   5.103   3.586 -0.1040 -0.5006  0.3524
31218W        W46349   2.551  12.518   1.525 -0.2116  0.0944 -0.1880
31219W        W46350   4.905   8.737   1.233  0.1798 -0.0248 -0.2584
31220W        W46351  18.429  15.518  15.505 -0.1279 -0.1425 -0.0045
31221W        W46352   6.736   6.596  15.639  0.0223  0.0123 -0.0341
31222W        W46353   7.327   6.252   4.022 -0.0908  0.1015  0.1563
31223W        W46354   5.860   5.122  12.251 -0.1879  0.0691  0.5348
31224W        W46355  11.966  13.297   0.543 -0.0205 -0.2825 -0.2107
31225W        W46356  16.080  13.086   2.291  0.2816 -0.1900 -0.0118
31226W        W46357  10.529   0.436   2.789  0.1171  0.0044 -0.2377
31227W        W46358  14.959  16.417   3.139  0.0549  0.0438  0.1471
31228W        W46359   7.512  11.999   0.791 -0.1117  0.1079 -0.0115
31229W        W46360   0.543  12.822   3.459 -0.2686 -0.0377  0.3825
31230W        W46361   1.004   2.517  15.605  0.0112 -0.2125 -0.2109
31231W        W46362  14.395  18.410   3.773  0.0963  0.0618 -0.2073
31232W        W46363   3.994  13.989  11.271  0.0783  0.0467 -0.1638
31233W        W46364  14.387   2.088   3.905 -0.4642  0.1041 -0.0975
31234W        W46365  13.842   7.503   1.177  0.2855  0.1534 -0.0085
31235W        W46366   2.050   0.612   6.212 -0.1629 -0.4052  0.0145
31236W        W46367   1.894   1.699  15.132 -0.3265 -0.0096 -0.1193
31237W        W46368   2.718   5.301  10.485  0.3089  0.0906  0.2493
31238W        W46369   6.844   8.363  11.629  0.1029  0.1029  0.1600
31239W        W46370   8.547  14.318  14.416  0.1767 -0.2188 -0.0766
31240W        W46371  17.856  18.127   5.571 -0.1567  0.0209  0.2029
31241W        W46372  15.393   6.946   3.554  0.0038 -0.2068 -0.0859
31242W        W46373   8.361  14.986  14.286 -0.1525 -0.2467  0.1343
31243W        W46374  10.079  16.421  12.314 -0.1236 -0.1406  0.1193
31244W        W46375  13.556   4.454   2.845 -0.6567  0.0424  0.0907
31245W        W46376   1.093  13.079   4.209 -0.1473  0.2166 -0.1306
31246W        W46377   7.546  17.644  13.873  0.0694 -0.2193 -0.1397
31247W        W46378  14.499   3.399   4.296  0.0531 -0.1347  0.0721
31248W        W46379  17.798  11.905   2.014  0.0481 -0.0540  0.2461
31249W        W46380   8.905  10.416   2.349 -0.1633  0.6040  0.3126
31250W        W46381   8.330   7.053  11.803  0.0425  0.0930  0.0788
31251W        W46382  16.033   3.706  10.249 -0.0995 -0.1048  0.0343
31252W        W46383  10.057  16.140   3.076 -0.0011  0.2061 -0.2406
31253W        W46384   0.485   0.162   0.009 -0.0699  0.3431 -0.2973
31254W        W46385   2.484   5.631   2.642  0.1280 -0.0942  0.2982
31255W        W46386   5.644   4.054  13.918  0.1395 -0.1145  0.0317
31256W        W46387   7.529   8.003  12.707 -0.0789 -0.0822  0.0732
31257W        W46388  17.530  14.698  10.521  0.1540 -0.2314 -0.1954
31258W        W46389   0.202   0.513   0.279 -0.3034  0.2129 -0.2498
31259W        W46390  17.076   7.631   3.016  0.0041  0.0919  0.2517
31260W        W46391   9.991  16.798  10.739 -0.1157 -0.1661 -0.3009
31261W        W46392  14.865   9.744  14.511 -0.2889 -0.2360  0.0349
31262W        W46393  14.603   5.966   0.801  0.0658 -0.2383  0.1492
31263W        W46394   5.729  16.567  12.703  0.1373 -0.2857  0.3649
31264W        W46395   3.010  15.557   1.064  0.0086 -0.0503 -0.2227
31265W        W46396  11.212   0.966   2.218  0.2724  0.0277  0.1893
31266W        W46397  10.942  10.549  14.256 -0.1484 -0.0941 -0.1082
31267W        W46398   4.153   6.650   0.464 -0.1921 -0.2384  0.0581
31268W        W46399   1.748  13.212  13.902 -0.2526 -0.4335 -0.1397
31269W        W46400   2.314  10.885  11.613  0.0285 -0.1207  0.0802
31270W        W46401   9.444   3.292  13.878 -0.2723 -0.3071  0.0265
31271W        W46402   1.421   7.470   3.401  0.2061  0.0511 -0.2390
31272W        W46403  12.277  13.636  11.022 -0.0747  0.0500  0.0455
31273W        W46404   3.296   7.492   3.805 -0.0371 -0.1332  0.0018
31274W        W46405   1.883   1.951  14.543  0.0606 -0.0588  0.3333
31275W        W46406  17.323  16.734  14.638  0.1842 -0.1372 -0.0252
31276W        W46407   2.065   7.506  14.952 -0.3644  0.1440 -0.0359
31277W        W46408  11.695  16.946   3.188  0.2606 -0.1796 -0.0173
31278W        W46409   7.057   0.677  12.959 -0.1438 -0.4098  0.0279
31279W        W46410   3.383   3.851  13.674  0.0068 -0.1121 -0.0396
31280W        W46411   7.842  12.422  13.653  0.4294  0.3025  0.0564
31281W        W46412   8.126   0.413   2.307 -0.1992  0.6260  0.1022
31282W        W46413   8.085   2.567   4.037 -0.0500 -0.1162  0.1638
31283W        W46414   2.458   3.786   2.193 -0.5092  0.0682  0.2355
31284W        W46415   1.502  10.588   1.911  0.1114  0.1591  0.1327
31285W        W46416  18.102   3.850  15.506  0.4673 -0.2191  0.1273
31286W        W46417  10.555   5.273   0.126 -0.0843  0.1659 -0.3744
31287W        W46418   1.015   0.362   5.537  0.1271 -0.3378 -0.2311
31288W        W46419   3.721   1.195  15.317 -0.2673  0.5949  0.0271
31289W        W46420  10.681   5.562   3.259  0.3599 -0.0774  0.0621
31290W        W46421   8.722  14.083   0.845  0.0507  0.0957  0.0760
31291W        W46422   8.334  18.169  12.164  0.0214  0.2751 -0.0543
31292W        W46423  12.018   2.889  13.603  0.0071 -0.4607  0.2390
31293W        W46424   7.890  11.110  12.310 -0.1550  0.0143 -0.0048
31294W        W46425   2.187   5.279   2.862 -0.1048  0.2510 -0.3940
31295W        W46426   2.945   1.294   3.929  0.2028  0.0144  0.1616
31296W        W46427   4.565   0.049  15.447  0.4951  0.1062  0.1471
31297W        W46428  11.650   6.259   4.659 -0.0612  0.2025  0.0247
31298W        W46429   4.287  13.896   2.694 -0.2102  0.0123 -0.0523
31299W        W46430  14.641   7.345  15.449 -0.0532 -0.2749  0.1307
31300W        W46431   0.961   3.858  11.431  0.0672  0.1359  0.1232
31301W        W46432  13.570   4.630   1.795 -0.0146  0.3318 -0.0926
31302W        W46433  16.938  17.237   3.227  0.0459 -0.1628  0.0871
31303W        W46434   9.528   2.315   1.549 -0.2563  0.1076  0.0209
31304W        W46435  12.835   0.786   0.951  0.0128  0.2380 -0.0073
31305W        W46436   4.615  13.960  15.176  0.2586  0.0003  0.0446
31306W        W46437   3.600  18.131   2.376 -0.2076  0.0368 -0.1141
31307W        W46438  11.968  17.577   4.680  0.0668 -0.3131  0.4065
31308W        W46439   0.782   6.245   4.153  0.1647  0.0464  0.1076
31309W        W46440  12.487   6.745   3.636  0.0922  0.0903 -0.1229
31310W        W46441  10.969  11.024  15.777  0.1193  0.0337  0.0734
31311W        W46442   1.613  16.638   4.988  0.1033 -0.0766 -0.1020
31312W        W46443   4.038   1.641  15.516  0.2716  0.1895  0.0873
31313W        W46444  11.649   6.492  14.720 -0.0854  0.0816  0.1124
31314W        W46445  12.660  12.414  14.673 -0.1851 -0.0938 -0.1092
31315W        W46446   4.434   0.441  13.812 -0.1535  0.0676  0.0090
31316W        W46447   2.696   4.366   5.310 -0.1110  0.1342  0.2286
31317W        W46448   5.488  16.828  15.182  0.0798  0.0128  0.0987
31318W        W46449   5.331  14.612   5.792 -0.0091 -0.2748 -0.1860
31319W        W46450   0.180  14.761  15.414  0.2294  0.1791  0.2972
31320W        W46451  14.842   3.506  10.832 -0.1872  0.1964 -0.2438
31321W        W46452   5.172   9.518   5.541  0.1683  0.0845  0.0757
31322W        W46453   7.996   8.698  13.826  0.1993  0.1659 -0.0243
31323W        W46454   0.067   9.611  11.693  0.1970 -0.0379  0.3540
31324W        W46455   5.349   1.415  11.475  0.3578 -0.1835  0.2294
31325W        W46456   9.338   2.788  14.006  0.0816  0.0653  0.3473
31326W        W46457   7.643   2.351  15.196 -0.2593 -0.0888  0.2172
31327W        W46458   2.698   8.841   4.210  0.1079 -0.2435 -0.1156
31328W        W46459  10.732  17.906  15.492 -0.0572  0.0614  0.1688
31329W        W46460   8.460   9.259   1.271 -0.2354 -0.0461  0.0273
31330W        W46461   3.281  12.241  14.790  0.1695 -0.0441  0.1808
31331W        W46462   6.902  13.635  13.533 -0.1248 -0.1771  0.0647
31332W        W46463  13.075   1.281  13.794 -0.2422  0.1343  0.1969
31333W        W46464  18.334   7.308   2.441 -0.2979 -0.2288 -0.1977
31334W        W46465  15.763  10.778  13.455  0.0523  0.3650  0.1342
31335W        W46466   3.370   1.280  12.645  0.2541 -0.2134  0.0839
31336W        W46467  16.718   6.501   5.645 -0.1283 -0.0707 -0.0718
31337W        W46468  18.216   5.811  15.753 -0.0628 -0.0513  0.1850
31338W        W46469  13.081  13.958   0.541  0.0772 -0.1057  0.1155
31339W        W46470  16.351  16.846   3.414  0.2825 -0.0222  0.3052
31340W        W46471   6.768  12.705  15.746 -0.1918  0.2640  0.2395
31341W        W46472   3.619  11.732  15.023  0.1960 -0.1282 -0.0401
31342W        W46473  14.034  12.425  11.985  0.1716 -0.0264 -0.0153
31343W        W46474  17.596   2.391  12.932 -0.4305 -0.0528  0.0605
31344W        W46475  16.733   4.030  14.379 -0.0298 -0.0305  0.0904
31345W        W46476  11.616  10.868  14.725 -0.0631  0.1355  0.2340
31346W        W46477  18.253   1.440   3.471  0.2332 -0.0596  0.2222
31347W        W46478   0.513  14.768   1.671 -0.2811 -0.2051 -0.2396
31348W        W46479   7.902  15.360  15.728  0.2048  0.0110  0.0884
31349W        W46480   3.848  16.421  12.176 -0.3671  0.0962 -0.1153
31350W        W46481   2.243   3.873  12.401  0.0942 -0.5339  0.0811
31351W        W46482   1.562   9.991   2.363 -0.1411  0.0026 -0.3034
31352W        W46483  10.781   4.422   4.328 -0.0891 -0.3289  0.1074
31353W        W46484   7.693  15.413  12.240  0.0210  0.1431 -0.0197
31354W        W46485  17.829  14.262   1.960  0.1101  0.1666  0.0506
31355W        W46486   6.650   7.861   2.885 -0.1111  0.2528  0.2153
31356W        W46487  12.907   8.347   5.011  0.0122 -0.0331  0.1096
31357W        W46488  16.299  11.539   4.831 -0.1174 -0.2672  0.4037
31358W        W46489   0.129  10.531   4.262  0.0016 -0.0002 -0.0217
31359W        W46490   7.697   2.342   0.645  0.0976 -0.0643 -0.0548
31360W        W46491   2.986  17.399  12.638 -0.0501 -0.2004 -0.1916
31361W        W46492  17.429   7.700   1.557  0.0126  0.2047 -0.0344
31362W        W46493   6.694  13.767   3.070  0.1042  0.1425 -0.0898
31363W        W46494   3.158  10.919   0.273  0.4874 -0.3651 -0.2006
31364W        W46495   8.317   7.123   3.968 -0.1102 -0.2016 -0.3350
31365W        W46496  12.642   7.071   0.971 -0.1742  0.1316  0.0795
31366W        W46497  13.129  16.841  11.268  0.0536 -0.2429  0.0051
31367W        W46498   2.487   1.763  13.706 -0.2344 -0.1416  0.1417
31368W        W46499  14.110   5.873  13.052 -0.0279 -0.1758 -0.0803
31369W        W46500  12.857  10.313  10.231  0.0330 -0.3639  0.0006
31370W        W46501   0.356   8.508  11.854 -0.0575  0.1713 -0.1041
31371W        W46502   8.379  14.393  12.011 -0.3149  0.2308  0.2038
31372W        W46503  17.744  15.956   4.361  0.0999  0.0566  0.1351
31373W        W46504   7.557  12.443   2.435 -0.3231 -0.0011 -0.0882
31374W        W46505   3.315  16.542  13.496  0.0690 -0.3765  0.1088
31375W        W46506   2.599   4.279   4.839  0.1739 -0.3367  0.1989
31376W        W46507   4.476   3.374   1.572 -0.2653 -0.0930 -0.2032
31377W        W46508   3.388   9.247  12.564 -0.1874 -0.3522  0.0098
31378W        W46509  17.947  18.466   1.270 -0.4730  0.0798 -0.1909
31379W        W46510   4.903  15.375   4.673  0.0003 -0.1238  0.1308
31380W        W46511  18.066   5.817   0.337 -0.2094  0.0601 -0.0927
31381W        W46512   4.879  13.955  13.527 -0.3009 -0.0550 -0.0466
31382W        W46513   7.950  14.041  12.899  0.6385  0.1140  0.2258
31383W        W46514  13.276  12.697   2.159  0.1209 -0.0411 -0.3595
31384W        W46515   6.194   7.295  14.496 -0.0106  0.4863 -0.3258
31385W        W46516  14.678   3.915   4.235  0.2443  0.0138  0.2038
31386W        W46517   3.822   2.234   5.239 -0.0200 -0.4549 -0.0188
31387W        W46518  15.728   3.819  15.513  0.0819  0.3850 -0.1484
31388W        W46519  16.416   8.111   3.569  0.1249 -0.3436 -0.0555
31389W        W46520  11.300  13.032  10.582  0.0825  0.2209  0.4816
31390W        W46521  10.580  15.856   5.028  0.0710  0.2118  0.0925
31391W        W46522   4.090   6.519  15.826 -0.2030 -0.0905  0.0595
31392W        W46523  11.310  15.073   2.160  0.1381 -0.1203 -0.2204
31393W        W46524   6.677  11.508  14.956  0.0854 -0.0377 -0.1238
31394W        W46525  11.723   0.154   0.973  0.0490  0.0326  0.2242
31395W        W46526  11.630  17.769   2.607  0.1065 -0.0588  0.3735
31396W        W46527  18.231   8.932   4.085  0.1184 -0.0622 -0.4886
31397W        W46528  16.043   9.275   3.861  0.2547  0.3552  0.0893
31398W        W46529   3.180   2.080   5.682  0.3306 -0.1262  0.1138
31399W        W46530  16.686   6.625   2.349  0.0077 -0.0811 -0.2188
31400W        W46531   9.039   0.175   0.069  0.2137 -0.1719  0.0150
31401W        W46532   3.581  16.131   0.075 -0.1061 -0.0020 -0.2518
31402W        W46533  11.874   2.286  10.956  0.0385 -0.2330  0.2859
31403W        W46534  12.625  10.727   0.818  0.1983  0.1012 -0.2131
31404W        W46535   6.048  10.470   3.428  0.2742  0.1094 -0.0550
31405W        W46536  18.086   2.545  14.201 -0.1440 -0.1353 -0.2683
31406W        W46537  17.366  14.152   0.091  0.0070 -0.1640  0.0701
31407W        W46538  17.306   3.653  12.343  0.1392 -0.1477 -0.0888
31408W        W46539   6.220  15.790  11.116  0.4208 -0.2274  0.3555
31409W        W46540   6.668   0.575   3.385 -0.0195  0.1653 -0.0417
31410W        W46541   0.840   8.805   5.027  0.0915  0.1702  0.2862
31411W        W46542   9.056  14.224  15.076  0.0292 -0.1124 -0.2273
31412W        W46543   4.483   8.338   4.560 -0.1455  0.1665  0.2814
31413W        W46544  13.457   5.181  15.731  0.3964  0.1142  0.0470
31414W        W46545   5.216  13.338   0.151  0.0160 -0.0613  0.2844
31415W        W46546   7.499  14.671   0.860  0.4182 -0.0220 -0.5066
31416W        W46547   6.773   0.311  11.385 -0.0217  0.0416  0.2142
31417W        W46548   0.803   3.407   1.872 -0.1649 -0.0870 -0.2160
31418W        W46549  17.509   8.447   0.451 -0.1364  0.3738 -0.0398
31419W        W46550   9.801  10.904  15.188 -0.0706 -0.2095  0.0524
31420W        W46551   1.261   9.788   1.097 -0.2754 -0.0478  0.0262
31421W        W46552  15.558  11.204  12.117  0.0628  0.0930 -0.3343
31422W        W46553   4.962   3.543  12.817  0.1180  0.2207  0.1007
31423W        W46554  14.234   5.440  11.720  0.0517 -0.2956  0.1569
31424W        W46555   1.140   8.189  15.024  0.0081 -0.1170  0.1835
31425W        W46556   8.932   9.765  10.822 -0.0638 -0.0016 -0.0222
31426W        W46557  10.105   1.755  14.212  0.0638 -0.1046 -0.0717
31427W        W46558  16.766  15.027  14.236  0.2053 -0.1541  0.2506
31428W        W46559  11.358   4.094   1.983  0.4030  0.2676  0.1748
31429W        W46560  12.730   6.106  14.700 -0.2118 -0.0633  0.3117
31430W        W46561  15.159   8.024  14.005 -0.1143  0.0554  0.0299
31431W        W46562  15.386   9.041   5.495 -0.0415 -0.2215  0.2368
31432W        W46563  12.985  17.071   5.039 -0.1312 -0.3345  0.2797
31433W        W46564  10.221   7.377   4.666 -0.0306 -0.0227  0.0499
31434W        W46565  15.603   4.103   2.821 -0.1841  0.2257 -0.3657
31435W        W46566  14.428   8.117   0.140  0.3006 -0.0210  0.1143
31436W        W46567   0.435   2.298   5.569  0.2410 -0.0224 -0.0457
31437W        W46568   7.368  18.175   1.743  0.3769 -0.2826  0.6266
31438W        W46569  14.635   4.166  15.149 -0.0732  0.0004 -0.0233
31439W        W46570  11.368   3.464   3.784  0.0832 -0.1954 -0.2580
31440W        W46571   4.040   3.871   3.053  0.2982 -0.0098 -0.0360
31441W        W46572   9.239   7.754   5.285 -0.3052 -0.0998  0.3133
31442W        W46573  17.757   5.332  10.999  0.0244  0.2797 -0.0474
31443W        W46574   1.838   0.332  12.338  0.4561  0.0769  0.1310
31444W        W46575   2.342  17.375   1.571  0.0885 -0.1336 -0.0009
31445W        W46576  13.647  13.499  13.660  0.0287 -0.0060  0.0630
31446W        W46577   3.908   3.781  12.317 -0.3079 -0.1685 -0.0252
31447W        W46578  11.711   8.445   2.170  0.0486  0.0450  0.3961
31448W        W46579   8.117   7.891   4.214 -0.1631  0.0035 -0.1999
31449W        W46580  14.529   4.923   5.167  0.0074 -0.1392 -0.3810
31450W        W46581  16.363   3.231   3.734  0.1131 -0.0209  0.4441
31451W        W46582  16.879   8.341  15.444 -0.1010 -0.2173 -0.2666
31452W        W46583   3.223   8.299  13.225 -0.0652  0.2849  0.1643
31453W        W46584   6.668   0.015   3.663  0.0912  0.1764  0.0395
31454W        W46585   8.133  17.686   3.994 -0.0915  0.1704 -0.2056
31455W        W46586   0.671   4.185   3.034 -0.1390 -0.4730 -0.3955
31456W        W46587   4.957   3.135  10.962 -0.1277  0.0911  0.2076
31457W        W46588   4.431  11.800   2.038 -0.1779 -0.0242 -0.0393
31458W        W46589  12.947   6.845  15.466  0.1500 -0.3148 -0.0198
31459W        W46590   1.804  11.941  15.065 -0.0490  0.2671 -0.0803
31460W        W46591  15.495   3.104   2.154 -0.4397 -0.0182  0.1085
31461W        W46592   5.882   3.315   6.221  0.1339  0.2475  0.1861
31462W        W46593   8.740   6.433   5.286 -0.0766 -0.4026  0.0657
31463W        W46594  16.629   7.742   5.229  0.1555 -0.0258 -0.1798
31464W        W46595  18.098   2.846  15.083 -0.1004  0.0258 -0.2688
31465W        W46596   7.614  16.750   0.083  0.2467  0.0456  0.0069
31466W        W46597   2.103   2.320  11.290 -0.1318  0.2857 -0.1460
31467W        W46598   4.619   6.272   3.826  0.0032  0.0775  0.1926
31468W        W46599  17.417  11.080   2.332 -0.1409  0.0365 -0.0938
31469W        W46600   3.763  13.297   5.005 -0.1377 -0.1982  0.0053
31470W        W46601  12.988   7.844   2.957  0.1961  0.3587  0.2633
31471W        W46602  17.045   7.426   4.498  0.0563  0.0191 -0.0520
31472W        W46603  17.630   8.214  13.891 -0.0068  0.0449 -0.0166
31473W        W46604   3.872  10.448  14.210 -0.2039  0.2448 -0.1992
31474W        W46605  10.801  14.358  12.415 -0.3595  0.1031  0.2000
31475W        W46606   6.679   3.623   3.597 -0.0951 -0.3050 -0.1525
31476W        W46607  18.214   5.579  11.246  0.1049  0.0635 -0.1135
31477W        W46608   3.500  10.212   2.413  0.0188  0.1212 -0.0416
31478W        W46609   8.033   1.512   3.783 -0.1291  0.1996 -0.1158
31479W        W46610  10.648  17.463  15.244  0.4564  0.1116  0.0161
31480W        W46611  18.315  12.845   5.476  0.3638 -0.0996 -0.0726
31481W        W46612  16.714   8.674   1.736 -0.0898 -0.1526  0.1331
31482W        W46613   8.666   1.445  11.668  0.1069  0.2065  0.0674
31483W        W46614  12.917   4.569   4.814  0.1867  0.0959 -0.0754
31484W        W46615   5.214  13.412  15.036 -0.4141  0.1859 -0.2026
31485W        W46616  14.064   8.891  14.104  0.0152 -0.1487 -0.0677
31486W        W46617  15.954   2.156   5.629  0.0079  0.4486 -0.0295
31487W        W46618   2.355  12.293   4.922  0.2025  0.2758  0.1274
31488W        W46619   5.311  12.915   4.984 -0.0421  0.3526 -0.0443
31489W        W46620   8.089   1.955  14.475  0.1525 -0.1776  0.1910
31490W        W46621   3.207   9.805  12.493 -0.0605  0.1464 -0.1961
31491W        W46622   7.000   2.229   1.322 -0.1295  0.1866 -0.1065
31492W        W46623   6.014   6.771   5.499  0.2349 -0.0172 -0.0726
31493W        W46624   7.051   7.670   3.900  0.0157  0.1174 -0.2905
31494W        W46625   8.151   9.031   0.446  0.3545 -0.4372  0.0516
31495W        W46626   8.737  13.220   4.315  0.0092  0.0027 -0.0384
31496W        W46627  17.176  17.689   2.865 -0.1026  0.0727 -0.0854
31497W        W46628   3.516   5.591   1.955 -0.4269 -0.0580  0.0832
31498W        W46629  13.107   1.304  11.766  0.0343 -0.1309 -0.0381
31499W        W46630   8.801   7.865  13.215  0.2063  0.3807  0.4995
31500W        W46631  11.404  12.530   3.346 -0.0516  0.1302 -0.0419
31501W        W46632  11.076   3.370   1.057  0.1172 -0.0021  0.5045
31502W        W46633   4.392  17.035   1.841  0.3251 -0.4237  0.1119
31503W        W46634   5.834   0.872  15.684  0.0242  0.3551 -0.0722
31504W        W46635   6.717  14.223   3.865 -0.0116 -0.0399  0.3068
31505W        W46636  16.556   7.541   0.928  0.1092  0.0972  0.1209
31506W        W46637   0.775  12.781  13.753  0.1862 -0.0986  0.1194
31507W        W46638  11.164   4.926   9.977  0.1009  0.0224  0.4656
31508W        W46639  18.117   3.904  13.145 -0.2242 -0.1313  0.0757
31509W        W46640  13.228   9.495  11.456 -0.1809  0.1247  0.3415
31510W        W46641   2.773   9.362  10.982  0.1091 -0.0153 -0.1859
31511W        W46642  17.627  15.274   9.910 -0.0784  0.5024  0.3111
31512W        W46643   2.095   2.390   4.617 -0.2412 -0.1234 -0.3281
31513W        W46644  16.769  14.683  15.443 -0.0673  0.4189 -0.1405
31514W        W46645   1.273   7.678   2.623  0.0586  0.0077  0.1249
31515W        W46646   6.832  15.820  10.080  0.2142 -0.2343  0.0187
31516W        W46647   4.936   3.409   3.525  0.1853  0.0757  0.2053
31517W        W46648  12.532  13.145   4.366 -0.1017 -0.1093  0.0696
31518W        W46649  12.105   9.084  15.289  0.0165 -0.2317  0.0566
31519W        W46650   9.876  17.160   3.894  0.1350  0.0066 -0.1113
31520W        W46651  16.559  18.018   4.209 -0.0336 -0.0605  0.1048
31521W        W46652   8.952  14.544  14.680 -0.2196 -0.3619 -0.0599
31522W        W46653  12.357  17.517  12.787  0.1432  0.2358  0.0732
31523W        W46654   2.759  12.747  11.775 -0.1869 -0.1543 -0.2202
31524W        W46655  15.819   2.912  11.360  0.1930 -0.0545  0.2921
31525W        W46656   0.855   2.048  14.138  0.2300 -0.0196 -0.2629
31526W        W46657   4.771   5.820   3.652  0.1014 -0.0350 -0.3149
31527W        W46658  17.662   1.140  15.343 -0.1969  0.0308 -0.1627
31528W        W46659  12.574   5.629  11.585 -0.0735  0.0221  0.0564
31529W        W46660   6.962  18.152  10.908  0.0818  0.0169  0.4612
31530W        W46661   2.231  16.922  11.623 -0.1306  0.3042  0.0455
31531W        W46662  17.537   5.402   1.020  0.1894  0.2753 -0.2054
31532W        W46663   9.267   1.570  15.251  0.2507  0.1308 -0.1293
31533W        W46664  15.927   1.824   6.022  0.2768  0.0732 -0.0865
31534W        W46665   1.260  11.440  14.433  0.3450 -0.3232 -0.2243
31535W        W46666  15.875  18.248  13.334 -0.0892 -0.0011 -0.1473
31536W        W46667  11.422  10.081   2.896 -0.0323  0.3396 -0.1775
31537W        W46668  12.178  10.481  10.869  0.1444 -0.1259  0.0644
31538W        W46669   0.843   0.386  12.537  0.0246  0.2105 -0.0901
31539W        W46670  17.919   9.205  13.654  0.1132 -0.3465  0.2596
31540W        W46671   4.117   5.297  14.282 -0.2511 -0.0159 -0.3470
31541W        W46672  12.851  10.997   4.724  0.1700 -0.0140 -0.0958
31542W        W46673   7.376  15.105  15.089  0.1555 -0.0498 -0.1999
31543W        W46674   1.394   0.880  12.623 -0.2145 -0.4044 -0.1399
31544W        W46675  10.678   3.688   1.956 -0.0827  0.0582  0.2946
31545W        W46676  12.117   0.698   3.884 -0.1956 -0.0599  0.0514
31546W        W46677  14.257  18.123  11.957 -0.1170  0.1411 -0.0632
31547W        W46678  17.609  12.292  12.845  0.2002 -0.0768  0.2059
31548W        W46679  10.778   6.184   9.966  0.0247 -0.0723  0.3517
31549W        W46680  13.771  11.795   1.460 -0.1957  0.0879  0.1027
31550W        W46681   1.149   2.451  14.012 -0.1801  0.0495  0.0773
31551W        W46682   3.223   6.835  12.359 -0.0312 -0.1347  0.1611
31552W        W46683  15.757   9.683  12.473  0.1466  0.0244 -0.0556
31553W        W46684  11.543   2.504   4.889  0.2885 -0.0275  0.0089
31554W        W46685  13.381  13.526  13.249 -0.0900 -0.1275 -0.1477
31555W        W46686   3.514  13.792   2.207  0.0503  0.0894  0.1917
31556W        W46687   4.677  17.302  15.567  0.0117  0.3220  0.0547
31557W        W46688   2.520  13.478   3.693  0.0127  0.0826  0.2185
31558W        W46689  16.246   3.966  14.539  0.3036 -0.1131 -0.0249
31559W        W46690  18.292   7.411   5.038  0.0088 -0.0413 -0.1895
31560W        W46691   1.284   1.541   5.723  0.2533 -0.0452  0.0841
31561W        W46692   5.219  16.488  13.483  0.2635 -0.2137  0.1014
31562W        W46693  16.412   7.654   5.717  0.1787 -0.2068  0.2318
31563W        W46694   9.046  17.228   2.398 -0.0135  0.0800 -0.0362
31564W        W46695  18.108  10.572   0.165  0.2025 -0.2429 -0.3332
31565W        W46696  10.920  14.271  14.400  0.0988  0.0437 -0.1820
31566W        W46697  16.488  10.181  13.202  0.1047  0.0817 -0.0457
31567W        W46698  11.800  16.538  12.895  0.0972 -0.3301  0.2338
31568W        W46699   1.236  12.885  13.219  0.0634  0.3556  0.0646
31569W        W46700  15.115   2.886  13.931  0.1794  0.0454 -0.2450
31570W        W46701   7.213  12.229  11.933 -0.2288  0.0789  0.1173
31571W        W46702  14.631  11.314   9.838 -0.0568 -0.1193 -0.3145
31572W        W46703   0.539   3.911   1.833 -0.0242  0.0029 -0.0149
31573W        W46704   1.935  14.975   1.628 -0.1681  0.0275  0.0682
31574W        W46705   8.883   9.295   3.634  0.2523 -0.2747  0.1460
31575W        W46706   7.537   3.112   2.151  0.2852 -0.0672  0.0288
31576W        W46707   4.287  10.120  15.868  0.1900  0.2078  0.0551
31577W        W46708   0.158  10.278  13.161 -0.1067  0.0385  0.0662
31578W        W46709  12.219   8.137   0.160  0.3031  0.2565 -0.1424
31579W        W46710  14.484  12.551   5.051 -0.2368 -0.0187 -0.2037
31580W        W46711  15.436  18.468  12.950  0.1219  0.0077  0.1913
31581W        W46712   8.953   3.509   1.987 -0.0859 -0.0800  0.2746
31582W        W46713  10.344  17.004  13.171  0.1511  0.1082  0.1467
31583W        W46714   5.041  11.463   1.731  0.0874  0.1633  0.3129
31584W        W46715   6.720   3.391  13.041 -0.0565 -0.0253  0.0405
31585W        W46716   8.999  14.724   4.491  0.1420  0.1668 -0.1628
31586W        W46717  16.598   2.056  15.012  0.0604  0.1082 -0.0772
31587W        W46718   6.369   0.078  12.336 -0.1398  0.1645 -0.1919
31588W        W46719  17.004  17.427  15.797 -0.0007 -0.2195 -0.0973
31589W        W46720  12.913  15.381   0.118 -0.0898  0.0609 -0.2781
31590W        W46721  12.740  14.568   4.770 -0.1118 -0.0668  0.0797
31591W        W46722  18.394  10.747   5.158  0.0396  0.3103 -0.0286
31592W        W46723  16.077   5.217  13.994  0.1954  0.0154  0.1239
31593W        W46724  15.910  10.590  11.510  0.0084  0.1778 -0.1021
31594W        W46725  15.590  15.240   0.382 -0.0619  0.4815 -0.1853
31595W        W46726   2.181   9.051  12.786 -0.1853  0.0279 -0.1296
31596W        W46727   4.646  15.739  14.464  0.3695  0.0697  0.0309
31597W        W46728   4.635   4.522   4.668 -0.0517 -0.0864  0.1782
31598W        W46729   6.028   7.656  11.462 -0.0747 -0.4738  0.2107
31599W        W46730  10.196   6.373   3.125 -0.1508 -0.2150  0.0638
31600W        W46731   4.109   0.586  10.929  0.0825  0.1604  0.1054
31601W        W46732   3.966  14.196   4.872  0.2494 -0.1234 -0.2966
31602W        W46733  18.351   6.071  12.986  0.2640  0.2016  0.1724
31603W        W46734   3.194   2.836   3.873 -0.0789 -0.1229  0.1198
31604W        W46735   6.451  13.927   5.578  0.0333  0.0306  0.1099
31605W        W46736  15.405  10.855   5.387 -0.0812 -0.0286  0.4018
31606W        W46737   5.498   5.861  12.496 -0.3833 -0.0921 -0.1571
31607W        W46738   5.389   7.082   4.603 -0.2607 -0.0852  0.0298
31608W        W46739   2.659  17.985   5.348  0.0095 -0.0829 -0.3119
31609W        W46740   0.139  12.016  10.929  0.0874 -0.2034  0.2054
31610W        W46741  10.632   9.494  10.744 -0.1193  0.0398 -0.1036
31611W        W46742   8.958   7.123   2.344 -0.4903 -0.3218  0.1767
31612W        W46743  12.128   1.093   2.067 -0.2178 -0.3335  0.2014
31613W        W46744  14.307  10.769   3.553  0.2067  0.2092 -0.1888
31614W        W46745   3.130  11.902  15.650  0.0626 -0.0426  0.1492
31615W        W46746  12.257   8.822  12.358 -0.2317  0.2029  0.1550
31616W        W46747   0.015   5.136  13.152 -0.1943 -0.0778 -0.2887
31617W        W46748   7.956  15.921   3.347 -0.1006  0.3152 -0.1422
31618W        W46749  11.273  11.199  13.060  0.1628 -0.1946 -0.0473
31619W        W46750   1.778  12.720  13.897  0.0671 -0.0949 -0.0822
31620W        W46751  15.405  18.155   4.670 -0.0494  0.2225  0.0972
31621W        W46752  15.796  16.856   0.394  0.0873 -0.1963 -0.0863
31622W        W46753  12.236   8.341  11.330 -0.5427  0.2210 -0.0058
31623W        W46754  11.210  17.160   1.348 -0.4319  0.2929  0.1143
31624W        W46755   1.870   8.503   5.780 -0.2130  0.1238  0.2487
31625W        W46756   9.726  14.362  11.662  0.0412  0.0685 -0.0334
31626W        W46757   0.341   1.782  12.310 -0.1396 -0.1083  0.4136
31627W        W46758   8.465   7.192   0.493  0.0580  0.3349 -0.1038
31628W        W46759   8.520   2.110  15.176  0.1346  0.1874  0.1880
31629W        W46760  10.823   1.396   5.192 -0.3326  0.3412  0.1921
31630W        W46761  13.122  15.153   4.143 -0.3842  0.1221  0.0346
31631W        W46762   6.737  18.252  13.834 -0.1277  0.0741 -0.0973
31632W        W46763  16.473  15.078  15.136  0.1306  0.3221 -0.0131
31633W        W46764   8.552  12.897  14.786 -0.0330  0.0057 -0.1555
31634W        W46765   6.514  13.193  14.246 -0.0929 -0.0235  0.0146
31635W        W46766  17.406   2.240  13.458 -0.0425 -0.2986  0.1690
31636W        W46767   8.227  13.379   4.100  0.3176  0.0505  0.1763
31637W        W46768  16.952   6.068  13.994  0.0257 -0.0175 -0.3418
31638W        W46769  17.505   0.194  12.993  0.0921  0.1955  0.0312
31639W        W46770  13.713  15.278   0.441 -0.4634 -0.0938  0.1017
31640W        W46771   1.492   0.221   5.427 -0.0046 -0.1275 -0.1963
31641W        W46772   1.261   9.268   3.124 -0.0306 -0.0609 -0.0017
31642W        W46773   3.776  13.713   5.651  0.2313 -0.0976 -0.2417
31643W        W46774  14.020  12.059   0.546  0.0009  0.1773 -0.1088
31644W        W46775  18.029   5.476   2.886 -0.0285 -0.2540  0.2400
31645W        W46776   5.458   7.923   0.791 -0.1045 -0.2328 -0.0440
31646W        W46777   1.704  15.289  13.477 -0.0434  0.2446 -0.1339
31647W        W46778   8.045  16.001   4.744  0.0660 -0.3228  0.2325
31648W        W46779   9.575  16.918   1.473  0.0396  0.0688 -0.1772
31649W        W46780  11.819   7.809   5.930  0.0047  0.0741  0.3171
31650W        W46781  10.369   2.623  13.699  0.2298  0.2885  0.0528
31651W        W46782   4.493   6.758   0.870 -0.0224 -0.0212  0.3575
31652W        W46783  11.479  14.180  10.890  0.1956 -0.0861 -0.1169
31653W        W46784   5.967   1.006  14.107 -0.1854  0.0314  0.0055
31654W        W46785   9.815   4.085   1.841 -0.0130  0.0198 -0.1046
31655W        W46786   8.527  16.765  13.979  0.0110 -0.0256  0.0301
31656W        W46787  15.042  11.965  13.414  0.2116 -0.1782 -0.1323
31657W        W46788  14.187  14.222   2.570  0.1146 -0.0571  0.0086
31658W        W46789   7.890  16.494   1.837  0.0649  0.1549  0.1910
31659W        W46790  16.062   7.728   4.652 -0.0141  0.0495 -0.1341
31660W        W46791   9.970   1.618   1.041  0.0117  0.2485 -0.0129
31661W        W46792   6.475   8.125   0.712  0.0170 -0.0896  0.0594
31662W        W46793  16.309   3.064  14.024  0.1447 -0.0481 -0.2532
31663W        W46794  15.872  12.765   5.101 -0.0976 -0.1387 -0.1475
31664W        W46795  16.851  18.377   3.919  0.0095  0.1430 -0.3059
31665W        W46796  10.718  14.009   0.365  0.0862 -0.1904 -0.1256
31666W        W46797  13.804  16.775  10.781  0.0037  0.2428  0.0736
31667W        W46798   9.989   2.042   0.771 -0.0408  0.1762  0.1993
31668W        W46799  10.827  14.899  10.563  0.0753 -0.1095  0.4050
31669W        W46800   1.548   8.827  14.753  0.0780  0.0834 -0.1132
31670W        W46801   0.525   3.416   5.483  0.0957 -0.2640  0.1241
31671W        W46802   8.463   3.456  13.221  0.1717 -0.2125  0.2873
31672W        W46803   5.994   7.196   3.446 -0.2407 -0.1273  0.3078
31673W        W46804  12.074  12.991   1.759  0.1431 -0.0095 -0.2244
31674W        W46805   7.175  17.198  11.826 -0.1473 -0.0714  0.0256
31675W        W46806  13.887   1.890  11.403 -0.1512  0.2880  0.0813
31676W        W46807   3.632   5.878   4.484  0.0251  0.2488  0.1088
31677W        W46808  12.308  14.831  15.546 -0.1282 -0.2494  0.5018
31678W        W46809   2.806  14.826  11.685  0.0407 -0.3766 -0.1549
31679W        W46810   3.725   2.672  15.280  0.0124  0.4392 -0.1935
31680W        W46811  10.759  14.120   9.901 -0.0990 -0.1084 -0.2613
31681W        W46812  18.468   5.402   0.577  0.0106 -0.0516 -0.0698
31682W        W46813  13.230  12.011   3.920  0.0450  0.2144  0.0877
31683W        W46814   9.278   3.482   2.905  0.0494  0.1345  0.4637
31684W        W46815   7.806   3.144  11.221  0.3287 -0.0122  0.0442
31685W        W46816   3.885  14.659  12.915  0.3605 -0.2669  0.1884
31686W        W46817  16.650  13.849  10.469  0.1375  0.1645  0.0953
31687W        W46818  13.349   8.617  12.236 -0.3677 -0.2030 -0.3791
31688W        W46819   3.890  12.179  15.014  0.0973  0.3080 -0.0339
31689W        W46820  15.934   4.355  11.713 -0.0888 -0.2525 -0.1412
31690W        W46821   6.062  12.280   3.959  0.0999 -0.1277 -0.0747
31691W        W46822   0.693  10.151   1.708 -0.0524 -0.3116  0.0689
31692W        W46823   9.116   8.091  15.433 -0.1301 -0.0565  0.0185
31693W        W46824   9.643   0.676   5.043  0.0174 -0.0539  0.1972
31694W        W46825   7.852  10.919   4.441 -0.1873  0.0828  0.3237
31695W        W46826   1.091  11.136   5.922 -0.2188  0.0263  0.0106
31696W        W46827  15.008   7.136  14.615  0.5933 -0.1148  0.1786
31697W        W46828  16.438  17.983   0.403  0.0646  0.0620 -0.1476
31698W        W46829  15.252  15.114  12.700 -0.0291  0.1193 -0.0528
31699W        W46830  15.587   6.081   4.393 -0.1359 -0.1963  0.2620
31700W        W46831   7.232  12.542   4.764 -0.1800 -0.3074 -0.0911
31701W        W46832  17.974   6.935   5.414 -0.0612  0.2059  0.4334
31702W        W46833  18.319   9.587   0.601  0.0159  0.0689  0.1116
31703W        W46834  11.805   3.565   3.179 -0.0198 -0.4078 -0.1370
31704W        W46835   6.998   3.670   0.568  0.2369 -0.0975  0.2179
31705W        W46836   9.007   5.359  15.374  0.0088 -0.0463  0.0736
31706W        W46837  14.288  10.349   0.247 -0.1147  0.0332  0.2579
31707W        W46838  13.083  15.147   2.807  0.1886  0.0382  0.0894
31708W        W46839   9.220  12.442  12.625 -0.1792  0.1134  0.2140
31709W        W46840   8.917   8.779   4.869  0.3047  0.1879 -0.0090
31710W        W46841  15.078  16.126   2.250 -0.0962  0.0327 -0.0397
31711W        W46842  13.323   0.263  13.352 -0.0529  0.1009 -0.2940
31712W        W46843  17.696   0.421   2.940 -0.0463  0.2080 -0.0510
31713W        W46844   9.079   8.657   5.325 -0.1444 -0.0056  0.1568
31714W        W46845  16.136  13.293   4.080  0.0395 -0.1325  0.1246
31715W        W46846  14.530  12.950  11.925  0.1245  0.3513 -0.1727
31716W        W46847   5.402  14.835   2.325  0.0530  0.2739 -0.1569
31717W        W46848  11.656  17.382  15.515 -0.0741 -0.0114 -0.1081
31718W        W46849  14.554  12.659  10.606 -0.1466 -0.2315  0.2705
31719W        W46850   4.391   8.053   2.459  0.0334 -0.1521 -0.1752
31720W        W46851  13.723   0.424  15.264 -0.1785 -0.3986 -0.0043
31721W        W46852   1.466   7.379  11.557 -0.0800  0.3290 -0.1588
31722W        W46853  12.336   5.932  13.543  0.1449  0.1670 -0.0492
31723W        W46854   1.073  12.546   3.330 -0.1406  0.0552  0.1684
31724W        W46855   9.966  11.382  14.882 -0.1104  0.0034  0.2380
31725W        W46856   1.181   3.729   1.217 -0.2857  0.3164  0.2375
31726W        W46857   2.339   0.175   3.271  0.0280 -0.0562 -0.0859
31727W        W46858   1.664  16.106   0.745  0.0232 -0.1035 -0.2608
31728W        W46859  17.946  12.593  12.863 -0.1685 -0.0651 -0.0937
31729W        W46860   1.862   4.498   1.222  0.0079  0.2464 -0.0043
31730W        W46861   1.413  11.528   1.882 -0.4369  0.1931  0.2426
31731W        W46862  16.237   5.060  10.213 -0.4500  0.1899  0.0641
31732W        W46863  15.804   4.991  13.571 -0.1619  0.3428 -0.2061
31733W        W46864   3.985   3.818   4.686 -0.2646 -0.1039  0.0679
31734W        W46865  11.009   0.358   1.484 -0.1288 -0.1509 -0.0187
31735W        W46866  13.717   5.643  13.162  0.0667  0.0458  0.1519
31736W        W46867   5.163   8.498  13.276 -0.0293 -0.1591 -0.1352
31737W        W46868   7.924  11.909  14.305 -0.0690  0.0777 -0.1175
31738W        W46869  16.187   5.344   2.438 -0.3287 -0.5152  0.1553
31739W        W46870   7.180   9.338  10.788 -0.1727  0.1441  0.0073
31740W        W46871   1.249   4.010  15.613 -0.2784 -0.2818 -0.1642
31741W        W46872  13.613  18.200  14.060  0.0831  0.3338 -0.1654
31742W        W46873   2.808   7.959  15.355 -0.1273 -0.0026  0.0537
31743W        W46874   5.925  13.721  13.518 -0.2150  0.0058 -0.2795
31744W        W46875  11.556  12.921  12.796 -0.2371 -0.0383  0.0726
31745W        W46876  13.325   4.326   1.568  0.2486  0.0130  0.2696
31746W        W46877  12.162   4.760  14.863  0.0444 -0.2292  0.2556
31747W        W46878   5.758   2.265  12.695 -0.2146 -0.0027  0.1676
31748W        W46879  10.718   1.449  10.490 -0.1375  0.1291 -0.1935
31749W        W46880   7.595  12.943   1.538  0.1135 -0.0406  0.0924
31750W        W46881   2.486   2.077  11.660 -0.1515 -0.0166  0.0457
31751W        W46882  14.641   5.767  12.158 -0.3454 -0.1686  0.2063
31752W        W46883   0.427   8.623   2.561 -0.0340 -0.0909 -0.0441
31753W        W46884  17.436   9.914   3.202 -0.1626 -0.2571  0.0247
31754W        W46885  11.690  17.476   3.493 -0.0524  0.3920 -0.0224
31755W        W46886   3.960   8.352   4.717  0.1273 -0.1087 -0.3272
31756W        W46887   7.427   9.904   2.439  0.0343 -0.0992  0.2234
31757W        W46888   4.719   1.378  10.840 -0.0678  0.0560  0.1599
31758W        W46889   0.932  15.948  12.247 -0.2293 -0.2642  0.1041
31759W        W46890   9.153   6.229   0.835 -0.0753  0.1713  0.0948
31760W        W46891  10.184   2.979  14.015 -0.3110 -0.1057  0.0470
31761W        W46892  11.258   4.360   4.151 -0.0439 -0.1623  0.0456
31762W        W46893   7.448   4.332  11.632 -0.1487  0.0494 -0.0319
31763W        W46894   9.494   9.981  11.794 -0.0919 -0.1978 -0.3661
31764W        W46895  10.927  15.833   5.351  0.0584 -0.0769  0.3091
31765W        W46896  11.613   3.969   4.723 -0.0058  0.0899 -0.1874
31766W        W46897  17.954  10.022  14.401 -0.1489  0.3711 -0.0346
31767W        W46898  18.214  18.518  10.837 -0.3381  0.0719 -0.0511
31768W        W46899  14.950  17.883  15.862 -0.5352 -0.0026 -0.4038
31769W        W46900   0.681   7.744   2.583 -0.3863 -0.3081 -0.1872
31770W        W46901  11.769  14.203  14.937  0.1575 -0.0548 -0.1069
31771W        W46902  11.128   7.894  10.473  0.4172 -0.1388 -0.0387
31772W        W46903  18.188  15.996  15.564  0.5278  0.0943  0.0594
31773W        W46904   4.777   5.039   0.624  0.3179 -0.1895 -0.3576
31774W        W46905  16.149   8.654   3.925  0.2454 -0.0070 -0.0546
31775W        W46906   6.016   9.464  10.099  0.0528 -0.0324 -0.2271
31776W        W46907  13.184   4.066   0.560  0.0185 -0.2324 -0.0730
31777W        W46908   2.848  18.007   5.856  0.1200  0.1028 -0.0564
31778W        W46909   3.345  13.514   4.307  0.0281  0.0923  0.0340
31779W        W46910  15.832   1.514   1.845  0.0624  0.0644  0.0489
31780W        W46911   3.113  10.560   5.169  0.0787  0.1831 -0.1907
31781W        W46912  13.392   6.142  15.401  0.0233  0.0222 -0.2227
31782W        W46913   8.962  13.013   3.820  0.0467  0.0905  0.1331
31783W        W46914  13.990  17.493   4.656  0.0486 -0.2764 -0.3875
31784W        W46915   6.269   4.116   1.287 -0.1583 -0.2542  0.2441
31785W        W46916   1.103  13.724   4.720  0.0127  0.0142  0.0596
31786W        W46917  18.379   4.148  15.194 -0.2198 -0.0972 -0.2314
31787W        W46918   5.740  12.868  11.327  0.0374 -0.2528  0.0799
31788W        W46919  12.164  14.164   4.312  0.0900 -0.0262  0.2456
31789W        W46920  15.448   7.370   3.780 -0.0683  0.2011  0.2069
31790W        W46921   8.569   6.755  12.206 -0.2840 -0.0439  0.1673
31791W        W46922  17.481  16.339  12.129 -0.0056  0.0233 -0.2698
31792W        W46923   6.154   5.142  12.658  0.1585 -0.1788 -0.1340
31793W        W46924   5.599   1.843  12.496  0.0274  0.2185 -0.2961
31794W        W46925   6.344  13.614   2.089 -0.1240  0.0649  0.1759
31795W        W46926   5.044   8.956  12.683 -0.1676 -0.0011 -0.2363
31796W        W46927  10.653   9.328   3.685 -0.1186 -0.0503  0.2980
31797W        W46928   7.206  15.247  11.215  0.0953  0.0653 -0.1297
31798W        W46929  18.183   5.106  11.051  0.0276 -0.2034 -0.0519
31799W        W46930  11.450  17.690   4.740  0.2776  0.2613  0.0155
31800W        W46931  12.035  10.588  15.466 -0.0407  0.0995  0.2080
31801W        W46932   8.943  15.280  11.317 -0.2910  0.0151 -0.1722
31802W        W46933   8.309  12.362   4.115  0.1676 -0.0399  0.1093
31803W        W46934   8.463  17.411  15.219 -0.2327  0.0994  0.2567
31804W        W46935   9.093   8.312   4.382  0.0159 -0.2292 -0.0153
31805W        W46936   7.706  15.097   2.756  0.2696  0.1106 -0.1708
31806W        W46937  18.306   7.450  14.077  0.0925 -0.0444  0.0309
31807W        W46938  16.493  11.082   4.575 -0.1480  0.0699  0.2889
31808W        W46939  15.985  17.592  14.739 -0.0685  0.2228 -0.2951
31809W        W46940  12.649   8.689   3.213 -0.2443  0.0065 -0.0142
31810W        W46941   7.840   9.461   0.206  0.0376  0.1711 -0.2801
31811W        W46942   9.247   4.887   1.193 -0.3232  0.3315  0.0820
31812W        W46943   5.195  16.657   2.176 -0.0056 -0.2390  0.2653
31813W        W46944   2.093  11.168  12.920 -0.4442  0.3129  0.1543
31814W        W46945  15.219   1.315  12.543 -0.2349  0.1263  0.0108
31815W        W46946   0.565  17.752  15.596 -0.1142  0.0382 -0.1549
31816W        W46947  18.218  10.615   1.564  0.0565  0.1878 -0.0794
31817W        W46948  15.129  10.998   4.712 -0.0153  0.1554  0.0107
31818W        W46949   5.090  16.278  12.482  0.5097  0.1590  0.0053
31819W        W46950  10.566   0.324   4.524  0.0088 -0.0731  0.1042
31820W        W46951  15.684  12.936   0.090  0.3669 -0.2793 -0.1001
31821W        W46952  10.782   8.829   3.547  0.1852 -0.1862  0.1773
31822W        W46953   2.008   5.628  10.585  0.0119 -0.0818  0.1050
31823W        W46954  14.337  16.785  11.769 -0.3696 -0.1268  0.1972
31824W        W46955   7.509   2.279   2.600 -0.2652  0.1458 -0.0773
31825W        W46956   4.353   8.462  13.647  0.0553  0.1737 -0.1495
31826W        W46957  12.934  16.529   1.647  0.0617  0.0155  0.4033
31827W        W46958  10.762   7.359  15.091  0.1461  0.0022 -0.4968
31828W        W46959   7.120   1.269  14.582 -0.2827 -0.0881  0.2189
31829W        W46960  17.654   8.693  14.280 -0.0886 -0.3521  0.3979
31830W        W46961  12.710  15.548   2.890 -0.0698 -0.1258 -0.0549
31831W        W46962  16.245  12.016  15.496  0.0816 -0.1400  0.1119
31832W        W46963  15.930  12.577   0.446  0.0659  0.1687 -0.2532
31833W        W46964  11.012  10.651   1.973  0.0696 -0.2423 -0.0577
31834W        W46965   9.625  13.072  13.363 -0.1434 -0.0760  0.2928
31835W        W46966  14.877  13.795  13.141  0.1793  0.0964 -0.4699
31836W        W46967   9.326  16.869  13.442 -0.1493  0.0076 -0.4347
31837W        W46968   4.780  12.318   4.500 -0.1933 -0.2123  0.2716
31838W        W46969   2.316  11.287   4.783  0.1726  0.2040 -0.0243
31839W        W46970  10.150   9.189  12.290 -0.1353 -0.1767 -0.0394
31840W        W46971  17.344  11.941   0.609 -0.0360  0.0111  0.3140
31841W        W46972   3.854   0.919   4.141  0.1585 -0.2216  0.1883
31842W        W46973   0.072   9.082  11.790 -0.0163  0.2837 -0.0308
31843W        W46974   7.555   9.653  13.346 -0.0271  0.0217  0.5598
31844W        W46975  17.047   1.015  11.853 -0.1410 -0.0093  0.2166
31845W        W46976   9.506  18.015  12.794 -0.0677  0.3161 -0.0893
31846W        W46977   9.017  13.123   5.014  0.2938 -0.1081 -0.1354
31847W        W46978   4.672  12.498   3.698 -0.1973 -0.0348  0.0633
31848W        W46979  16.120   1.739   2.760 -0.3594 -0.2184 -0.4232
31849W        W46980  10.581  14.823   5.454 -0.2399  0.0727  0.1823
31850W        W46981  16.757  15.087  13.667 -0.1717  0.3414 -0.5267
31851W        W46982  14.650  13.055   5.157  0.2161 -0.1117 -0.0499
31852W        W46983   2.903  17.428  15.023 -0.1322 -0.2302  0.1142
31853W        W46984   9.607  12.931  10.756 -0.0002  0.0086 -0.2139
31854W        W46985  17.380   9.078  12.211 -0.1183 -0.0497 -0.1082
31855W        W46986   5.458  14.270   0.331  0.0688  0.0771  0.1847
31856W        W46987   1.826  14.803   4.767 -0.1686  0.0266  0.0455
31857W        W46988   4.100  11.812  13.524  0.1237 -0.1351 -0.1349
31858W        W46989   7.201  13.923  12.707 -0.2340  0.2261  0.2065
31859W        W46990   2.766  13.755   2.395 -0.1573 -0.1311  0.5784
31860W        W46991   5.789  16.499   3.314  0.2213 -0.0297  0.2805
31861W        W46992   6.772  10.575   2.423  0.2282  0.2054 -0.0600
31862W        W46993   3.116  13.542  14.603 -0.1970  0.1921  0.3492
31863W        W46994  12.131  13.194  14.891  0.0492  0.0434  0.1010
31864W        W46995   9.098  14.938   0.211  0.2866  0.0820  0.0390
31865W        W46996   5.785  15.646   3.351  0.2562  0.1656  0.0417
31866W        W46997   6.429  10.438  13.559  0.3564  0.0626 -0.2097
31867W        W46998   9.682   1.282  13.226 -0.0586 -0.1603 -0.0740
31868W        W46999   1.067   8.768  14.532 -0.0223  0.2678  0.1232
31869W        W47000  15.086   5.482  11.569  0.2992  0.1130  0.3319
31870W        W47001  17.876  13.004   5.865 -0.0557 -0.3043 -0.2187
31871W        W47002  11.318   3.057  14.100 -0.0838 -0.2515 -0.1403
31872W        W47003   6.261   4.012   1.812 -0.4025 -0.2850  0.1167
31873W        W47004  14.240  15.304   3.950 -0.1357 -0.2639  0.2558
31874W        W47005  10.259  16.780  10.329 -0.1732 -0.3154 -0.1885
31875W        W47006  14.714   3.241  14.102 -0.4431 -0.1717 -0.0796
31876W        W47007   7.758  12.580   4.861 -0.2124  0.0076 -0.1502
31877W        W47008   3.086  17.233  10.885 -0.0424  0.0844  0.2053
31878W        W47009  16.587  14.308   4.098  0.2722  0.2451 -0.1409
31879W        W47010   6.941  15.743  12.463 -0.0340  0.2475  0.3048
31880W        W47011  13.911   4.298  12.800 -0.0297  0.1961  0.1299
31881W        W47012   4.837  11.999   3.667 -0.1401 -0.3982  0.0241
31882W        W47013  15.512   6.516  15.760  0.2551 -0.0785  0.0408
31883W        W47014  14.987   4.682  13.661 -0.3796  0.0372  0.0858
31884W        W47015   0.148   5.664  11.612  0.1334 -0.0851 -0.2075
31885W        W47016   0.077   8.075   4.126  0.0879  0.0278 -0.0827
31886W        W47017  17.932   9.719   4.823 -0.0343 -0.0747  0.0414
31887W        W47018  15.740   7.162   0.952  0.0664  0.1959 -0.2578
31888W        W47019   3.948  11.393   4.827 -0.1638 -0.2362  0.1481
31889W        W47020  16.166   3.064   5.420 -0.1933  0.0104  0.0080
31890W        W47021   7.540  13.692  15.365  0.0907  0.0853  0.1630
31891W        W47022  10.070   4.739   5.232 -0.0350  0.0297  0.1243
31892W        W47023   1.973   2.628   3.425 -0.0817  0.3275 -0.0882
31893W        W47024  18.476  10.940  14.891 -0.0058 -0.3399  0.2419
31894W        W47025  15.032  14.295  13.480  0.0810  0.2134  0.3123
31895W        W47026   5.138  15.350  12.268  0.0980  0.4850  0.1800
31896W        W47027  13.276  17.400   2.386  0.2084  0.0896 -0.0127
31897W        W47028  14.145   3.288   3.502 -0.2846 -0.7945  0.0383
31898W        W47029   2.213   8.934   5.053 -0.3600  0.1907 -0.1759
31899W        W47030   2.195  18.212   5.968  0.1855  0.1172 -0.0730
31900W        W47031  14.657  11.594   5.341 -0.1331  0.1481 -0.1098
31901W        W47032  14.158  18.061  14.610 -0.0333 -0.3543 -0.0218
31902W        W47033   0.380   0.752   6.083  0.0518  0.2176  0.0587
31903W        W47034   6.927   3.220   3.459  0.3235 -0.3077  0.3504
31904W        W47035   0.501  16.282   6.878 -0.0187 -0.1479  0.0128
31905W        W47036   2.721   3.194  12.695  0.1433  0.1133 -0.3924
31906W        W47037  18.163  15.895  13.140  0.0140 -0.5277  0.3984
31907W        W47038  17.776   7.224   2.344  0.3303  0.0117 -0.1502
31908W        W47039   5.001   3.072  12.611  0.1416  0.2320  0.1072
31909W        W47040  13.978   1.527   1.430 -0.0180 -0.1817  0.0972
31910W        W47041  12.042  15.485   4.372 -0.0895 -0.1575  0.0099
31911W        W47042   0.314   5.598  14.991  0.1914 -0.0344  0.0417
31912W        W47043  16.939   9.673  13.764  0.0943  0.2415  0.2719
31913W        W47044  13.157  10.263  11.105  0.0419  0.1148  0.0315
31914W        W47045  11.621  12.489   0.547  0.0206 -0.1046 -0.0957
31915W        W47046   4.027   7.439  13.886 -0.1125 -0.1981  0.2324
31916W        W47047  16.304  14.717  12.870  0.0112  0.1984 -0.3478
31917W        W47048   2.024   7.915   4.027 -0.0348 -0.4172  0.1176
31918W        W47049   1.197   9.858  15.411  0.0679  0.1976 -0.4157
31919W        W47050  17.031   4.531  14.608  0.1492  0.0421  0.0064
31920W        W47051  16.479   7.895   4.776  0.0235  0.1929 -0.0535
31921W        W47052  14.119  18.145  15.478  0.2524  0.0771  0.1100
31922W        W47053  10.789   7.608   2.388  0.0152 -0.0907 -0.1413
31923W        W47054  13.028   0.295  14.645 -0.1290 -0.1585  0.1302
31924W        W47055   2.272  18.452  12.292 -0.0930 -0.1015 -0.1555
31925W        W47056  12.148   7.130   0.479 -0.0696 -0.1751  0.2272
31926W        W47057  10.472   1.806   2.284  0.0465 -0.1268 -0.2715
31927W        W47058   8.571   9.697  15.696 -0.1499  0.1028  0.0303
31928W        W47059   1.498   6.025  12.290  0.1091 -0.3101 -0.0170
31929W        W47060  17.369  17.240  14.794 -0.0921 -0.2058  0.2570
31930W        W47061  10.387   5.722   0.090  0.2623  0.1417 -0.0465
31931W        W47062  10.645   9.780  11.504  0.3751  0.1634  0.0024
31932W        W47063   9.493   7.185  15.625 -0.1531 -0.0078 -0.0657
31933W        W47064   9.214   5.962  14.946 -0.3634  0.1368 -0.1878
31934W        W47065  13.394   5.667   0.585  0.0081 -0.1473  0.0738
31935W        W47066  12.414  17.971  11.826  0.1304 -0.1186  0.0669
31936W        W47067   2.703  13.221  11.474  0.0584 -0.0493  0.0421
31937W        W47068   9.327   9.595  11.464  0.2942 -0.2801 -0.1371
31938W        W47069  17.073  14.541  10.387  0.1466 -0.2980  0.1836
31939W        W47070   0.130  16.729   4.659 -0.3094 -0.1644 -0.2714
31940W        W47071   7.681  16.606   2.818  0.0262 -0.3273 -0.3157
31941W        W47072   0.767   3.215   5.009 -0.1001  0.0294  0.0884
31942W        W47073  17.075  14.102  10.662  0.0182 -0.1265 -0.2945
31943W        W47074  13.314   7.792   4.409 -0.1376 -0.0237  0.0515
31944W        W47075  14.911  10.090   5.130 -0.2843  0.0372 -0.0709
31945W        W47076  12.120  12.931  13.572 -0.4129  0.1376  0.1284
31946W        W47077   2.614  11.327  12.917 -0.0173 -0.1530  0.0999
31947W        W47078   4.482  13.989   4.023 -0.0238  0.0186  0.2065
31948W        W47079   9.552  10.627  10.651  0.0952  0.1911  0.2428
31949W        W47080  13.705   6.751  13.680  0.2044  0.1147 -0.0084
31950W        W47081   4.122  17.054   0.872 -0.0222 -0.0743  0.0697
31951W        W47082  17.299  16.128   0.521 -0.0013  0.2022  0.0633
31952W        W47083  16.045  18.267   5.329  0.1470 -0.1209 -0.1828
31953W        W47084   8.390  13.820  10.494 -0.1101 -0.0857 -0.0940
31954W        W47085  15.661   9.381  13.469  0.2159 -0.0806 -0.1261
31955W        W47086   5.646  17.075  12.421 -0.0621  0.1720  0.4147
31956W        W47087   9.106  16.250   2.154 -0.1883  0.0682 -0.0178
31957W        W47088  18.333   2.214   5.044  0.0554  0.0211  0.2465
31958W        W47089   4.870   4.415   5.120  0.0413 -0.0480  0.0179
31959W        W47090   2.615  13.231   4.094 -0.2040 -0.2625  0.1106
31960W        W47091  18.438  16.610  15.659 -0.0239 -0.0153  0.2034
31961W        W47092   2.844  16.872   2.981 -0.0696 -0.1222 -0.1671
31962W        W47093   4.572   8.681  10.700 -0.0943 -0.0224  0.3435
31963W        W47094  16.043   9.013   0.255 -0.2569  0.0120  0.2014
31964W        W47095  17.996   5.077   6.208  0.0390 -0.0768 -0.1082
31965W        W47096  11.703  18.389   2.152 -0.0204 -0.2472 -0.1113
31966W        W47097  15.507  11.859   3.843 -0.2800  0.0941 -0.1915
31967W        W47098   6.174  12.523   0.592 -0.0914 -0.1296  0.2107
31968W        W47099   9.412   9.032  15.619  0.1440 -0.3074  0.1904
31969W        W47100   0.394   5.095   2.950  0.2061  0.3284 -0.1779
31970W        W47101  10.493  11.215   0.025 -0.2372  0.2141  0.3982
31971W        W47102  16.465   5.232   1.619  0.2841  0.1755 -0.2567
31972W        W47103   1.413   9.288   1.330  0.2139 -0.1388  0.1099
31973W        W47104   8.463  16.396   4.109  0.1447  0.1022  0.1392
31974W        W47105  18.223  17.543  11.513  0.1247 -0.0132  0.0302
31975W        W47106  15.869   0.663   1.777 -0.2504  0.2343  0.2172
31976W        W47107  14.187   9.260   0.755  0.1089  0.0239  0.2950
31977W        W47108   4.933  16.015   1.452  0.1758 -0.2199 -0.0253
31978W        W47109  14.527  11.204  10.787  0.0945 -0.2430  0.0303
31979W        W47110   2.448   6.591   1.016 -0.1900  0.0031 -0.3482
31980W        W47111  11.122  13.151   9.104  0.1572 -0.3904 -0.0590
31981W        W47112  11.247   4.407   0.321  0.1320 -0.2867 -0.2028
31982W        W47113   7.945   9.550  12.315 -0.2029 -0.1579 -0.1151
31983W        W47114   6.761   2.011   4.070  0.0002 -0.3428 -0.1289
31984W        W47115   6.070  11.829   4.235  0.0195  0.2426  0.0426
31985W        W47116  12.834   0.500   3.230  0.0790  0.2366  0.1576
31986W        W47117  17.244  11.301   3.480 -0.1542 -0.0745  0.2068
31987W        W47118   3.793   9.737  10.974 -0.1430  0.3377 -0.1674
31988W        W47119   4.529   6.415   0.129  0.0194 -0.1748  0.0375
31989W        W47120  12.805  15.593  14.001 -0.2364  0.0083  0.0555
31990W        W47121   4.472   1.850  15.424  0.2390 -0.2764  0.1526
31991W        W47122  18.381   2.015   1.558  0.3635 -0.0124 -0.2064
31992W        W47123   8.837   0.418   2.726 -0.0338 -0.2183 -0.1279
31993W        W47124   3.300   5.167   6.206  0.0860 -0.1286  0.1669
31994W        W47125   7.457   1.509  13.296  0.3722 -0.3063  0.0134
31995W        W47126   2.839  18.228   3.948 -0.1306  0.0831 -0.1612
31996W        W47127  16.924  11.371   2.402 -0.0266  0.2002  0.0868
31997W        W47128  11.426   5.584  15.061 -0.0022  0.0178 -0.0766
31998W        W47129  11.282   5.507   3.318 -0.1034  0.2788  0.1896
31999W        W47130   5.366   2.113   2.541  0.2079 -0.0328  0.0453
32000W        W47131   2.257   4.240   0.987 -0.1953  0.1544 -0.0943
32001W        W47132  14.998   3.028  12.763  0.3326 -0.4170 -0.1005
32002W        W47133   5.966   1.023   1.167  0.0540 -0.0346  0.1754
32003W        W47134   1.119   4.597   2.814  0.0952 -0.1191  0.0215
32004W        W47135  16.145  18.323  11.432  0.1497 -0.0316 -0.0829
32005W        W47136  13.346   9.458  13.711  0.0677 -0.3844 -0.0874
32006W        W47137  12.982   8.945  12.782 -0.2603  0.0859 -0.1997
32007W        W47138   2.659   5.649  12.016  0.2672  0.3820 -0.0585
32008W        W47139  12.056  16.897  11.445 -0.0791 -0.0109 -0.1423
32009W        W47140  11.163  13.358   3.744 -0.1433 -0.0842 -0.4336
32010W        W47141  12.115   8.586   4.500  0.0816 -0.0612  0.5379
32011W        W47142  10.394  13.126   3.215 -0.0860  0.0534  0.1275
32012W        W47143  15.524   4.488  13.673 -0.2412  0.2379 -0.0437
32013W        W47144  18.180  11.252   0.727  0.1505 -0.2132 -0.0143
32014W        W47145   0.169  15.223   4.865 -0.0071 -0.1836  0.0577
32015W        W47146  17.266  11.159   0.920  0.0418 -0.1900 -0.0844
32016W        W47147  16.315   8.111   5.484 -0.2986  0.0024 -0.1334
32017W        W47148   2.134   6.524  15.836  0.2109  0.1024 -0.0207
32018W        W47149  17.646   2.997   0.381  0.2606 -0.0379  0.1968
32019W        W47150   9.116   1.855   0.610 -0.0142  0.2431  0.1417
32020W        W47151   9.582   5.609   0.227  0.1710  0.1191 -0.0512
32021W        W47152   9.543  17.979   3.551  0.2685 -0.2193 -0.0588
32022W        W47153   1.232   3.099  11.769 -0.2576 -0.2718 -0.1451
32023W        W47154   8.699   3.990  13.894 -0.2113 -0.1426  0.2360
32024W        W47155   8.201  12.594   5.074  0.1028 -0.1362 -0.2154
32025W        W47156  15.612  14.073  10.916 -0.0616 -0.1518  0.1102
32026W        W47157   0.418   0.979   4.183 -0.1218 -0.2185 -0.0146
32027W        W47158   2.211  15.763  14.266 -0.1361 -0.3750 -0.2047
32028W        W47159   8.798   4.181   1.335  0.0247 -0.0703  0.4540
32029W        W47160   2.364  14.974   0.268  0.1710  0.1960  0.2769
32030W        W47161  18.445  16.235   2.732 -0.1797  0.1187  0.1961
32031W        W47162  17.581  16.205   3.276 -0.1737 -0.3237 -0.1788
32032W        W47163  15.039   9.071   0.930  0.0635  0.1040  0.0799
32033W        W47164   4.564   2.652  12.809  0.2701 -0.2944  0.1867
32034W        W47165  14.708  17.688  14.071  0.1204 -0.0606 -0.0750
32035W        W47166  12.497  18.250   2.530 -0.1476  0.3113 -0.0573
32036W        W47167  13.137  11.616  10.699  0.0126 -0.1026  0.0160
32037W        W47168   6.743  15.169  15.341  0.0253  0.1021  0.5525
32038W        W47169  11.241   3.547   4.697  0.0798  0.0793  0.2117
32039W        W47170   9.508   2.950   2.091  0.1717  0.1991  0.1037
32040W        W47171  18.478   1.225  11.174 -0.0020  0.1121  0.1168
32041W        W47172   7.283   3.237  14.764  0.2139 -0.0128 -0.3834
32042W        W47173   1.310   9.927   4.278 -0.0469 -0.0232 -0.2724
32043W        W47174   6.345  13.150   1.912  0.4543  0.0694 -0.1754
32044W        W47175  11.816   2.640   1.946  0.0292  0.0545  0.0997
32045W        W47176   7.154  17.151   0.657 -0.0860 -0.1062 -0.0582
32046W        W47177  12.003  16.366  14.028 -0.2028 -0.0874  0.0165
32047W        W47178  12.986  16.394   0.182 -0.2207  0.0945  0.1034
32048W        W47179  12.502  18.026  12.681  0.0971  0.0411 -0.1576
32049W        W47180   8.404  13.254   0.865  0.0321  0.2070 -0.0800
32050W        W47181  13.441  17.406   4.823  0.2302  0.0031 -0.0072
32051W        W47182  12.253  16.229  11.730  0.1764  0.2863  0.2901
32052W        W47183  13.063   4.548   1.949 -0.1470 -0.2807  0.2004
32053W        W47184   2.706  11.274  11.973 -0.2520 -0.3381  0.1193
32054W        W47185   4.329  11.063   2.960  0.2971 -0.2166  0.1931
32055W        W47186  17.126   4.508  10.220  0.0145 -0.1495 -0.3527
32056W        W47187   1.766  13.673  12.100 -0.2440 -0.2057  0.1538
32057W        W47188   4.772  10.795   3.419  0.4919 -0.4043 -0.0770
32058W        W47189  15.116  13.606  14.026 -0.3641 -0.1663 -0.2418
32059W        W47190   5.789   2.390   2.611  0.1482 -0.0064 -0.0415
32060W        W47191   5.429  17.933  15.350  0.2645  0.2269 -0.0334
32061W        W47192   3.613   1.106   1.095  0.0418 -0.2771  0.1636
32062W        W47193   2.267   3.344   2.897 -0.1312  0.1435  0.1487
32063W        W47194  10.065  17.509  11.524  0.1580  0.0849 -0.0659
32064W        W47195   3.171  14.444  13.450 -0.2234  0.2384 -0.1807
32065W        W47196   4.641  10.893  11.802  0.2762 -0.0074  0.2588
32066W        W47197  10.385   6.266   1.671  0.2163  0.1675 -0.1101
32067W        W47198  13.774   2.194  15.072  0.0322 -0.0730 -0.2587
32068W        W47199  14.569   4.370   4.067  0.2788 -0.0579  0.0420
32069W        W47200   9.216   2.034   1.257  0.2166 -0.1310 -0.0275
32070W        W47201  10.178  10.497  14.332  0.1903 -0.0036  0.3608
32071W        W47202   2.683  17.322   4.849 -0.0019 -0.0064 -0.0513
32072W        W47203   3.006   8.888  10.859  0.2014  0.0630  0.0414
32073W        W47204   9.741  11.006  13.125  0.1447 -0.1279 -0.1140
32074W        W47205   7.822  17.334  13.503 -0.0406 -0.0477 -0.2846
32075W        W47206  16.478   4.166   4.659  0.4779  0.0366  0.0478
32076W        W47207   5.587  13.729   0.319 -0.3905  0.2171 -0.1441
32077W        W47208   2.865   7.898  11.276 -0.3220 -0.1193  0.0548
32078W        W47209  11.545   3.535   0.228 -0.0221 -0.1449 -0.0781
32079W        W47210   9.375   9.716   0.063  0.0809 -0.0893  0.1969
32080W        W47211   1.721  11.223  12.123 -0.0868 -0.1104  0.2926
32081W        W47212  10.444  18.140  15.025  0.1318  0.1378 -0.0988
32082W        W47213   3.379   6.927  13.018  0.1165  0.0616 -0.0230
32083W        W47214  15.898   4.890   4.181  0.3050  0.2316  0.0282
32084W        W47215  17.610  14.089  12.317  0.2588  0.3019  0.2406
32085W        W47216  18.209   9.429  13.216 -0.2450 -0.3222 -0.1931
32086W        W47217   5.624   5.933  13.782 -0.1546 -0.1930  0.2733
32087W        W47218   0.057   8.824   1.726 -0.1038 -0.0947  0.1060
32088W        W47219  13.345  17.919  14.963  0.1484 -0.1685 -0.2100
32089W        W47220  14.194  17.499  14.838 -0.0277 -0.0057 -0.0692
32090W        W47221  12.550   7.113  12.951 -0.2681 -0.1027  0.2904
32091W        W47222  18.490  16.032   5.168  0.1772  0.2233 -0.1220
32092W        W47223  14.581   2.085  14.890  0.1490 -0.1090  0.1964
32093W        W47224   3.091   0.885  12.877 -0.1907 -0.0015 -0.0283
32094W        W47225  14.698   2.892   3.430 -0.4024 -0.0180 -0.1459
32095W        W47226   2.029   3.538   4.106  0.0677 -0.2821 -0.0615
32096W        W47227   7.739  12.989   1.029 -0.1207  0.3064 -0.0613
32097W        W47228  14.383   7.125   1.797 -0.0833 -0.1612  0.2261
32098W        W47229  13.957  12.232  12.555 -0.0696 -0.0264  0.0141
32099W        W47230  12.329   1.946   3.458 -0.2657 -0.0463  0.1985
32100W        W47231  16.415   1.987  12.717 -0.4044 -0.4493 -0.0880
32101W        W47232   1.836   6.139   5.204  0.0738  0.1044  0.1465
32102W        W47233  13.676  11.266  15.652  0.0125 -0.4586  0.0935
32103W        W47234  13.031   1.051   4.013 -0.2091 -0.1395  0.1350
32104W        W47235  10.476   1.451  12.361 -0.2756  0.1083  0.1624
32105W        W47236  10.394  13.002  14.334 -0.0840  0.0136 -0.0542
32106W        W47237  15.665  14.668   5.210  0.1509  0.0869 -0.4132
32107W        W47238   2.556   2.287  11.062 -0.0624  0.1379  0.1046
32108W        W47239  12.344  13.760  12.065  0.1108 -0.0099 -0.0920
32109W        W47240   8.751  18.083  13.990 -0.2110 -0.2873 -0.2527
32110W        W47241  16.978   0.746   4.190 -0.1094  0.0594  0.0081
32111W        W47242   8.053   6.608  13.890  0.2163 -0.1486  0.0469
32112W        W47243   8.065  12.338   3.325  0.0931 -0.0181 -0.0879
32113W        W47244   6.524   6.451   4.881 -0.2162  0.0680 -0.3122
32114W        W47245  16.461  14.540   0.015 -0.4338 -0.0974  0.2377
32115W        W47246   6.556   8.284  15.353  0.0112 -0.0614 -0.0041
32116W        W47247   6.879  12.048   4.304  0.0834  0.0062  0.0725
32117W        W47248  12.224  16.314   4.962  0.0261  0.0205  0.1252
32118W        W47249   0.836  11.016   0.286  0.3686 -0.0582  0.1499
32119W        W47250   8.994  13.949   5.203 -0.2800 -0.1741  0.2413
32120W        W47251  12.273  15.715  12.003  0.1587  0.2160 -0.0855
32121W        W47252  11.505   1.953   2.600 -0.0807  0.3107  0.1823
32122W        W47253  16.589  10.272   3.331 -0.1858 -0.0459  0.0766
32123W        W47254   5.252  11.199   2.299 -0.0695  0.2005  0.0238
32124W        W47255  17.964  14.348  11.552  0.1493 -0.2994 -0.1714
32125W        W47256   8.824   7.867   1.498  0.4696 -0.0071 -0.1815
32126W        W47257  17.365   8.016   3.169  0.1205 -0.0047 -0.0506
32127W        W47258  10.375   3.935  15.357 -0.0745 -0.3877  0.3137
32128W        W47259   2.600  16.934   1.571 -0.0172  0.6539  0.3936
32129W        W47260   4.538   9.302  11.502  0.2275 -0.3630 -0.0556
32130W        W47261   8.334   5.453   0.963  0.2706  0.1717  0.3810
32131W        W47262  13.841   1.190  12.305  0.1384  0.0978 -0.2626
32132W        W47263   3.977  13.966   2.295 -0.1464 -0.2787 -0.0644
32133W        W47264   6.540   2.069  15.592  0.1001  0.0335 -0.0034
32134W        W47265  17.366   4.606   4.754  0.2611  0.3529 -0.0493
32135W        W47266  11.884   3.966  11.772  0.0117 -0.3153  0.0655
32136W        W47267  14.345  17.532  11.873  0.1386  0.0335  0.2698
32137W        W47268  14.906  10.017  13.982 -0.0859  0.2317  0.2153
32138W        W47269  11.937   2.444   3.290 -0.0111 -0.0109 -0.0152
32139W        W47270  17.063  15.590   0.991  0.3413 -0.3445  0.0975
32140W        W47271  13.030   1.163   1.699 -0.0465 -0.0885  0.0381
32141W        W47272   5.874  15.040  11.916 -0.0049 -0.3071 -0.0102
32142W        W47273   0.292  16.804  15.319 -0.1227 -0.0477  0.2558
32143W        W47274   3.140   8.281   2.015  0.1283  0.2440  0.1155
32144W        W47275   4.168  16.813  10.561 -0.3013  0.0360 -0.1628
32145W        W47276  14.918  14.386  15.572 -0.2133  0.0907 -0.1314
32146W        W47277   6.695   7.574  15.501  0.0085  0.0052  0.1404
32147W        W47278   5.155  10.786   5.411  0.0894  0.1732  0.1797
32148W        W47279   5.296  14.801   3.437 -0.0926  0.0889  0.0907
32149W        W47280   3.375  17.545   2.124  0.1331  0.4288  0.1830
32150W        W47281  11.160  12.625   1.796 -0.0050 -0.1516 -0.0651
32151W        W47282   6.257  10.345   2.348  0.0433 -0.0384 -0.2219
32152W        W47283  16.357  13.634   4.331  0.2549  0.1061  0.1812
32153W        W47284  10.410  16.086  11.110  0.1126  0.0026 -0.4147
32154W        W47285   6.828   3.416   4.413  0.1905  0.0027  0.0824
32155W        W47286   8.014   0.632   1.317 -0.1548  0.0513  0.3539
32156W        W47287  15.977  16.094  10.906 -0.0373 -0.1176 -0.0152
32157W        W47288   5.108  12.293   2.068  0.0658 -0.1292 -0.0088
32158W        W47289  12.729   8.220   5.469 -0.1071 -0.1583 -0.2110
32159W        W47290  16.240  15.144   4.871  0.2355  0.0045 -0.0781
32160W        W47291  17.896   1.177   1.789 -0.1524 -0.2056 -0.0092
32161W        W47292  14.269   5.424   3.594 -0.1103  0.0876 -0.1600
32162W        W47293   3.935  13.598   1.925 -0.1189  0.1241  0.2295
32163W        W47294   3.313  17.792  12.810 -0.1325 -0.4161 -0.2776
32164W        W47295   8.698  12.694   5.091 -0.2027 -0.3380  0.1204
32165W        W47296  10.280  10.820  11.766 -0.1491 -0.2227 -0.2352
32166W        W47297  13.101  13.805   4.477 -0.0142 -0.0486 -0.4846
32167W        W47298  14.597   9.415   5.740 -0.3800  0.0838  0.0632
32168W        W47299   1.501  17.121  11.894 -0.1381 -0.2023  0.1379
32169W        W47300   3.652   2.278  10.823  0.0954 -0.0570  0.1322
32170W        W47301   0.161   7.366  14.843  0.1238 -0.0351  0.1613
32171W        W47302   5.452   3.877  11.737 -0.0294 -0.1458 -0.3850
32172W        W47303   9.717  17.164  14.458  0.2690 -0.1433 -0.0047
32173W        W47304   2.815   7.609   5.329  0.2939 -0.2028  0.0838
32174W        W47305  14.193   2.574   1.690  0.2576  0.2427 -0.0891
32175W        W47306   7.628   8.468   5.377 -0.0218 -0.0531  0.6660
32176W        W47307   7.196   7.378   2.292 -0.1362  0.1770  0.4288
32177W        W47308   1.397  17.019  13.924 -0.1462 -0.4889 -0.2134
32178W        W47309  14.710  16.412   0.150 -0.1954  0.2209 -0.1015
32179W        W47310  10.419   4.664  15.853  0.0517  0.1109 -0.2643
32180W        W47311   3.828   5.508  13.523  0.2098 -0.2025  0.0234
32181W        W47312   5.300  15.148   0.999 -0.1356 -0.0856  0.0235
32182W        W47313   3.415  12.319  10.996 -0.2632  0.4128 -0.1513
32183W        W47314   6.840  11.708   3.823  0.2435  0.0290  0.4859
32184W        W47315   7.240  15.966   2.359 -0.2222  0.0534  0.1468
32185W        W47316  12.806   4.565   0.391  0.0795 -0.0595 -0.2794
32186W        W47317   0.549  10.971   2.650 -0.0864 -0.0122  0.0124
32187W        W47318   4.600   9.236  13.584  0.0176 -0.5572  0.2137
32188W        W47319  16.056  18.476  12.316  0.0839  0.1883 -0.1793
32189W        W47320   0.644  18.302   3.604 -0.2701 -0.3413 -0.0614
32190W        W47321   3.273   6.750   2.046  0.1919 -0.4625 -0.0295
32191W        W47322   1.077  17.408   9.854  0.2431  0.2650 -0.0127
32192W        W47323  11.101  17.486  12.514 -0.0388 -0.2466  0.5257
32193W        W47324   4.597   6.225   1.596  0.0805 -0.0392 -0.2252
32194W        W47325  13.862   1.738  14.284  0.0311  0.0802  0.0934
32195W        W47326  12.956  14.296   3.586 -0.1684 -0.3258 -0.3016
32196W        W47327  16.287   6.644  13.934 -0.0837 -0.0671  0.1437
32197W        W47328   9.180   8.998  12.053  0.1710 -0.1453  0.0341
32198W        W47329   7.893   6.561   1.687 -0.0220  0.2511 -0.0926
32199W        W47330   7.596  10.102   0.693 -0.0118 -0.2530 -0.1752
32200W        W47331   0.854   4.734  12.988 -0.0333  0.3033  0.0444
32201W        W47332   2.489   9.510   2.603  0.0058 -0.1865  0.0991
32202W        W47333  13.855   8.455  12.725 -0.0801 -0.0149 -0.0911
32203W        W47334   2.469  16.220  12.813  0.0154  0.0272  0.0398
32204W        W47335  15.929  13.955   0.152  0.0636  0.0782 -0.0783
32205W        W47336   5.690   2.859   2.799  0.1903 -0.1416 -0.0303
32206W        W47337  16.140   1.118   1.085  0.2348 -0.1166 -0.0572
32207W        W47338   1.123   6.420  12.641 -0.2578  0.0519 -0.1644
32208W        W47339   4.075  13.354  14.679 -0.0103  0.3077  0.0577
32209W        W47340   5.160   7.557   0.893 -0.1563 -0.2037 -0.1409
32210W        W47341   2.461   6.164  12.531  0.3673 -0.0624  0.1682
32211W        W47342  18.305  12.290  11.250  0.2528 -0.0799  0.0993
32212W        W47343  15.919   2.827  12.398  0.1960  0.2612  0.0833
32213W        W47344   0.995   3.647   5.270  0.1407  0.0146 -0.0647
32214W        W47345  10.286   0.469  12.152  0.3175 -0.0434  0.0746
32215W        W47346   5.566  18.216   3.560  0.1271  0.0148 -0.1258
32216W        W47347  11.968  17.606   2.188  0.0965 -0.3459 -0.0173
32217W        W47348   7.242  11.506  14.884 -0.0695  0.2203  0.1813
32218W        W47349  13.297  11.894  13.321  0.0743 -0.5392 -0.2504
32219W        W47350   4.601  12.240   1.100  0.0969 -0.0243 -0.3258
32220W        W47351  14.543  10.350  13.313 -0.2973  0.0138  0.3106
32221W        W47352   4.272  12.041   4.603 -0.2280  0.1650  0.0464
32222W        W47353  17.679   1.829  13.907 -0.0950 -0.0977 -0.1154
32223W        W47354   0.092   0.238   2.498 -0.0062  0.0308  0.0595
32224W        W47355   5.575   9.260   5.560 -0.1328 -0.1027  0.1093
32225W        W47356   0.486  17.319   5.940 -0.2523 -0.1940 -0.0182
32226W        W47357  14.653  14.445  14.932 -0.0986 -0.0051 -0.1305
32227W        W47358   0.833   8.568  15.149 -0.1746 -0.1597 -0.1734
32228W        W47359  18.431   5.860   2.402 -0.0503  0.0334  0.0501
32229W        W47360  18.100   9.560  11.529 -0.1625 -0.4288  0.0328
32230W        W47361   1.411  17.656   2.503 -0.0809 -0.1668 -0.2393
32231W        W47362  14.817  11.286   2.128 -0.0490 -0.0477 -0.1371
32232W        W47363  13.806   6.362   0.621 -0.3362  0.3151  0.3586
32233W        W47364   7.295   2.041   5.708  0.1893 -0.1513 -0.0238
32234W        W47365  11.526   3.585   1.085 -0.1793  0.0951 -0.2301
32235W        W47366  16.507  15.080  11.595  0.0120 -0.3321  0.1164
32236W        W47367  17.322   7.386  14.613 -0.0128  0.2636  0.1896
32237W        W47368   4.891  14.501  14.304 -0.1104 -0.1476 -0.0966
32238W        W47369   9.923   9.345   4.433 -0.0360 -0.2381 -0.2190
32239W        W47370  18.130   7.340   1.013  0.0896 -0.0160  0.0184
32240W        W47371  13.567  15.775   3.608  0.0298 -0.0966  0.2337
32241W        W47372   6.273   0.935  11.881  0.1180  0.2393 -0.0639
32242W        W47373   9.713   6.033  12.235  0.2669  0.0265 -0.0624
32243W        W47374   1.711  18.085   4.803  0.1740  0.2310 -0.2178
32244W        W47375   5.459  15.943  14.397 -0.0888 -0.0364 -0.2896
32245W        W47376   7.546   6.827  10.284  0.2111  0.2459  0.2220
32246W        W47377   3.385  18.478   5.196  0.0403  0.0289  0.1315
32247W        W47378  15.574   7.848   5.063  0.0075  0.1763  0.3853
32248W        W47379  16.559   9.116   4.840  0.0342 -0.7133 -0.0933
32249W        W47380   2.822   8.029  11.825  0.1629 -0.0335 -0.0202
32250W        W47381   1.772   3.120   4.093  0.1803  0.1213 -0.2993
32251W        W47382   0.314   9.409  13.685 -0.3497 -0.0160  0.1087
32252W        W47383  11.003   5.494  14.708  0.2010 -0.1377 -0.0589
32253W        W47384  13.229  12.556   3.870  0.2064  0.2568  0.1669
32254W        W47385   6.188  15.242   3.500  0.0433 -0.1564  0.1479
32255W        W47386   5.016   7.061   1.263  0.0458 -0.1063 -0.1629
32256W        W47387   2.474   0.878   6.226  0.2768 -0.1539 -0.2210
32257W        W47388   2.233   4.775  11.374 -0.0146  0.1980 -0.0232
32258W        W47389   9.018   1.453  12.885 -0.2746 -0.1049  0.0996
32259W        W47390  17.629   2.684  14.354  0.2319  0.5344 -0.1776
32260W        W47391   8.438  10.765   1.832  0.2242 -0.1414  0.1402
32261W        W47392   2.614  13.625   1.199  0.1711 -0.2799 -0.2138
32262W        W47393   1.623  15.368  12.994  0.3658  0.2581 -0.3642
32263W        W47394   2.452  14.966  13.869 -0.3554  0.0222 -0.0252
32264W        W47395  18.284  13.458  11.061 -0.3518 -0.1511  0.1755
32265W        W47396  18.058   3.019  12.518  0.0741 -0.1581 -0.2605
32266W        W47397  13.161   7.526   1.604  0.1647 -0.3156  0.3386
32267W        W47398   9.473  13.382  12.671 -0.2411  0.0540 -0.0780
32268W        W47399   9.603   5.428   0.715  0.2841  0.2244  0.4333
32269W        W47400   4.019  15.834  13.382 -0.1985 -0.0743 -0.1343
32270W        W47401  10.975   8.878  12.418 -0.3894  0.3486 -0.1143
32271W        W47402   3.698  10.696   2.472  0.1670  0.0314  0.1170
32272W        W47403  16.109  11.002   4.868 -0.0647 -0.1410  0.1631
32273W        W47404  14.172  10.628  15.727  0.0138  0.1769  0.1549
32274W        W47405  17.012   8.381   0.947 -0.2242 -0.3657 -0.3400
32275W        W47406   5.179  13.073  12.088  0.2357 -0.0618  0.1447
32276W        W47407   3.336   9.825   5.610  0.1005 -0.1059 -0.0438
32277W        W47408   8.235  17.608   3.426  0.0527  0.0271  0.1921
32278W        W47409  12.698   3.979  12.693  0.5021  0.0055  0.0423
32279W        W47410  11.407  17.079   1.854 -0.1012  0.0055  0.0412
32280W        W47411  14.176   9.771   5.684  0.0296  0.0872  0.1415
32281W        W47412   5.439  16.880  15.838 -0.5335 -0.3010  0.1058
32282W        W47413  11.553   6.822   0.169 -0.1853 -0.2832  0.2769
32283W        W47414  17.691  16.532   2.218  0.2829  0.0707  0.2535
32284W        W47415  13.004   8.790  14.156 -0.1487  0.3714 -0.0418
32285W        W47416   2.628  10.108   0.090 -0.1219 -0.0058  0.3177
32286W        W47417   0.795   1.871  14.957 -0.4945 -0.1458 -0.2465
32287W        W47418   9.450   2.312   4.690  0.1761  0.2704  0.2647
32288W        W47419   9.341  16.779   2.297  0.4122 -0.0422  0.1939
32289W        W47420   9.992  12.187  11.366 -0.0678 -0.0557 -0.0320
32290W        W47421   4.926  18.278   0.528 -0.1424 -0.1095  0.4928
32291W        W47422  12.917  17.681   2.184 -0.1047 -0.1030  0.0410
32292W        W47423  12.695  10.966   1.285  0.1747  0.0132 -0.0732
32293W        W47424  17.311  13.839   5.927  0.1049 -0.0436 -0.1455
32294W        W47425   3.853  10.714  11.179  0.0487  0.1965  0.1018
32295W        W47426   5.009  13.063  14.016  0.2115  0.2072 -0.0766
32296W        W47427   0.807   0.587  10.231 -0.0561 -0.2582 -0.0325
32297W        W47428   6.740  14.957   1.552 -0.2422 -0.2695  0.1569
32298W        W47429  18.252   6.472  15.050  0.0043  0.3806  0.0590
32299W        W47430   9.216   7.998   0.861 -0.0380 -0.1280 -0.2592
32300W        W47431   0.363   9.317  12.786  0.2792  0.0420  0.3529
32301W        W47432  10.115  12.985   0.984 -0.0708  0.2341  0.3236
32302W        W47433   4.717   1.277   4.044  0.1094 -0.3396  0.1224
32303W        W47434  18.346   0.819  11.415 -0.3011 -0.1067 -0.0341
32304W        W47435  11.115  12.534   3.933  0.0861  0.0188 -0.2085
32305W        W47436   3.542   7.148   4.215  0.2749  0.0192  0.0918
32306W        W47437  10.369  12.555  11.721  0.0990  0.0542  0.0265
32307W        W47438   5.692   2.718   3.743 -0.1287  0.2866 -0.2815
32308W        W47439   9.872   8.122  11.533 -0.0726  0.2213  0.1413
32309W        W47440   6.261   1.998   3.960 -0.0096  0.3239 -0.0793
32310W        W47441  17.283   7.462  13.965  0.0275 -0.1080  0.1203
32311W        W47442  17.224   8.923   1.697  0.0740  0.0882  0.0901
32312W        W47443  14.429   7.693   2.682 -0.2685  0.2609 -0.1664
32313W        W47444  15.298   2.882   0.538  0.3973  0.1391  0.1146
32314W        W47445  11.273  13.233   4.701 -0.2561 -0.3413 -0.0565
32315W        W47446   4.467  18.297   0.805  0.2208  0.1526  0.0159
32316W        W47447  17.743  15.398   6.310 -0.1643  0.1409 -0.2112
32317W        W47448   1.013  12.890   2.564  0.0765  0.0738  0.1055
32318W        W47449   6.828  17.328  15.290  0.2084 -0.1558 -0.0893
32319W        W47450   9.851   5.591  11.233 -0.2128 -0.2702 -0.2580
32320W        W47451  18.508   2.452   3.141 -0.3180 -0.1516  0.1735
32321W        W47452  17.437   1.763   3.510  0.1010 -0.1792 -0.4385
32322W        W47453  13.574   1.042   1.955  0.1423  0.0874 -0.0334
32323W        W47454  11.089   8.393   2.975  0.2275  0.1002  0.0519
32324W        W47455   3.637   4.506   0.912  0.3379  0.0326  0.1873
32325W        W47456  11.101  13.522  13.301  0.0581 -0.2138 -0.0839
32326W        W47457   5.611   8.495   2.281  0.0688  0.2170 -0.2577
32327W        W47458   8.832   5.327   4.817 -0.4173 -0.1711  0.4611
32328W        W47459   8.815   1.560  10.818  0.0976  0.0111  0.2325
32329W        W47460  11.434  17.131   0.853  0.2499 -0.0225 -0.1922
32330W        W47461  18.143   6.214  14.543  0.0943 -0.1395 -0.0589
32331W        W47462   4.446  13.390  13.909 -0.1252  0.2105 -0.0798
32332W        W47463  12.223   3.213   5.607  0.0533  0.0134 -0.1995
32333W        W47464  15.135   5.988   0.914 -0.0638 -0.2719 -0.0468
32334W        W47465  13.180   8.121   3.691 -0.0296 -0.6807 -0.0360
32335W        W47466   7.149   9.229   4.785 -0.1163 -0.2234 -0.1297
32336W        W47467   6.646   7.723  13.227  0.0721 -0.0400 -0.0937
32337W        W47468   8.168   0.333  14.022 -0.0940  0.0084 -0.1746
32338W        W47469  10.929  14.877   0.467 -0.2453 -0.0215  0.1368
32339W        W47470   6.780   9.084   5.614  0.1969 -0.1155 -0.1534
32340W        W47471  11.951  10.765   1.727 -0.0328 -0.3839 -0.0180
32341W        W47472   5.368  11.366  10.251  0.3359 -0.0272 -0.0876
32342W        W47473   7.616  15.769   3.624  0.0786  0.1655  0.0083
32343W        W47474   0.621  14.522   1.206  0.0051  0.0867 -0.0093
32344W        W47475  17.371   1.105   2.857  0.2218  0.2119 -0.0099
32345W        W47476   0.193  11.550  12.997 -0.0496 -0.1080 -0.0593
32346W        W47477  16.220   8.990  10.800 -0.1180 -0.0901 -0.0306
32347W        W47478  11.032  15.185   3.932 -0.0548 -0.1955 -0.1070
32348W        W47479  15.494  14.971   1.534 -0.3467  0.0448  0.0820
32349W        W47480   2.086  14.719   5.676  0.0016 -0.2002 -0.0789
32350W        W47481  12.755  13.758   0.184 -0.1621  0.0385 -0.0731
32351W        W47482   2.855   4.841   3.942  0.3499  0.1862 -0.0364
32352W        W47483   3.039  10.804   6.290 -0.1821  0.3672 -0.3988
32353W        W47484  15.193   1.154   4.848 -0.2794  0.1909 -0.1733
32354W        W47485  10.077  18.195  14.563 -0.0269  0.0098 -0.1055
32355W        W47486   2.529  14.094  11.996  0.1717  0.0751 -0.0019
32356W        W47487  12.901   5.427  15.811 -0.2238  0.0495 -0.1442
32357W        W47488   4.427  18.477  11.465  0.3232 -0.0096 -0.0641
32358W        W47489   3.449  17.819  15.886  0.0878  0.0023  0.2557
32359W        W47490  10.196   8.050  12.349  0.2255  0.3585  0.0692
32360W        W47491   7.077   9.161  12.218 -0.1431 -0.0815 -0.2157
32361W        W47492   8.423   6.970   2.202  0.0172  0.1655  0.0908
32362W        W47493   1.144   6.215   2.310 -0.0050  0.2626  0.1187
32363W        W47494  15.626  15.163   5.134 -0.0217 -0.2827  0.3749
32364W        W47495  15.818  14.678  14.450 -0.2400 -0.0447  0.1094
32365W        W47496   6.032  11.109   4.310  0.0337  0.1044  0.0231
32366W        W47497  14.295  17.242  10.682 -0.3945  0.1078 -0.0394
32367W        W47498  12.600  16.434  10.068 -0.0055 -0.0056 -0.2780
32368W        W47499  13.450  10.566  12.000  0.1584 -0.1911 -0.1231
32369W        W47500   9.767   1.644   3.476 -0.1846 -0.2754  0.0504
32370W        W47501   4.262   7.164  15.379 -0.2427 -0.1420 -0.2396
32371W        W47502   0.659  12.538  14.288 -0.3413 -0.0274 -0.0458
32372W        W47503  12.853   0.854  14.096 -0.0471  0.1221  0.3542
32373W        W47504  15.485   2.295   1.376  0.2790 -0.2998 -0.0310
32374W        W47505  15.770   5.405   2.759 -0.3887 -0.0895 -0.1813
32375W        W47506  15.599   7.701  14.239  0.0121  0.1842  0.1164
32376W        W47507  10.126  14.876  14.570 -0.0342  0.1591 -0.0677
32377W        W47508   8.520   8.760  15.783 -0.1802 -0.2079  0.1552
32378W        W47509   6.164  16.579  15.260  0.2037 -0.0180  0.0957
32379W        W47510   8.134  16.864   2.739 -0.1094 -0.0171 -0.1562
32380W        W47511   1.993  18.077  11.022  0.0718  0.0968 -0.1614
32381W        W47512   4.658   6.795   1.863  0.0478  0.1256 -0.4173
32382W        W47513   5.509   4.223   3.692 -0.4508 -0.0021 -0.1406
32383W        W47514   0.424   5.084   2.426  0.0987  0.1987  0.0198
32384W        W47515   7.275   2.440  11.685  0.0055 -0.0015  0.0610
32385W        W47516   1.015  18.511   1.875 -0.0634 -0.2104  0.1936
32386W        W47517   1.518  16.529  15.816  0.3253 -0.1046 -0.0192
32387W        W47518   7.981  15.467  13.750  0.0369 -0.2095  0.3395
32388W        W47519   3.633  10.412  15.212 -0.0590  0.0252 -0.0344
32389W        W47520  17.544  10.479  12.389  0.0219 -0.0830  0.0902
32390W        W47521  15.686   1.874  11.161 -0.0194 -0.1182  0.2444
32391W        W47522   9.981  14.259  12.065 -0.0847  0.0865  0.3046
32392W        W47523   5.314   0.036  10.454 -0.3021 -0.0203 -0.0235
32393W        W47524  13.648  17.995  15.412 -0.3905 -0.0886  0.1319
32394W        W47525  14.402   2.380   2.542  0.2911 -0.1697  0.0555
32395W        W47526   2.272  11.936  14.855 -0.1912  0.0906 -0.2237
32396W        W47527   7.811  10.799   2.162 -0.2959  0.0325  0.1083
32397W        W47528   7.026  13.067   4.776  0.0092  0.0489  0.0131
32398W        W47529   0.406   6.683   4.338  0.1797 -0.1878  0.1892
32399W        W47530  16.098   7.423  11.792  0.0633  0.0686  0.0015
32400W        W47531   2.027  13.271   1.426 -0.2254 -0.0538 -0.3255
32401W        W47532   4.162   3.186   1.162  0.0798 -0.1344 -0.2388
32402W        W47533   8.410  16.750   1.718  0.0005  0.0134 -0.2527
32403W        W47534  12.268   9.969  10.793  0.3240  0.0642  0.0032
32404W        W47535   2.677  17.812   0.241 -0.0444 -0.1507  0.0583
32405W        W47536  13.209   2.652   0.562  0.1565 -0.1922 -0.3662
32406W        W47537  12.873  12.083  14.283 -0.0838  0.0750  0.1667
32407W        W47538   6.929   0.171   3.243 -0.2487 -0.0282  0.5770
32408W        W47539   2.488   1.052   2.654  0.0194 -0.0518 -0.1768
32409W        W47540   1.241   1.577   1.900  0.0957  0.0944  0.1053
32410W        W47541  17.653   6.481  11.400  0.0788 -0.1094 -0.5923
32411W        W47542  11.998  15.446   3.707  0.2028 -0.0610 -0.1230
32412W        W47543  15.789  15.804   1.894 -0.1210  0.0898  0.0139
32413W        W47544   2.933  15.850   5.772  0.0568  0.1416  0.2647
32414W        W47545  10.362   2.252  10.984 -0.1333  0.2295  0.1752
32415W        W47546   8.224  17.786  10.964  0.1338  0.0616 -0.3148
32416W        W47547   4.290   4.393  14.878 -0.1908 -0.0617  0.2020
32417W        W47548   4.825   4.275   0.701  0.1689 -0.1507  0.1873
32418W        W47549  16.759  16.035   4.820 -0.1107  0.2026  0.3109
32419W        W47550   4.094   2.006  15.838  0.0611 -0.0452  0.3332
32420W        W47551   3.047  10.480   2.339  0.2779 -0.1174 -0.1296
32421W        W47552   6.937   2.319   4.725 -0.2004 -0.1146  0.0807
32422W        W47553  10.930   9.228  14.459 -0.0582  0.0700 -0.2060
32423W        W47554  14.755  15.319  11.109 -0.0900  0.1084  0.0176
32424W        W47555   7.938  17.249   3.669  0.0047  0.0519 -0.1189
32425W        W47556   7.486  11.112  11.481  0.2227  0.0884  0.1493
32426W        W47557  15.365   5.226   3.462  0.3782  0.0003 -0.3553
32427W        W47558   7.734  11.570  14.673  0.0214 -0.3961 -0.0208
32428W        W47559   9.367  18.191   2.609  0.0564  0.1325  0.3212
32429W        W47560   9.546  13.041  14.210  0.0929 -0.0485  0.0016
32430W        W47561   9.990  13.173  10.396  0.2714 -0.1280 -0.2396
32431W        W47562   4.855   9.072   5.151  0.0860 -0.1416 -0.2923
32432W        W47563  12.491  10.021  14.489  0.2090 -0.1259 -0.4971
32433W        W47564   6.442  16.496  10.411  0.1070 -0.0651 -0.0266
32434W        W47565   6.409  16.026  15.453  0.0720  0.0956 -0.0173
32435W        W47566   6.774   1.535  14.343 -0.1446 -0.0180 -0.0934
32436W        W47567   2.568  15.323   4.354  0.1019 -0.1450  0.0283
32437W        W47568   0.902  14.563   5.111  0.2684 -0.0764 -0.2046
32438W        W47569   7.813   2.777   0.865  0.0924 -0.2110 -0.1066
32439W        W47570   3.531   3.296   5.972 -0.0529 -0.0817  0.2160
32440W        W47571   4.390   7.609   1.517  0.0226 -0.3784  0.1225
32441W        W47572   8.480   9.098  11.619  0.1990 -0.4451 -0.0628
32442W        W47573  18.458   9.584  14.731 -0.0502  0.0644 -0.0463
32443W        W47574  10.464   9.865   0.913 -0.0799 -0.0425  0.1267
32444W        W47575  14.899  11.122  11.179  0.3001  0.1044  0.1728
32445W        W47576   1.022  15.412   3.273 -0.1339  0.0162  0.0862
32446W        W47577   1.668  15.284  10.986 -0.2011 -0.1145  0.1537
32447W        W47578  15.120   8.291  12.115 -0.1425 -0.3715 -0.2050
32448W        W47579  14.657  17.485   4.979 -0.2207 -0.0381  0.2335
32449W        W47580   0.270  14.692  14.536  0.0974 -0.1553  0.1906
32450W        W47581   2.573   0.055   4.145  0.1117  0.2981 -0.2121
32451W        W47582   4.384  13.857  12.346  0.1229  0.2203  0.1724
32452W        W47583  11.348   1.678  10.945  0.0392  0.0236 -0.2120
32453W        W47584   9.345   8.970  14.130 -0.3303 -0.0767 -0.1904
32454W        W47585   4.300   8.422  12.351  0.0289 -0.0269  0.0128
32455W        W47586  13.689  13.922  15.026  0.1143 -0.0320 -0.1058
32456W        W47587   7.743   9.958  11.386 -0.1677  0.0728 -0.2408
32457W        W47588   9.659   6.889  11.211 -0.3385 -0.0389  0.2447
32458W        W47589  10.548  10.228   2.425  0.2362 -0.1077 -0.3187
32459W        W47590   1.474   4.170   1.978  0.5118  0.0316  0.0699
32460W        W47591   4.052  13.745   4.009  0.0111  0.2476  0.1498
32461W        W47592   5.233  13.970   2.202  0.2794 -0.1024 -0.0328
32462W        W47593  14.773  16.724   6.039  0.1148 -0.0194 -0.0456
32463W        W47594   4.534   3.879   2.394 -0.0166 -0.0236  0.0061
32464W        W47595   7.202  17.072  12.312 -0.0841 -0.1737 -0.0670
32465W        W47596   9.367   7.812  14.906  0.2277  0.0661 -0.1508
32466W        W47597   8.792   9.714  13.168 -0.0775 -0.0224 -0.2919
32467W        W47598   7.623  10.616  14.729  0.1283  0.2873  0.1013
32468W        W47599   3.731  17.175   5.132  0.2164 -0.1332  0.3822
32469W        W47600  12.885  17.434   1.136  0.2833  0.3307 -0.1647
32470W        W47601   7.192   8.363  14.192 -0.0524  0.1431 -0.0314
32471W        W47602   0.122  17.292   4.722 -0.1724  0.0521 -0.3629
32472W        W47603   3.155   0.628  11.719 -0.0528  0.2094  0.0407
32473W        W47604   7.049   2.787   0.999  0.0178 -0.2239  0.0609
32474W        W47605   2.976  17.993  10.250  0.0392  0.1265 -0.3230
32475W        W47606  14.882   2.391   2.701 -0.1980 -0.1702 -0.0936
32476W        W47607   7.041   4.784   3.891  0.2360  0.3191  0.0544
32477W        W47608   7.062  17.343   3.458 -0.0055  0.1023  0.1061
32478W        W47609   5.719  11.875   3.900 -0.0533 -0.0731 -0.2040
32479W        W47610  16.013   1.803  10.792  0.1582 -0.1494  0.4489
32480W        W47611   9.884   0.836  11.337  0.0690 -0.0781 -0.0177
32481W        W47612   0.234   0.902   5.464 -0.1032 -0.1735  0.1434
32482W        W47613  15.874   8.644  11.323 -0.3393 -0.3290 -0.1791
32483W        W47614  12.681   7.669  13.208 -0.0636  0.0685  0.0685
32484W        W47615  15.000   3.565   4.320  0.0232 -0.3070  0.2105
32485W        W47616   1.813   6.428   4.151 -0.3458  0.0890 -0.2039
32486W        W47617   0.873   2.659   0.338 -0.5424  0.2401 -0.1537
32487W        W47618  13.519  14.757   1.892  0.0342 -0.2139  0.0555
32488W        W47619  14.414   0.358   3.046  0.2283  0.0743 -0.0578
32489W        W47620  13.373   4.113  15.097 -0.1464  0.0266 -0.0223
32490W        W47621  17.765  10.191  11.641  0.1596  0.1690 -0.0984
32491W        W47622   2.611   3.362  13.628  0.0173 -0.0529  0.0367
32492W        W47623   7.730  12.536  10.466  0.2614 -0.0052  0.0275
32493W        W47624  18.246  18.372   2.502 -0.1114 -0.1522  0.1202
32494W        W47625  17.296   1.466  14.762 -0.1533 -0.1489 -0.0807
32495W        W47626   3.463   2.960   2.477  0.0120  0.2730  0.0629
32496W        W47627  15.021   8.626   3.299 -0.1454  0.1392 -0.3933
32497W        W47628  17.936   1.785  10.766  0.1659 -0.2281 -0.0029
32498W        W47629   4.814   6.978  14.788  0.0684 -0.1807  0.1975
32499W        W47630   1.930  10.366  13.990 -0.3356  0.3766  0.1659
32500W        W47631  13.309  10.008  11.532 -0.1037  0.0206 -0.0875
32501W        W47632   4.457   8.194   4.010  0.0979 -0.2624  0.0420
32502W        W47633   2.690  14.808  13.455  0.1656 -0.3401 -0.1826
32503W        W47634  12.707   7.066  11.747  0.1448  0.0976 -0.1706
32504W        W47635   2.610  15.856  11.583 -0.1537  0.0212 -0.0586
32505W        W47636   5.354   0.621   4.230  0.0566 -0.0041  0.0642
32506W        W47637  10.666  13.494  11.386  0.1189 -0.4010  0.0331
32507W        W47638  14.486  13.952  12.848  0.0127 -0.4398  0.2761
32508W        W47639  14.716   5.562  13.197 -0.3933  0.0202 -0.0959
32509W        W47640  17.182  15.938  13.688 -0.0365  0.3333 -0.3791
32510W        W47641  10.724   6.270  11.076 -0.1780  0.2623  0.0503
32511W        W47642   1.297  10.074   1.968 -0.1538 -0.0248 -0.1816
32512W        W47643  18.137   8.592   2.954 -0.1422  0.0860  0.1239
32513W        W47644  11.287   6.496   1.014  0.4041 -0.1786 -0.1131
32514W        W47645   5.271   9.954   5.780 -0.2441 -0.1743  0.0381
32515W        W47646   3.375  15.226  13.478  0.0880 -0.5389 -0.0518
32516W        W47647  14.406   0.393  10.674 -0.0700 -0.1333 -0.0733
32517W        W47648  12.421   1.413   0.588 -0.1016 -0.0214 -0.1212
32518W        W47649   4.209  18.345  15.886  0.5464 -0.1786 -0.1940
32519W        W47650   3.051   6.211   2.572 -0.2908 -0.0457  0.0526
32520W        W47651  17.427   7.991   0.692 -0.1384  0.0112  0.1855
32521W        W47652  15.502  11.965   5.945 -0.0537 -0.2015 -0.5335
32522W        W47653  14.522   7.231   5.517 -0.0633 -0.3340 -0.2366
32523W        W47654  16.223  10.313  13.628 -0.0009  0.0116  0.0757
32524W        W47655   2.273  13.289   4.942 -0.0063  0.4051  0.1205
32525W        W47656   1.137   4.710   3.491  0.0731 -0.0006  0.0829
32526W        W47657  17.563   3.637   4.935  0.2729  0.0291  0.0804
32527W        W47658   2.524   7.719   0.883  0.0948 -0.1110  0.0147
32528W        W47659  14.975   6.504   4.773 -0.2455  0.3582  0.2780
32529W        W47660   8.203  12.771  11.329 -0.1378 -0.0703 -0.0345
32530W        W47661   3.119   1.944   3.011 -0.1306 -0.2219  0.0563
32531W        W47662   4.643   8.082   1.076 -0.0721  0.0625 -0.2509
32532W        W47663   4.834  18.043  14.562  0.0278 -0.0384  0.0116
32533W        W47664   1.608  13.102  15.281 -0.0850 -0.0587  0.0777
32534W        W47665   5.741  16.320  14.087 -0.3579 -0.0923 -0.0146
32535W        W47666  14.673  16.411  12.004 -0.1681  0.2527 -0.2346
32536W        W47667   0.561  16.442  11.980 -0.1492 -0.2409  0.1519
32537W        W47668  16.905   0.295   2.539 -0.1298 -0.0494 -0.3524
32538W        W47669  16.517   1.291   5.392  0.0458  0.0432  0.0900
32539W        W47670  16.011  15.086   2.572  0.1848 -0.0185 -0.2201
32540W        W47671  15.641  16.367   5.707 -0.1940 -0.2031 -0.0958
32541W        W47672   8.141  14.647  10.369  0.1898  0.2011  0.2775
32542W        W47673  16.597  17.301   1.019  0.1499  0.0144 -0.0905
32543W        W47674  11.163   9.069  13.661 -0.2902  0.0601  0.1384
32544W        W47675   1.444  13.255   5.635  0.0559 -0.1115  0.0033
32545W        W47676   2.551  17.971   0.897  0.0166  0.0133  0.0409
32546W        W47677  11.830   9.385   0.775  0.0846 -0.3493  0.4060
32547W        W47678   7.593   9.501  10.573  0.1355  0.0126  0.0335
32548W        W47679   1.673   1.371   2.128 -0.1222 -0.2890 -0.1909
32549W        W47680   8.058  15.919   1.101  0.1327  0.1573  0.0292
32550W        W47681   3.712  11.215   2.231 -0.0851  0.1169 -0.0718
32551W        W47682   7.992  17.934  12.501 -0.1902 -0.0371  0.0972
32552W        W47683  13.646  16.084   2.172 -0.1695  0.0456  0.0936
32553W        W47684   1.302   0.276   1.440  0.3401 -0.1641 -0.0338
32554W        W47685  14.850  10.190  14.936 -0.2098  0.1232 -0.1607
32555W        W47686   1.864   3.395  11.237 -0.1419 -0.0656  0.3746
32556W        W47687   4.059  17.226   3.851 -0.1652  0.0979 -0.1004
32557W        W47688   3.484   3.653  13.182  0.0582  0.1094 -0.1354
32558W        W47689  11.303  15.764  11.783  0.0929  0.1398  0.2536
32559W        W47690   1.330  16.345   2.322  0.1174  0.0728  0.2972
32560W        W47691   3.178   1.185   4.981  0.3145 -0.0771 -0.1104
32561W        W47692  16.665   0.883   5.191 -0.1532 -0.2195 -0.0683
32562W        W47693  17.255   5.460  11.774 -0.3159  0.0980 -0.0700
32563W        W47694   9.913  16.457   2.751 -0.0713  0.1521  0.1489
32564W        W47695  18.524   6.216  11.367  0.1812 -0.1537 -0.0187
32565W        W47696  17.652   0.874   5.148  0.0809 -0.0426  0.2115
32566W        W47697   0.448  14.862   6.015 -0.1228  0.0609  0.0677
32567W        W47698   3.350  17.542  11.409 -0.0066 -0.0880  0.4147
32568W        W47699   9.410  15.357  14.187  0.0848 -0.2151 -0.0301
32569W        W47700   4.809   6.645   0.521 -0.1353  0.0619  0.0555
32570W        W47701  17.650  12.334   5.226 -0.0662 -0.0708 -0.0383
32571W        W47702   4.545  14.169   1.435 -0.0453  0.2893  0.2684
32572W        W47703   3.323  14.841   4.891  0.0016  0.0849  0.2560
32573W        W47704   9.287  15.247   2.166 -0.3336  0.1217  0.2272
32574W        W47705  12.915   6.236   2.506  0.3717  0.1109 -0.2703
32575W        W47706   7.113  13.089   1.746  0.3085 -0.0097  0.1171
32576W        W47707   0.879  12.075   1.813 -0.2091 -0.0137 -0.0704
32577W        W47708  11.164   0.882   5.011 -0.0364  0.1324  0.2194
32578W        W47709  17.521  11.454   1.264 -0.2446  0.0320  0.1564
32579W        W47710  16.611  11.325  13.673 -0.0485 -0.0689  0.2037
32580W        W47711   1.779   5.126  12.183 -0.3455  0.0707  0.1466
32581W        W47712   7.974  17.087  14.485  0.0251 -0.2001 -0.2645
32582W        W47713   9.474   6.199   1.803 -0.0368  0.2433 -0.0598
32583W        W47714   1.583  15.633   1.134 -0.0301  0.0365 -0.1231
32584W        W47715   9.691   0.815   0.592 -0.1475 -0.0738  0.0926
32585W        W47716   4.920   5.393  11.537 -0.0208  0.3643  0.2969
32586W        W47717   2.408   9.010   1.423 -0.2534 -0.2819 -0.3769
32587W        W47718  15.656   8.265  15.397  0.1970 -0.0360  0.0544
32588W        W47719   8.328   9.511  15.032  0.3514 -0.1510  0.1911
32589W        W47720  15.276  10.839  12.803 -0.0195  0.0112  0.2100
32590W        W47721   0.442   2.211   5.056 -0.0329  0.2472 -0.2113
32591W        W47722   4.904  10.091   5.504 -0.3610 -0.0920  0.3323
32592W        W47723   1.744  10.231   4.367 -0.1152 -0.1022  0.1003
32593W        W47724  12.890  13.093   2.583  0.0891  0.0879 -0.3282
32594W        W47725  14.056   5.948   4.404 -0.0498 -0.0749  0.0939
32595W        W47726   0.293   0.423  10.143  0.6015  0.0140 -0.3334
32596W        W47727   4.141   4.635  12.874  0.0004  0.0274 -0.2829
32597W        W47728   4.194  15.545  12.852 -0.0149 -0.3409 -0.1641
32598W        W47729  16.813   9.328  15.559  0.2912 -0.0820 -0.0572
32599W        W47730  12.831   0.149   4.483  0.0035 -0.1113  0.2198
32600W        W47731   8.916   5.998   5.247  0.2381  0.1484  0.0004
32601W        W47732  16.179   4.943  13.158 -0.1306  0.0418  0.1013
32602W        W47733   6.338   4.499  15.820  0.1967  0.0001 -0.2357
32603W        W47734   3.559   2.685  13.775 -0.1565 -0.0550 -0.2430
32604W        W47735  10.932  15.149  11.356  0.1103 -0.0081 -0.4052
32605W        W47736   5.648  11.160  11.995  0.1512 -0.2889 -0.0119
32606W        W47737  17.419   2.098   1.984  0.0428  0.3033  0.1394
32607W        W47738  13.167  10.435  14.565  0.4027 -0.0354 -0.0858
32608W        W47739  12.004   8.432  12.035 -0.1901 -0.1596  0.1892
32609W        W47740  14.052   5.070   2.940 -0.0900 -0.0280 -0.3273
32610W        W47741   5.169  17.348   3.401  0.0051 -0.3253 -0.0414
32611W        W47742  13.764   8.085  13.900 -0.1337  0.2893 -0.0571
32612W        W47743   6.883  18.021   3.809 -0.0816  0.0746 -0.1284
32613W        W47744  12.746   7.842   1.710  0.1607 -0.2169 -0.2861
32614W        W47745  16.024   4.841   5.459 -0.0022 -0.0146 -0.0542
32615W        W47746   5.013   9.340  10.994 -0.0385 -0.2529 -0.0874
32616W        W47747   3.072  10.653  13.491  0.2448 -0.0683 -0.1320
32617W        W47748   4.313  17.631  12.229 -0.1530 -0.1428  0.3506
32618W        W47749   1.471  17.092   1.884  0.0968 -0.1484 -0.2576
32619W        W47750   9.256  18.267   0.017 -0.0004 -0.1887 -0.0387
32620W        W47751   4.086  10.255  15.096 -0.2305 -0.2306  0.3182
32621W        W47752   2.498  12.856  10.719 -0.2709  0.3739 -0.2128
32622W        W47753   0.547   1.256   3.422  0.0013 -0.1076 -0.1608
32623W        W47754   8.722  14.471  15.865  0.2669  0.3780  0.0875
32624W        W47755   9.933   3.932  14.786  0.1090  0.5969 -0.1288
32625W        W47756   2.249  18.133   5.036 -0.3336 -0.0067 -0.1272
32626W        W47757  13.641  13.777   0.569  0.1687  0.0792 -0.1081
32627W        W47758   7.918   5.884   1.276 -0.0928  0.1707 -0.0025
32628W        W47759   1.568  15.770   2.394 -0.0116  0.0787  0.0372
32629W        W47760  12.584  11.448   1.733 -0.2646  0.0970  0.0921
32630W        W47761  14.467  10.805  10.479 -0.1238 -0.1868  0.1075
32631W        W47762  15.099   8.720   0.556 -0.3082  0.2783  0.1781
32632W        W47763  15.194  17.856   1.913  0.0497  0.1615 -0.1334
32633W        W47764  18.042  18.044  14.072 -0.0590  0.0528 -0.0629
32634W        W47765   3.776   8.572  14.458  0.0936  0.2841  0.1064
32635W        W47766   1.092  18.251   0.554 -0.0166  0.2453 -0.0563
32636W        W47767   1.279   2.766   0.007 -0.0143  0.0889 -0.0111
32637W        W47768  15.604  16.459   0.683  0.0782 -0.0400  0.2724
32638W        W47769  12.275  11.727   3.087 -0.6895 -0.0151 -0.0908
32639W        W47770  18.445   5.043   0.128  0.0098 -0.3032  0.0588
32640W        W47771  14.134   2.747   2.726  0.0088  0.0748  0.0090
32641W        W47772  16.293  17.952  10.592  0.2996 -0.0999 -0.1924
32642W        W47773  12.292  18.483  11.815  0.0944 -0.1069 -0.3046
32643W        W47774  16.627  11.714  14.258 -0.1883  0.0882 -0.5013
32644W        W47775   9.162   1.872  14.347  0.0617  0.0123  0.1354
32645W        W47776   1.008   7.203  11.643 -0.1849  0.3320  0.3668
32646W        W47777   6.775   5.634   5.774  0.4214 -0.1910  0.2779
32647W        W47778   0.145   5.833   3.476  0.1838 -0.1949 -0.0262
32648W        W47779  12.971   6.519   2.130  0.0121 -0.1758  0.0163
32649W        W47780  14.037  12.244  13.187 -0.1528 -0.1049 -0.2386
32650W        W47781  10.269   4.615  14.750 -0.3053  0.0851 -0.1555
32651W        W47782   5.128   1.608  13.653  0.1804  0.4052 -0.0168
32652W        W47783  17.052  18.341  15.500  0.0782  0.1720 -0.1034
32653W        W47784   2.895  14.035   0.442  0.0941 -0.0520 -0.0043
32654W        W47785  13.853  17.007   4.472  0.1243 -0.1828 -0.2777
32655W        W47786  12.064  18.502   4.826 -0.1133  0.1022  0.0205
32656W        W47787  14.986   3.262  15.527 -0.2193  0.1597  0.0844
32657W        W47788   9.379   9.361   3.780 -0.1060 -0.0810 -0.2522
32658W        W47789  15.502   7.434  11.871  0.2275  0.1529  0.1301
32659W        W47790   1.474   4.515  10.487 -0.3042  0.0283  0.1806
32660W        W47791   5.160  13.540  13.712 -0.1963  0.1185 -0.3834
32661W        W47792  11.678   6.680   4.418 -0.3145 -0.1415 -0.2239
32662W        W47793   4.063   3.910  14.989 -0.0145  0.1778 -0.2181
32663W        W47794  10.813  11.756   4.476 -0.1659 -0.1282  0.1358
32664W        W47795   1.858   5.358   4.918 -0.1873 -0.0985  0.1981
32665W        W47796   4.997  17.413   1.832 -0.1141  0.2259 -0.4105
32666W        W47797   0.104  12.545  15.435  0.0822 -0.0516  0.0248
32667W        W47798   8.343   4.817  12.389  0.0108 -0.0009 -0.2346
32668W        W47799   6.603  16.297   0.522 -0.0188  0.0566  0.3381
32669W        W47800   3.155  11.702  14.842 -0.3224  0.1480 -0.2173
32670W        W47801   0.670   9.287   6.116  0.0219  0.0695  0.1017
32671W        W47802  18.019  15.508  15.873 -0.0201  0.2232 -0.0768
32672W        W47803   4.672   1.091   0.430  0.0565  0.1894 -0.3065
32673W        W47804   3.256  10.191   0.993  0.1231  0.0941  0.1111
32674W        W47805  11.402   0.589  13.061 -0.0433  0.0140 -0.1967
32675W        W47806   0.867   2.753  11.582  0.2064  0.1360 -0.0246
32676W        W47807  13.566  18.262  14.611 -0.0654  0.3278  0.0910
32677W        W47808  17.206  16.914  15.130  0.0168 -0.0078  0.1651
32678W        W47809  14.031  12.251  11.517 -0.0786 -0.0460  0.2507
32679W        W47810  15.206   0.793  12.688 -0.0025 -0.1201  0.0223
32680W        W47811   1.694   0.883   0.295  0.0065  0.0403 -0.0168
32681W        W47812   4.941  16.088  13.303 -0.0903  0.0475  0.3578
32682W        W47813  11.120   6.981   0.859  0.0111  0.0077  0.2661
32683W        W47814   0.988  10.209   4.600 -0.2465 -0.1373 -0.2478
32684W        W47815  16.376   6.899   3.314  0.1255 -0.0349  0.2856
32685W        W47816  16.027   4.192   0.552 -0.2453 -0.3187  0.0842
32686W        W47817   3.207   3.129   4.314 -0.0576 -0.2850 -0.3132
32687W        W47818   2.039   8.108  12.774  0.2296  0.0872 -0.1054
32688W        W47819   8.733  17.499   3.262 -0.3274  0.0832 -0.1964
32689W        W47820   2.831  17.460  10.263 -0.0185 -0.2370 -0.0941
32690W        W47821  15.144   4.290   0.821 -0.1144 -0.1565  0.2100
32691W        W47822   1.628   6.375  11.636 -0.1555  0.0590 -0.1198
32692W        W47823  14.393   4.907  11.630  0.0997 -0.0381 -0.0776
32693W        W47824   9.411   8.706   4.921  0.1683 -0.1239  0.2106
32694W        W47825  18.246  11.381   4.228 -0.1484  0.0702  0.0048
32695W        W47826   9.485   5.814   5.669  0.2443  0.0382 -0.0885
32696W        W47827  11.612   7.655  10.350 -0.1880  0.1296  0.3218
32697W        W47828  14.550   2.449  14.605  0.1303 -0.0698  0.0234
32698W        W47829  12.788   6.007  11.941 -0.3660  0.2206 -0.0580
32699W        W47830   8.778   1.621   2.892  0.1565  0.0669 -0.0854
32700W        W47831   2.913   2.763   2.859  0.0820 -0.1259 -0.2175
32701W        W47832  10.708   9.029  13.913  0.3157  0.1953  0.0327
32702W        W47833  14.118   9.107   4.546 -0.0244  0.3327 -0.1475
32703W        W47834   9.968   1.692   2.181 -0.2636 -0.1610 -0.1300
32704W        W47835  12.722  18.155   5.026 -0.0503  0.1402 -0.2363
32705W        W47836   4.004  17.122  14.943  0.0576  0.1700 -0.0825
32706W        W47837  16.618  13.795   4.793  0.0141  0.0171 -0.1144
32707W        W47838   6.224  17.476  15.523  0.1388  0.0316 -0.0730
32708W        W47839   5.596   1.266  13.746 -0.0410  0.1820 -0.4825
32709W        W47840   0.251  14.196  13.080 -0.1059 -0.0964  0.0299
32710W        W47841   3.506   3.817   0.332  0.0692  0.2917 -0.2177
32711W        W47842  17.134   9.298  11.238 -0.0199  0.2811 -0.1274
32712W        W47843  13.056   9.574  15.304  0.1489  0.1084  0.2456
32713W        W47844   0.099   0.940   4.539 -0.0727 -0.0542  0.1152
32714W        W47845  17.181  13.547  10.553  0.0435  0.1097 -0.3040
32715W        W47846   4.980  15.340   1.675 -0.1855  0.3564  0.1825
32716W        W47847   9.321   7.070  13.603 -0.0207 -0.2100  0.2124
32717W        W47848  10.245  18.037   0.886 -0.1498 -0.2267 -0.0822
32718W        W47849  14.144   0.260  13.063 -0.1132  0.2325  0.0893
32719W        W47850   2.189  18.033  11.971  0.0545  0.0033  0.0338
32720W        W47851  11.470   4.647   3.822  0.1363 -0.4858  0.1028
32721W        W47852  10.367  14.061  12.299  0.3286  0.0208 -0.2460
32722W        W47853   4.407   4.752   3.393 -0.2499 -0.3911  0.3824
32723W        W47854   3.899  18.005  15.074 -0.0110  0.1147 -0.4496
32724W        W47855  12.342  15.053  11.185 -0.0385  0.0883  0.1826
32725W        W47856  17.008  14.602   1.887 -0.0414  0.2177 -0.1836
32726W        W47857   3.372  15.030   1.234 -0.0620 -0.5381  0.3783
32727W        W47858   0.594  18.370   5.086  0.1245  0.0426 -0.5192
32728W        W47859   0.289   9.625   2.736 -0.2415  0.3355  0.2334
32729W        W47860   2.367   6.523   3.702 -0.1729 -0.0779 -0.2405
32730W        W47861   9.888   5.104  13.805 -0.1033 -0.1895 -0.0588
32731W        W47862   6.372   6.877   2.728 -0.1334  0.1912 -0.0598
32732W        W47863  11.399  16.951  10.685  0.1950 -0.2194 -0.1303
32733W        W47864  13.501  11.665   1.098  0.0027  0.0894 -0.0479
32734W        W47865   7.026   4.347   3.643 -0.0389  0.0983  0.0722
32735W        W47866  17.650   0.768   0.409  0.0088  0.0880  0.2905
32736W        W47867   3.400   7.191  15.797  0.3089 -0.2418 -0.0570
32737W        W47868   2.057  12.452   1.255 -0.1655  0.3975  0.2577
32738W        W47869  15.749   0.571  15.862 -0.0740 -0.0980 -0.1589
32739W        W47870   4.957   9.646   2.782  0.2660 -0.0049  0.0124
32740W        W47871  18.417  11.173  13.000 -0.4370 -0.1668  0.0763
32741W        W47872  11.049   3.855   1.132 -0.2955  0.1483  0.0477
32742W        W47873  16.372  13.462  10.841  0.1835  0.1514  0.4957
32743W        W47874  13.191  15.434  11.711 -0.0287 -0.4559 -0.0894
32744W        W47875  12.354   0.562  12.636 -0.0413 -0.0680 -0.0782
32745W        W47876  13.273   7.421   5.202 -0.0599 -0.2300  0.2085
32746W        W47877   9.417   0.303   0.708  0.2084  0.2097  0.1969
32747W        W47878  10.214  15.570  11.131  0.1876 -0.1075  0.0569
32748W        W47879   5.574   0.508   5.153  0.2048  0.0760  0.0028
32749W        W47880   9.674  15.797  11.925 -0.2528  0.0318  0.0858
32750W        W47881   4.140   3.740  11.224 -0.1778 -0.0413  0.0235
32751W        W47882   5.377  14.990   0.012  0.1917  0.3498 -0.1893
32752W        W47883  11.030   7.783   2.800 -0.1823 -0.2990 -0.1432
32753W        W47884   6.522  17.923  12.194 -0.1879  0.7460 -0.1975
32754W        W47885   0.600   4.427  13.916 -0.1092 -0.2800  0.0879
32755W        W47886  15.112  10.243  14.459  0.0557  0.1187  0.0760
32756W        W47887   8.599  10.229   3.796 -0.1864 -0.2599 -0.2915
32757W        W47888   0.978   7.827   0.017  0.0645 -0.2194 -0.0372
32758W        W47889   2.945   1.539  13.495 -0.2495 -0.3483 -0.1169
32759W        W47890   8.304   6.673   3.564  0.0058  0.0342 -0.1007
32760W        W47891  12.055  12.930   3.014  0.1704  0.0422  0.1402
32761W        W47892   0.823  12.858  12.688 -0.1040  0.0306  0.0442
32762W        W47893   8.444   6.912  13.085 -0.2873 -0.0808 -0.3099
32763W        W47894  18.059  15.378  14.106  0.1604 -0.0118 -0.0249
32764W        W47895  15.766   8.219  12.208 -0.1307 -0.1130  0.0547
32765W        W47896   6.997   3.871   5.214  0.3110  0.1131 -0.0554
32766W        W47897  17.272  11.669   3.813 -0.0777 -0.1122 -0.0003
32767W        W47898   3.574  15.800  13.083  0.0329  0.0211 -0.1935
32768W        W47899   8.148  18.158  15.103  0.0144 -0.1048 -0.0661
32769W        W47900  14.645   1.596   2.558  0.2332  0.1510  0.0658
32770W        W47901  10.180   7.734  14.879 -0.4578 -0.1389  0.0548
32771W        W47902   8.623  14.457  13.175  0.0789 -0.2041 -0.2915
32772W        W47903  17.696   6.296   0.256 -0.2714  0.0469 -0.1335
32773W        W47904  11.824   0.085  12.238  0.1605 -0.2109 -0.0219
32774W        W47905  12.644  15.004  15.178 -0.0810  0.1873 -0.3042
32775W        W47906  15.026   2.385  14.070 -0.1758 -0.3466  0.1113
32776W        W47907  13.678   0.314  12.958  0.0252 -0.1775  0.2386
32777W        W47908   8.834   3.567   4.304  0.0962 -0.1490 -0.0730
32778W        W47909   8.897   3.304   1.488 -0.1940  0.2456  0.0978
32779W        W47910  12.720   3.680   1.859 -0.2266 -0.4898 -0.2014
32780W        W47911  11.342  14.500   0.752 -0.2865  0.1964 -0.0898
32781W        W47912  10.394   3.514   2.758 -0.1573 -0.3754 -0.0997
32782W        W47913  10.775   2.208  11.250  0.1988 -0.2834  0.0752
32783W        W47914   9.346  15.158   3.117 -0.2021 -0.2663  0.1722
32784W        W47915   1.949   7.190   1.564  0.2355 -0.3398  0.1568
32785W        W47916  14.004   7.404  11.564  0.0157 -0.0474  0.2246
32786W        W47917  11.414  12.912   3.780 -0.0467  0.0261  0.4916
32787W        W47918  14.180  14.925   1.237  0.0039  0.3222 -0.1180
32788W        W47919   8.161  15.091  14.702  0.1133 -0.1242  0.0462
32789W        W47920  18.281   2.344  15.110 -0.0433  0.1294  0.3702
32790W        W47921  16.257   7.834  12.248 -0.0783 -0.1542 -0.1059
32791W        W47922   1.977   5.622   1.655  0.0475 -0.1148 -0.0319
32792W        W47923  14.867  18.280   3.934  0.0716 -0.0030  0.0486
32793W        W47924   6.741  17.787  12.622  0.0957 -0.2663 -0.2294
32794W        W47925  16.671  12.529  12.546 -0.1682  0.2490  0.2391
32795W        W47926  14.336   0.760  13.337  0.0191  0.2503 -0.2113
32796W        W47927  11.377   9.916   4.702 -0.0853 -0.2447 -0.0054
32797W        W47928   4.686  11.939  14.804  0.0234  0.1585 -0.0771
32798W        W47929  10.030   1.501  13.791  0.0116  0.0972  0.0189
32799W        W47930   9.443   3.629  14.285  0.0370 -0.1559  0.0614
32800W        W47931   1.026  15.425   2.101  0.2254 -0.4523 -0.2159
32801W        W47932  17.108  15.494   2.477  0.2588 -0.1134 -0.1708
32802W        W47933   5.377   0.738   1.526 -0.0448  0.0078 -0.1014
32803W        W47934   8.676   0.054   0.376  0.0430  0.5469  0.1958
32804W        W47935  18.344  11.393   1.711  0.5793  0.0463  0.2627
32805W        W47936   3.905   7.815   2.386  0.1181 -0.1263  0.1993
32806W        W47937  15.327  12.926  12.278 -0.0382  0.0304 -0.2990
32807W        W47938  17.381  16.699   0.588  0.0748  0.2994  0.1305
32808W        W47939   5.986   5.434  11.863  0.2395  0.2236 -0.0158
32809W        W47940   7.498   7.615   2.599 -0.2963  0.0882 -0.3145
32810W        W47941  15.916  16.717   5.916 -0.1795 -0.2684 -0.0216
32811W        W47942  14.500  16.642   4.294  0.1522 -0.1395 -0.0516
32812W        W47943   0.205   6.655  15.082 -0.0755 -0.0657 -0.2610
32813W        W47944  12.865   5.858   3.857 -0.1179 -0.1488  0.0723
32814W        W47945  14.348   3.156   3.093 -0.0184 -0.1285  0.3346
32815W        W47946  11.860  12.451  13.308  0.0669 -0.1094 -0.0814
32816W        W47947   1.536   8.133  15.442 -0.0904  0.1096 -0.2345
32817W        W47948   2.019  14.506   1.519  0.1772  0.0691 -0.2869
32818W        W47949  13.630   5.226   0.675 -0.0706  0.2630 -0.0356
32819W        W47950  14.361  12.697   3.569  0.3679 -0.2274  0.2873
32820W        W47951   1.115  11.310   3.968 -0.2065  0.2381 -0.2119
32821W        W47952   0.270   6.693   0.762 -0.0771 -0.0488 -0.2445
32822W        W47953   1.678   3.594   1.060  0.0817  0.1921  0.1992
32823W        W47954   8.673   0.207   4.547  0.1226 -0.1166  0.2524
32824W        W47955  12.425  16.429   0.934  0.1592 -0.2808  0.2066
32825W        W47956   1.589   3.283   2.393  0.2491  0.2555  0.0869
32826W        W47957   3.102   0.131  11.352 -0.1127  0.2405  0.2708
32827W        W47958  10.737  14.764   3.878  0.1474  0.0155 -0.2118
32828W        W47959  10.860   4.209  13.681 -0.1327 -0.2735 -0.0147
32829W        W47960  17.716  16.834  12.193 -0.0089  0.0336  0.1549
32830W        W47961   0.529  17.644   9.653 -0.0889  0.1088  0.0369
32831W        W47962   0.115   8.140  12.292 -0.1769 -0.1005  0.5202
32832W        W47963  17.194  15.264   4.479 -0.0828 -0.0753  0.1701
32833W        W47964   4.760  10.011  12.716 -0.2441 -0.0304  0.0216
32834W        W47965   8.891   1.575  13.774  0.2465 -0.1313 -0.2984
32835W        W47966  17.357  14.621   5.120  0.1456  0.2047  0.2349
32836W        W47967  17.264   6.012   0.050  0.2652 -0.0958  0.0766
32837W        W47968   2.356   4.263  13.725  0.0277  0.1853 -0.2588
32838W        W47969  14.239  12.264   3.838  0.1514  0.1179 -0.0663
32839W        W47970  11.593  13.109  11.661  0.0876 -0.0388 -0.3315
32840W        W47971   1.938  15.220   1.085 -0.1157 -0.1079  0.1774
32841W        W47972   0.140  14.491  10.978 -0.3850 -0.1314 -0.1995
32842W        W47973   0.361   8.563  14.979  0.1281 -0.1111 -0.0513
32843W        W47974   7.705   2.786  11.567 -0.2277 -0.1508 -0.2020
32844W        W47975   8.776  10.681   4.635 -0.0256  0.1888  0.0701
32845W        W47976   7.076  12.205   5.140 -0.1170 -0.1559 -0.2135
32846W        W47977   0.355   9.115  15.729  0.2360  0.0864  0.0327
32847W        W47978   4.004   9.458   1.736  0.3267 -0.0324  0.2480
32848W        W47979   3.720   1.410  11.061 -0.3130  0.0241  0.3717
32849W        W47980   8.280   7.157   2.703  0.0479 -0.4292  0.2635
32850W        W47981  11.255   2.255   3.512 -0.2359 -0.0385  0.1023
32851W        W47982   0.035   7.031   4.213  0.3879  0.1682  0.1267
32852W        W47983   9.131  13.592  10.834 -0.0200 -0.2380  0.2193
32853W        W47984   3.572  10.183   2.916  0.0578  0.0560 -0.0120
32854W        W47985  12.864  12.814   4.098  0.0570  0.2610  0.0207
32855W        W47986  10.853   3.020  12.862  0.0256 -0.1810  0.1257
32856W        W47987  14.824  12.769  12.295  0.0773  0.0907 -0.2515
32857W        W47988   4.935  16.134   3.237  0.1995  0.0574 -0.2393
32858W        W47989  15.002   0.626   3.968 -0.0925  0.3173  0.1703
32859W        W47990  14.719  16.404  14.153 -0.1631  0.0498  0.0596
32860W        W47991   2.234  12.239   3.975  0.0462  0.2019  0.2824
32861W        W47992   8.904  12.313  11.151  0.0167 -0.2759  0.1143
32862W        W47993  12.164   0.181   4.146 -0.0463  0.0785 -0.0385
32863W        W47994  13.736   2.418   2.143 -0.1073 -0.3624 -0.0581
32864W        W47995  16.832   8.105   3.045  0.1702  0.0962 -0.0223
32865W        W47996   0.079  10.557  11.259 -0.1879  0.1084 -0.1504
32866W        W47997  15.135   2.448  15.282  0.0430 -0.2032 -0.1946
32867W        W47998   1.914   9.368   5.327 -0.1340  0.2094 -0.0530
32868W        W47999  12.481   9.108  14.955  0.1795 -0.0882 -0.0124
32869W        W48000  10.938   5.742   2.383 -0.3470  0.2154  0.1512
32870W        W48001  13.666   7.223   4.054 -0.0030 -0.0282 -0.1817
32871W        W48002   0.237   6.401   2.700  0.0332  0.1847  0.0957
32872W        W48003  11.206   9.056  11.860 -0.1213 -0.3044  0.1735
32873W        W48004   3.338   6.320   4.595 -0.1739 -0.1630 -0.1106
32874W        W48005   3.914  15.690   5.433  0.0763 -0.2119 -0.0205
32875W        W48006   4.375   4.379  10.647  0.2946  0.0728 -0.2843
32876W        W48007  14.402   1.601  15.594  0.0902 -0.1448  0.1214
32877W        W48008   9.400  17.118   5.208 -0.0456  0.3343 -0.2043
32878W        W48009   6.352   0.872  13.496  0.3341 -0.0380  0.0898
32879W        W48010  13.408  15.961  15.330 -0.0401  0.3187  0.0065
32880W        W48011  10.025   6.819   2.434 -0.3601  0.1005  0.3489
32881W        W48012   1.339   8.549  12.272  0.2447  0.0373  0.1635
32882W        W48013  10.591  10.234   9.994  0.0192 -0.0767 -0.2045
32883W        W48014   9.664  13.187   4.335 -0.3564 -0.0684  0.2153
32884W        W48015  13.258  17.606  13.788  0.1675 -0.1109  0.0768
32885W        W48016   3.198   5.602  15.403  0.1213 -0.1301  0.1544
32886W        W48017  13.648  12.694   4.594 -0.2193 -0.1154 -0.0849
32887W        W48018   6.336   6.341   5.440  0.0587  0.4231 -0.1354
32888W        W48019   7.945  13.355   4.652 -0.1497  0.2051  0.0145
32889W        W48020  11.670  11.029  10.205  0.3879  0.1401  0.1265
32890W        W48021   0.702   9.891  15.263  0.2298  0.1004 -0.0080
32891W        W48022  11.578  16.642   4.455 -0.2270  0.3621 -0.3162
32892W        W48023   3.404  15.873   3.971  0.0637 -0.1340  0.1136
32893W        W48024  12.609  15.348   1.088  0.1563 -0.2081  0.0566
32894W        W48025  17.939  15.663   5.691 -0.0828  0.0169 -0.2191
32895W        W48026   1.781   3.435  15.511 -0.1909 -0.0482 -0.0231
32896W        W48027   7.172   0.373   4.535  0.1063 -0.1768 -0.2045
32897W        W48028   1.839  15.601  14.555 -0.1186  0.2022 -0.3086
32898W        W48029  17.368  14.167  13.128  0.1483  0.2278 -0.2782
32899W        W48030   3.894  14.935   4.922 -0.2448 -0.0193  0.0389
32900W        W48031  15.834  12.278   0.879  0.0465 -0.4072 -0.0406
32901W        W48032  16.560   2.201   0.052  0.0267  0.2820 -0.2662
32902W        W48033  10.630   8.124  15.198 -0.0062 -0.1468 -0.2040
32903W        W48034   1.233   0.175   4.262 -0.0331  0.0267 -0.3986
32904W        W48035  10.258   1.690  10.926 -0.3399  0.3512 -0.0940
32905W        W48036  11.049   4.429   2.656  0.0704  0.0562  0.0373
32906W        W48037  14.398   4.370  14.710 -0.2290  0.0387  0.1555
32907W        W48038  14.057  13.690  14.801 -0.0445 -0.1966 -0.1230
32908W        W48039  10.316   3.113  10.176 -0.0019  0.0164  0.2200
32909W        W48040   5.006   6.181  14.899 -0.4199 -0.1487  0.0363
32910W        W48041  11.094   1.102  10.665  0.0698  0.0585 -0.0261
32911W        W48042  10.285   8.216   1.133 -0.0965 -0.0879 -0.2573
32912W        W48043   4.406   6.709  15.160  0.0055  0.4509 -0.0219
32913W        W48044  13.805  13.245  14.782  0.0034  0.3138 -0.1177
32914W        W48045   4.139  17.411   2.962 -0.0173 -0.2050  0.2280
32915W        W48046   5.359   9.851  14.556  0.1868 -0.2324 -0.1788
32916W        W48047   6.676   9.402  13.344  0.3668  0.2127  0.1291
32917W        W48048   4.227   0.302   5.203 -0.0132 -0.1626 -0.1807
32918W        W48049  11.964   4.209   9.986 -0.1228  0.1542  0.0267
32919W        W48050  10.604  18.295   0.446  0.0354  0.0578 -0.4572
32920W        W48051   7.683   5.051   1.600 -0.1780  0.2461  0.1824
32921W        W48052  15.414  16.099   1.016 -0.2079 -0.1243  0.1369
32922W        W48053   2.820   2.913  11.642  0.5387  0.3512 -0.1316
32923W        W48054   6.080   1.655  12.581 -0.5409 -0.4842  0.1147
32924W        W48055  13.336  17.541  12.762  0.1043  0.4535 -0.0877
32925W        W48056   6.301  10.762   5.274  0.2377 -0.1847  0.1012
32926W        W48057  10.461  14.972   2.690  0.0719  0.2113 -0.0836
32927W        W48058  13.776   4.324  10.959 -0.1209  0.0158  0.0185
32928W        W48059   2.132   9.435  13.504 -0.1022  0.0382  0.4483
32929W        W48060  14.478   1.734   5.790  0.0231  0.1750  0.1676
32930W        W48061   2.661   0.668  10.841  0.0205  0.2516 -0.2357
32931W        W48062   1.202  12.055   4.648 -0.0578 -0.0302 -0.0031
32932W        W48063  12.980  15.175  10.773 -0.2225  0.0382 -0.3684
32933W        W48064   5.674   7.725   6.136  0.3308 -0.3532 -0.2511
32934W        W48065   1.696  16.456   2.999 -0.2286  0.0831  0.2335
32935W        W48066  15.785  15.649   1.369  0.1913  0.2388 -0.1353
32936W        W48067  18.005  13.376  13.727  0.0716  0.3922 -0.1502
32937W        W48068  12.396   5.382  14.384  0.0689 -0.1692  0.0861
32938W        W48069   4.209  11.471  13.211 -0.2406 -0.1191 -0.0051
32939W        W48070  12.621   2.827  12.102  0.4441  0.2327 -0.1531
32940W        W48071   2.331   3.432  11.070 -0.2746 -0.2340  0.1579
32941W        W48072  16.341  10.361   0.713 -0.0372 -0.0692 -0.0425
32942W        W48073   2.644  10.838   0.699  0.1081  0.0465 -0.0692
32943W        W48074  16.272   0.823  14.304  0.0471 -0.1626 -0.2185
32944W        W48075   4.602   5.262  14.103  0.0715 -0.3630  0.0923
32945W        W48076   2.495  14.787   4.166  0.1143  0.1244 -0.0878
32946W        W48077   5.851  11.955  15.216 -0.1013  0.3805 -0.0043
32947W        W48078   0.572  17.634   1.845 -0.0194 -0.0596 -0.0158
32948W        W48079  12.323  11.782   4.318  0.1343  0.1713  0.1030
32949W        W48080   2.051  18.436  13.100 -0.0319  0.1492 -0.0576
32950W        W48081   2.249   7.478   0.583 -0.0274  0.1981 -0.0251
32951W        W48082  15.091   6.648   2.405  0.0572 -0.0217 -0.0187
32952W        W48083   4.052  12.567   5.431 -0.4785 -0.0487  0.0723
32953W        W48084  16.236   9.930   4.535  0.1143  0.2415 -0.1881
32954W        W48085   2.603   2.520  11.934  0.0742 -0.1396 -0.2072
32955W        W48086  18.371   6.674  15.534 -0.1951 -0.1093  0.3404
32956W        W48087  10.254   6.626   5.433 -0.0998 -0.2358 -0.0358
32957W        W48088   9.380   5.273  12.646 -0.2495 -0.3273 -0.1573
32958W        W48089  18.514   4.012   5.855  0.2225 -0.0802 -0.1917
32959W        W48090   0.086   5.935  13.420  0.0559  0.1572 -0.2859
32960W        W48091  10.671  13.347  13.574  0.4318 -0.0027 -0.3449
32961W        W48092   7.431  13.648  11.112 -0.2345  0.1388  0.3117
32962W        W48093  14.882   1.464  12.158 -0.0719 -0.3366  0.1512
32963W        W48094  11.378  16.142   1.042 -0.1176  0.0968 -0.0290
32964W        W48095  17.102  15.958   3.107 -0.3408  0.0390 -0.1487
32965W        W48096   1.941   7.625  11.499 -0.2653  0.3039  0.0668
32966W        W48097   5.700  12.129   4.540  0.1109  0.0819  0.2303
32967W        W48098   3.923  10.239   5.273  0.0202  0.0643  0.4255
32968W        W48099  16.476   4.945   3.213  0.3505  0.1107 -0.1158
32969W        W48100  16.338   8.220  15.200  0.1322  0.0164 -0.0309
32970W        W48101  11.580   3.316  14.857  0.0912 -0.0428  0.1943
32971W        W48102   5.871   3.193  15.738  0.2309  0.2486 -0.0488
32972W        W48103  10.431   9.774   2.166 -0.2373 -0.0355 -0.0279
32973W        W48104   0.951  17.599  13.235  0.1642 -0.1153  0.1714
32974W        W48105   7.896   8.657   5.002 -0.1302 -0.3793  0.0867
32975W        W48106  16.747  14.628  13.847 -0.0984  0.1597  0.1724
32976W        W48107  11.891   0.651   3.380 -0.1145  0.0704  0.1123
32977W        W48108  18.377   4.747  11.591  0.2608  0.0770 -0.1896
32978W        W48109  17.001  15.808  11.013 -0.1280 -0.2023  0.1841
32979W        W48110  15.179  15.480   5.192  0.0272  0.2032  0.0250
32980W        W48111   4.666   5.658   3.144  0.4400 -0.1239 -0.1679
32981W        W48112   6.095   7.213   1.041  0.0834  0.4192  0.1130
32982W        W48113  12.977   2.814   2.633  0.0472 -0.4270 -0.1748
32983W        W48114  18.173   0.241  13.495  0.3629 -0.1696  0.0367
32984W        W48115   6.046   1.148   5.133 -0.0716 -0.0977 -0.0471
32985W        W48116  14.134   5.452   5.822 -0.1277 -0.2127 -0.0342
32986W        W48117  12.332   7.018   5.000  0.1373  0.1117 -0.2054
32987W        W48118   6.557  16.354  15.001  0.1160 -0.2585 -0.2307
32988W        W48119  12.624  17.178  11.979 -0.1640 -0.3964 -0.2401
32989W        W48120   1.622   4.741   3.361  0.1619 -0.3149 -0.1853
32990W        W48121  11.579   9.195  11.585  0.0215 -0.1191 -0.1256
32991W        W48122   1.593   6.927   4.281  0.0376 -0.2040  0.1313
32992W        W48123  11.103   0.355  11.091  0.1168 -0.1460  0.1193
32993W        W48124   7.526   4.650   3.781 -0.1368 -0.1418 -0.4419
32994W        W48125   0.702  18.220  11.382 -0.0091  0.1538  0.1877
32995W        W48126  10.676   3.418  10.444  0.0058  0.0175 -0.1352
32996W        W48127  17.025   6.568   5.003  0.0469 -0.0234 -0.1493
32997W        W48128  12.606   4.501  14.659  0.1759  0.2237 -0.2087
32998W        W48129   8.781   4.149  12.466  0.0853 -0.3430  0.1362
32999W        W48130   7.933   2.478   2.128 -0.1691 -0.2806 -0.3597
33000W        W48131  10.832   8.291   3.414  0.2265 -0.3202  0.0294
33001W        W48132  11.966   7.479   0.866  0.0409 -0.0514 -0.4264
33002W        W48133   5.568   7.146   2.925  0.1412 -0.0787 -0.4418
33003W        W48134   8.265   0.950   0.949  0.0259  0.1561 -0.1405
33004W        W48135   9.165  15.399  13.741  0.4958  0.0435  0.3145
33005W        W48136   9.910  17.420   2.779 -0.1025  0.0719 -0.0597
33006W        W48137  15.237   1.175   1.362  0.0262  0.0634 -0.0115
33007W        W48138   7.229  16.297  12.129 -0.1281  0.0588 -0.1439
33008W        W48139  14.880   4.584   0.374  0.1828 -0.1318  0.0233
33009W        W48140   7.878  17.048  10.537 -0.1942 -0.2617  0.1698
33010W        W48141   4.546  12.784   1.174  0.1115 -0.1512 -0.1538
33011W        W48142  12.161   6.196   0.603  0.2143  0.2108  0.1896
33012W        W48143   8.437   6.588  12.718 -0.2491 -0.1984 -0.0305
33013W        W48144   9.038   5.787   1.681  0.0502  0.1372  0.0335
33014W        W48145   0.334  17.067  13.684  0.2783 -0.0866  0.2998
33015W        W48146  16.372  18.475   4.015  0.1514  0.1575  0.3439
33016W        W48147   3.934   7.901  13.040 -0.1897  0.2896 -0.1531
33017W        W48148   0.106   4.120   9.902 -0.2798 -0.0275 -0.2168
33018W        W48149  17.854   6.632   1.028 -0.0725  0.2162  0.0156
33019W        W48150   7.349   8.986   2.435 -0.2572  0.0682 -0.1512
33020W        W48151  12.223  16.566   9.606 -0.0129 -0.3673 -0.2109
33021W        W48152   8.368  10.545  10.818 -0.2266 -0.1413  0.0902
33022W        W48153   8.169   0.944   4.451  0.2079  0.2557 -0.0440
33023W        W48154  17.706  16.821   1.751  0.0845 -0.0222 -0.1173
33024W        W48155  12.868   1.725  10.533  0.1005 -0.1045 -0.3169
33025W        W48156   2.591   5.680   0.045  0.1827  0.2403 -0.0816
33026W        W48157  15.901   2.959  14.456  0.0213  0.1761  0.1353
33027W        W48158   3.236   8.374  14.455 -0.1218  0.0278 -0.1293
33028W        W48159   6.007   2.231   3.544  0.2208  0.3336  0.1195
33029W        W48160   4.100   1.723   4.812 -0.1653  0.0678  0.1761
33030W        W48161   8.876   8.519   0.795 -0.2213 -0.1778 -0.1095
33031W        W48162  12.786   5.723  12.380  0.1491 -0.1725  0.1805
33032W        W48163   9.339  17.757  15.061  0.1423 -0.3093  0.2887
33033W        W48164  11.919  16.396  11.365  0.1340  0.1629 -0.1102
33034W        W48165   3.781  12.086  11.634  0.0740  0.0117 -0.1781
33035W        W48166  12.217  11.611  13.075 -0.1185 -0.0961 -0.0582
33036W        W48167   8.428   7.620   1.800  0.5118 -0.1138 -0.2328
33037W        W48168   8.918   8.855   2.485  0.0993  0.2291 -0.2374
33038W        W48169  14.163  15.047  15.542  0.0016 -0.0538 -0.2011
33039W        W48170   6.564   3.152   2.042 -0.1206  0.1162  0.0469
33040W        W48171  13.604   9.907  15.566 -0.0137 -0.0309  0.1847
33041W        W48172   4.324   1.543   3.433 -0.0432  0.2261 -0.1333
33042W        W48173   2.517   2.648  10.585 -0.3594 -0.2285 -0.0439
33043W        W48174   7.277   2.653  12.490 -0.1920 -0.2257  0.1628
33044W        W48175  16.458  10.299   4.329 -0.0862 -0.1195  0.0246
33045W        W48176  18.345   6.671   4.503  0.0168  0.0082 -0.0097
33046W        W48177   1.823   7.095  14.649 -0.1994 -0.1412  0.0498
33047W        W48178   4.821  14.752  10.285  0.1368  0.0632  0.3238
33048W        W48179  10.228  15.999  14.696  0.0534  0.2502 -0.2055
33049W        W48180  11.869   4.550   5.527 -0.0849 -0.0711  0.0967
33050W        W48181  17.905  14.755  13.380 -0.1992  0.1557 -0.0842
33051W        W48182  18.268   1.009  15.025 -0.0319  0.0553  0.2680
33052W        W48183   1.336  12.756   5.416  0.3560  0.1587 -0.0457
33053W        W48184   8.655   6.313   0.603 -0.0856 -0.0555 -0.2822
33054W        W48185   8.913   3.052  11.537  0.0598  0.0437  0.0910
33055W        W48186  14.984   0.035   2.533  0.2875 -0.3319 -0.0529
33056W        W48187  15.333   6.811   0.916  0.0267 -0.1039  0.1256
33057W        W48188   1.800   1.302   4.342  0.0043  0.1551 -0.0417
33058W        W48189   6.715  15.794   4.573 -0.0734 -0.1001 -0.4723
33059W        W48190  16.091  13.583  13.438 -0.0001 -0.2247 -0.1773
33060W        W48191  17.237  18.486   1.141 -0.0060  0.0760 -0.0851
33061W        W48192   3.233   3.353  15.356  0.2429  0.0364 -0.1631
33062W        W48193   3.755  18.173   3.912  0.0256  0.1267  0.3162
33063W        W48194  15.669  10.803   4.020 -0.1197  0.1876 -0.5234
33064W        W48195  12.466  14.050   2.896 -0.2230 -0.0951  0.1795
33065W        W48196  10.400   5.077  12.784 -0.3319 -0.1017  0.2541
33066W        W48197  11.661   5.878   3.667  0.0240 -0.1503  0.2166
33067W        W48198  15.474   2.726   5.153  0.2757  0.2172 -0.2244
33068W        W48199  13.894   3.446   0.518 -0.0418 -0.0247  0.2708
33069W        W48200  13.405  16.666  11.668 -0.0222  0.0468 -0.0218
33070W        W48201   3.251   6.957  11.756  0.1014  0.0024 -0.6037
33071W        W48202  17.190  17.292   4.313 -0.3395 -0.0533 -0.1648
33072W        W48203  16.311   9.083  11.952  0.0491  0.1656  0.1099
33073W        W48204   3.089  18.513  14.006 -0.0808 -0.0437 -0.3348
33074W        W48205   0.424   6.312   5.252 -0.0337 -0.1509 -0.1557
33075W        W48206   3.379   4.588  15.269 -0.0526  0.0437 -0.0017
33076W        W48207   4.137  14.397  15.681 -0.1245 -0.0288  0.0410
33077W        W48208   0.202   9.193   1.384  0.0710  0.2069 -0.2200
33078W        W48209  12.227   4.548  14.370  0.2492  0.0399  0.1178
33079W        W48210   0.472   5.397  11.115 -0.1045  0.2845 -0.3634
33080W        W48211   9.362   0.429   4.701  0.3461 -0.2453 -0.0796
33081W        W48212  13.014   3.287  13.260  0.0815 -0.1708  0.0940
33082W        W48213   5.385  10.782  15.297 -0.3473 -0.1796  0.2021
33083W        W48214   6.647  15.755  11.994  0.2859 -0.1431 -0.1771
33084W        W48215  11.438   6.362  11.608 -0.2256 -0.4044  0.0191
33085W        W48216  11.190   6.301  13.279 -0.0957 -0.2117 -0.0127
33086W        W48217   7.230   2.602   2.218 -0.1513 -0.0448  0.0568
33087W        W48218   9.670  14.178   3.979 -0.4216 -0.2796 -0.2513
33088W        W48219   2.193   9.685   5.604 -0.0213  0.1301 -0.1107
33089W        W48220   3.991   8.878   4.971 -0.1705  0.0194 -0.1113
33090W        W48221   7.116  16.429  13.124  0.1082  0.1369  0.2271
33091W        W48222  11.350  14.514   4.788 -0.2610 -0.3926 -0.1915
33092W        W48223   4.551   0.651  15.577  0.1276  0.0125 -0.1389
33093W        W48224   0.498  13.419   0.310  0.3698  0.0569 -0.2103
33094W        W48225   0.674  13.468   2.110  0.0211 -0.1845 -0.2545
33095W        W48226   1.657  16.729   2.544 -0.1085  0.2103 -0.0687
33096W        W48227  17.042  12.387   0.445  0.0688 -0.2328  0.0303
33097W        W48228  15.228   6.596  12.059  0.2567  0.2914  0.2698
33098W        W48229   7.759   5.319  14.828 -0.1010  0.1398 -0.2067
33099W        W48230   2.370  16.528  10.674  0.2592  0.0803  0.1554
33100W        W48231  18.317   4.026  12.257  0.1555 -0.1832  0.2268
33101W        W48232  16.099   8.726  12.750  0.0664 -0.2625 -0.0213
33102W        W48233   1.435   8.682   2.553 -0.1876  0.1403 -0.1769
33103W        W48234   8.272   4.505   4.351 -0.2954  0.2309 -0.0464
33104W        W48235  15.401   4.000  13.503 -0.2260  0.0436 -0.1215
33105W        W48236   6.703   6.735   0.252 -0.1090  0.0068  0.1971
33106W        W48237  18.365   5.566   1.975  0.1208 -0.2278 -0.2299
33107W        W48238   4.026  14.479  11.829  0.2767  0.0740  0.2345
33108W        W48239   2.293   7.921   5.179 -0.0227 -0.0025  0.0032
33109W        W48240   9.197   1.522   4.281  0.0688  0.0816  0.1976
33110W        W48241   0.553   9.675   3.859 -0.0150 -0.0457  0.1377
33111W        W48242  15.959  10.383  14.100 -0.0336 -0.0076  0.0952
33112W        W48243   7.511   8.594  14.526 -0.1822 -0.1272  0.1037
33113W        W48244  12.646   7.320   4.356  0.0520  0.0267  0.2251
33114W        W48245  10.917  12.241  11.734 -0.1824 -0.2437 -0.1864
33115W        W48246   4.830  18.365  11.839  0.1457  0.2241  0.0371
33116W        W48247   1.780  15.242   4.403 -0.1735 -0.2762  0.2429
33117ION     NA48248   1.724  16.586   2.079 -0.0265 -0.0229  0.0605
33118ION     NA48249  18.315   9.485   5.819 -0.0017 -0.1582 -0.1090
33119ION     NA48250  10.454   5.206  13.307  0.2832  0.4198  0.2155
33120ION     NA48251   4.631   2.102   5.551  0.2862  0.2445 -0.1059
33121ION     NA48252  13.502   3.734   2.877  0.0460  0.1267 -0.1711
33122ION     NA48253   3.881  14.146  12.158  0.0204 -0.0054  0.0737
33123ION     NA48254   9.274  18.066  14.081  0.2096  0.0580  0.2421
33124ION     NA48255   2.631  15.123  14.731  0.1956  0.0010  0.0156
33125ION     NA48256  12.191   4.014   5.309  0.1659  0.1089  0.0025
33126ION     NA48257  18.462   5.951  10.007 -0.5199  0.0060  0.3905
33127ION     NA48258   2.335  16.482   0.132  0.2331 -0.0483  0.1391
33128ION     NA48259   5.454   0.081   5.446 -0.1995  0.2911 -0.4877
33129ION     NA48260  13.684   6.813  10.263 -0.0222  0.0183 -0.2001
33130ION     NA48261  13.697  11.488   9.834  0.1179 -0.2275 -0.1374
33131ION     NA48262  11.649   2.942   4.662  0.0494 -0.2134 -0.3966
33132ION     NA48263   5.157   2.519  12.847  0.1889  0.0249 -0.0395
33133ION     NA48264   9.401   2.161  10.048 -0.1367  0.1682  0.1351
33134ION     NA48265   9.762  14.492   9.343  0.2098 -0.0934 -0.0856
33135ION     NA48266   7.042  14.681   1.114 -0.1318 -0.2585 -0.1427
33136ION     NA48267  16.009   0.560   0.991 -0.2812  0.0646  0.2343
33137ION     NA48268   8.317   7.154   5.787 -0.3250 -0.0160 -0.1112
33138ION     NA48269   1.586   4.540   2.855  0.1030 -0.2217 -0.1748
33139ION     NA48270   0.381   1.800   5.857 -0.0900 -0.0293 -0.2913
33140ION     NA48271  14.213  10.420   1.777 -0.1459 -0.2463 -0.4905
33141ION     NA48272   0.133  12.837  10.470  0.3464 -0.2201  0.0574
33142ION     NA48273  10.600   0.273   3.673  0.3613  0.2114  0.4068
33143ION     NA48274  12.986   2.183  10.043  0.0640 -0.0538  0.2301
33144ION     NA48275  10.148  15.992   0.256  0.1133 -0.2240 -0.0163
33145ION     NA48276   2.102   1.267   0.549  0.1103  0.1146  0.1029
33146ION     NA48277  12.892  13.059   9.702  0.1057 -0.0545 -0.2013
33147ION     NA48278  13.884   0.439   6.116  0.0104 -0.0086 -0.0163
33148ION     NA48279  10.289   2.910   1.433 -0.2037 -0.2297 -0.3129
33149ION     NA48280  18.415   2.650   5.695  0.3721  0.0750 -0.1908
33150ION     NA48281  11.277   6.183  14.857  0.1437  0.2772  0.0742
33151ION     NA48282  18.068   4.814  10.173  0.0264  0.0510 -0.0641
33152ION     NA48283  10.549   9.145   3.155  0.1427  0.2107  0.1043
33153ION     NA48284   7.414   8.854  11.679 -0.1143 -0.5228  0.2870
33154ION     NA48285   9.526  17.544   1.980 -0.1337  0.1174 -0.0794
33155ION     NA48286   7.394  12.940   5.707  0.3921  0.0857 -0.0010
33156ION     NA48287  10.552   4.396   5.663 -0.2876 -0.0967  0.0308
33157ION     NA48288  13.130  14.040   5.863 -0.0256  0.1700 -0.1086
33158ION     NA48289  16.074  14.408   0.301 -0.1725  0.2162 -0.1774
33159ION     NA48290  18.093   1.617   1.688  0.1524 -0.3336 -0.1106
33160ION     NA48291  13.032  10.543   4.481 -0.2924  0.2025  0.1350
33161ION     NA48292   3.519  17.980  10.108  0.0831 -0.0641 -0.1840
33162ION     NA48293  16.387   8.497   3.137 -0.0072  0.1199 -0.1605
33163ION     NA48294  13.188  18.373  13.717  0.0887  0.3446  0.2100
33164ION     NA48295  18.438   2.210  13.271 -0.0073 -0.0630 -0.0268
33165ION     NA48296   6.120   7.360  10.212 -0.1473 -0.2429 -0.0785
33166ION     NA48297   4.959  14.775   0.769  0.5366  0.0295  0.0404
33167ION     NA48298  13.573  18.522   0.086 -0.0429  0.1106  0.2564
33168ION     NA48299   0.335  16.770   9.920  0.0027 -0.1099 -0.3116
33169ION     NA48300  14.596  18.511   3.324 -0.0801 -0.0087 -0.1244
33170ION     NA48301  13.202   0.305  10.173  0.0354 -0.0504  0.2492
33171ION     NA48302  14.862   2.776  15.490  0.1184 -0.0396  0.0959
33172ION     NA48303   9.207  18.391   9.622  0.0051 -0.0920 -0.2538
33173ION     NA48304  17.790  10.465   2.611  0.0353  0.1377  0.1589
33174ION     NA48305   9.037   4.177   3.461  0.2605  0.0060 -0.1167
33175ION     NA48306   9.273   1.622   5.283  0.0017 -0.0222 -0.2735
33176ION     NA48307   8.194  15.368  12.100 -0.1169  0.1232 -0.5040
33177ION     NA48308   5.092  14.910   5.469 -0.1408 -0.2090 -0.0189
33178ION     NA48309   5.835   0.527   9.720  0.3477 -0.0795 -0.1070
33179ION     NA48310  17.604   1.793  10.325 -0.2730 -0.1700  0.2493
33180ION     NA48311  13.246   7.058  14.560  0.2365  0.2303  0.1585
33181ION     NA48312   7.800   3.958  13.613  0.0136  0.2873  0.2002
33182ION     NA48313   6.599  18.394  13.363 -0.0415  0.0746 -0.1666
33183ION     NA48314  13.578   9.760  10.458  0.1818 -0.1584  0.0912
33184ION     NA48315  10.426   2.137  10.055  0.1218 -0.1685  0.0382
33185ION     NA48316  11.322   9.548  13.556 -0.1214  0.1255  0.0525
33186ION     NA48317   0.041  14.679   6.280  0.0712  0.0668  0.1795
33187ION     NA48318   8.705  11.556  10.044  0.4775  0.1448 -0.2317
33188ION     NA48319  18.020   5.416   3.794  0.0691 -0.1505  0.2336
33189ION     NA48320   8.263  13.689  15.127 -0.3800 -0.1191 -0.2956
33190ION     NA48321   9.525   1.468   1.947  0.2026 -0.0639  0.0456
33191ION     NA48322  12.310   9.657   5.425  0.3792  0.0176 -0.2244
33192ION     NA48323   9.695  14.145  10.088 -0.0461 -0.0461  0.2835
33193ION     NA48324  16.374   5.126  10.724  0.0957  0.1613  0.4226
33194ION     NA48325  17.215  18.313   0.068  0.2990  0.0204 -0.0233
33195ION     NA48326  14.145  14.891  10.069 -0.0794 -0.2284 -0.0880
33196ION     NA48327  14.912   5.543  10.038 -0.0233  0.0299 -0.2900
33197ION     NA48328   2.618  13.378  15.401 -0.0202  0.0154  0.2927
33198ION     NA48329   4.303   3.205  10.314  0.1679 -0.1707  0.0831
33199ION     NA48330  13.554   4.681  11.372 -0.1003 -0.2835 -0.1925
33200ION     NA48331   2.693   5.203  13.947 -0.1890  0.0067 -0.1844
33201ION     NA48332   1.760  10.522   6.144  0.1102  0.0019  0.0927
33202ION     NA48333  10.404  16.368   2.661  0.0349  0.0484 -0.0628
33203ION     NA48334  15.629   9.902  10.044 -0.1773  0.3377 -0.0936
33204ION     NA48335  17.915  14.331   5.100  0.2742  0.2144  0.2373
33205ION     NA48336   7.726   1.207   9.823 -0.0154 -0.2107  0.3861
33206ION     NA48337  14.111   2.595   5.458  0.1309  0.0803 -0.0736
33207ION     NA48338  10.498  12.696   1.117  0.0466 -0.1650 -0.0288
33208ION     NA48339  11.518   4.437   5.879 -0.3111  0.0163  0.2449
33209ION     NA48340  15.346   6.880  13.842  0.1703  0.0193  0.1497
33210ION     NA48341  12.773   1.259  10.274  0.3480  0.4457 -0.1666
33211ION     NA48342   0.167  15.563  10.628 -0.1717 -0.3149  0.0168
33212ION     NA48343  14.996   9.713  15.072 -0.0478  0.2701  0.1991
33213ION     NA48344  10.961  12.101   9.778  0.3139  0.3030 -0.0162
33214ION     NA48345  17.145   4.877  15.332  0.0563  0.0400 -0.2182
33215ION     NA48346  11.122  11.313   5.778  0.0860  0.1745 -0.2151
33216ION     NA48347   6.391  17.854   2.315 -0.2048 -0.1510  0.3531
33217ION     NA48348   1.583   3.710  10.112 -0.1899  0.0296  0.2699
33218ION     NA48349  12.294   5.157  15.490  0.1057  0.1441 -0.0781
33219ION     NA48350   0.348   2.282  15.206 -0.1937 -0.0386 -0.0872
33220ION     NA48351   3.399  12.099  12.386  0.4328 -0.2303  0.1964
33221ION     NA48352  16.653  15.163   2.479  0.0572  0.0460 -0.3819
33222ION     NA48353   3.916  12.877  10.465  0.0445 -0.1544 -0.1461
33223ION     NA48354  12.461  17.895  15.426 -0.3618  0.0542  0.1250
33224ION     NA48355   9.231   5.400   5.953  0.2020  0.2045 -0.1195
33225ION     NA48356  17.454   0.865  10.544  0.2028  0.1378  0.1176
33226ION     NA48357  15.040   1.870   0.774  0.2720  0.0844 -0.2835
33227ION     NA48358   9.754  16.178   5.439 -0.0390  0.1666  0.0303
33228ION     NA48359  15.186   7.293   6.068 -0.0497 -0.0741 -0.0720
33229ION     NA48360  12.923  12.604   3.066  0.4153 -0.2018 -0.0834
33230ION     NA48361   9.285  10.958   5.664  0.1377  0.0356 -0.3981
33231ION     NA48362  15.328   1.569   1.718  0.1102  0.4668 -0.3086
33232ION     NA48363  11.510  17.077  12.762 -0.1181 -0.0106  0.0181
33233ION     NA48364   6.171  10.370   5.998 -0.1915  0.3153  0.3999
33234ION     NA48365  14.455  17.416  10.261  0.4152  0.0834 -0.0959
33235ION     NA48366   6.844   4.791  11.692  0.0575  0.0153 -0.3166
33236ION     NA48367  16.645   8.818   6.312  0.0031 -0.0604 -0.3803
33237ION     NA48368   1.604  12.603  13.398  0.0344 -0.0555 -0.0078
33238ION     NA48369   3.809  11.526   5.889 -0.0708 -0.2662 -0.2662
33239ION     NA48370   2.523   4.563   2.738  0.1418  0.0856 -0.0403
33240ION     NA48371   7.618   2.297  11.281 -0.0152  0.2795 -0.2193
33241ION     NA48372  12.954   3.494  13.916 -0.1746  0.0576 -0.2358
33242ION     NA48373  13.942   4.607   3.141 -0.0808 -0.2835  0.0491
33243ION     NA48374   2.256  11.227   6.326  0.1063  0.0449  0.1878
33244ION     NA48375   1.393  16.496   0.509  0.1975 -0.0806  0.3288
33245ION     NA48376  18.395  18.147   5.420  0.1328 -0.1573  0.0923
33246ION     NA48377  13.928  18.099   5.928 -0.1342 -0.1529 -0.1545
33247ION     NA48378   2.419   1.060  15.600  0.0399 -0.0071 -0.3714
33248ION     NA48379  13.148   6.556   5.686 -0.2745 -0.1305  0.2979
33249ION     NA48380   4.304   0.216  12.439 -0.1305  0.2862  0.0244
33250ION     NA48381  17.349   9.557  10.421  0.2764  0.0039  0.0781
33251ION     NA48382   5.957  12.704   5.761 -0.3473  0.0205  0.1568
33252ION     NA48383  16.328  13.483   2.496  0.0091 -0.2038 -0.1161
33253ION     NA48384   5.655   4.894   4.845 -0.1196 -0.1101 -0.2452
33254ION     NA48385   5.766   4.388  11.984  0.0511  0.0254 -0.0185
33255ION     NA48386  14.477  13.498   9.753 -0.0211 -0.1670 -0.0377
33256ION     NA48387  16.015  12.622   2.035 -0.1297  0.2107  0.2848
33257ION     NA48388  14.379   8.683  10.178 -0.1008 -0.3615  0.2048
33258ION     NA48389   2.801   2.406  13.246  0.0011  0.3388 -0.0359
33259ION     NA48390  13.882  11.228   1.285 -0.1488 -0.4336 -0.3760
33260ION     NA48391  14.406  15.041   5.579  0.2381  0.2459  0.0263
33261ION     NA48392   1.748   0.298  10.868  0.2922  0.0026 -0.2319
33262ION     NA48393  13.287  10.406   5.679  0.1858 -0.1296  0.0168
33263ION     NA48394   3.961  13.608  14.125  0.0724 -0.1997 -0.2940
33264ION     NA48395  11.293   1.556  10.432 -0.0937  0.1190 -0.0840
33265ION     NA48396   7.918  15.900  15.620 -0.0225 -0.0083 -0.0304
33266ION     NA48397   2.641   2.784   1.434  0.1183  0.2924  0.0804
33267ION     NA48398  11.820  11.420   1.209  0.3976 -0.0693 -0.1814
33268ION     NA48399   8.409  16.358  14.347  0.1278 -0.1070 -0.1747
33269ION     NA48400   2.103  11.625  13.889 -0.3901 -0.1184  0.5318
33270ION     NA48401  10.039  12.341   9.843  0.0131  0.0421  0.2708
33271ION     NA48402  15.609  11.473   2.516 -0.0849  0.0139  0.0785
33272ION     NA48403   4.365   8.656  10.248  0.0193  0.1635  0.1791
33273ION     NA48404  12.980   5.496  10.073 -0.0110  0.0654 -0.0317
33274ION     NA48405  15.895   9.752   0.075 -0.1961  0.3137  0.4323
33275ION     NA48406  16.284  14.469   3.254 -0.0691  0.1808 -0.0287
33276ION     NA48407   1.592   8.340   3.472  0.0152 -0.1493  0.2393
33277ION     NA48408   2.618   2.930  10.152  0.1580 -0.1183 -0.1146
33278ION     NA48409   4.936   2.806   4.355  0.2246 -0.0833  0.0815
33279ION     NA48410   9.486   1.178  12.180  0.2179  0.2629 -0.3106
33280ION     NA48411  18.452   7.914   5.878  0.1515  0.2370 -0.0679
33281ION     NA48412   9.259  11.887   5.331  0.1870 -0.2872  0.1228
33282ION     NA48413   9.374  15.663  13.011 -0.0554 -0.0674 -0.0707
33283ION     NA48414   3.228   2.013   0.438 -0.1954 -0.0605  0.2296
33284ION     NA48415  12.939  11.032   0.506  0.0027 -0.2112  0.4254
33285ION     NA48416   3.464   3.957   4.778  0.0143  0.0282 -0.3395
33286ION     NA48417  12.950   3.265   1.509  0.1726 -0.1196 -0.1630
33287ION     NA48418  13.384  17.052  14.449 -0.0892 -0.2321  0.0549
33288ION     NA48419   8.953   6.409  14.178 -0.1204 -0.2948 -0.1916
33289ION     NA48420   5.763   4.906   1.617  0.1293  0.1658  0.2536
33290ION     NA48421  15.517   8.255  11.268 -0.4868  0.0176  0.0076
33291ION     NA48422  14.138   5.014  10.265  0.0266 -0.0939 -0.0144
33292ION     NA48423   0.715  12.190   4.341  0.1911  0.1000  0.1558
33293ION     NA48424   3.606  14.894  11.121 -0.0814 -0.0050  0.1699
33294ION     NA48425   8.224  12.357   6.041 -0.1217  0.4085  0.0868
33295ION     NA48426  17.371   4.175  10.516 -0.1569 -0.3622  0.1470
33296ION     NA48427   1.150   9.248   1.734 -0.1953  0.0206 -0.2461
33297ION     NA48428   5.210  16.344   4.321 -0.2734 -0.0526  0.1200
33298ION     NA48429   0.692   8.048   1.751 -0.3592  0.2120 -0.2616
33299ION     NA48430  14.083  11.357   3.703  0.0041 -0.1880 -0.2068
33300ION     NA48431   9.829  15.289   3.179 -0.0832 -0.3184  0.1350
33301ION     NA48432  17.623   1.722   6.069 -0.2827  0.2168  0.4394
33302ION     NA48433  12.265  17.301  10.205  0.0816  0.0058 -0.0006
33303ION     NA48434   2.557   3.826  10.171 -0.0806 -0.0203 -0.0587
33304ION     NA48435  14.617   0.508  12.348 -0.1002  0.2245 -0.2003
33305ION     NA48436   1.521   5.739   5.797  0.0497  0.3723  0.0365
33306ION     NA48437   0.127  15.808   2.481  0.1877  0.2147  0.1932
33307ION     NA48438   0.324   0.052  13.953 -0.3080  0.2665  0.0319
33308ION     NA48439  12.751   9.155   4.673 -0.0054 -0.0568  0.1845
33309ION     NA48440   3.685   8.475   9.985 -0.2788  0.0491  0.0510
33310ION     NA48441   4.004  12.716  10.005 -0.1023  0.0049 -0.0704
33311ION     NA48442   4.356  10.390   3.804 -0.2794  0.0597 -0.2301
33312ION     NA48443   3.716  17.132   9.788 -0.1262 -0.0659  0.2478
33313ION     NA48444   8.658   1.276  12.139  0.0373 -0.0969  0.2158
33314ION     NA48445   9.062  12.120  15.019  0.0046  0.3788  0.1249
33315ION     NA48446   6.332   5.740   1.270  0.0914 -0.0169  0.3105
33316ION     NA48447  14.422   3.495   9.909 -0.2317  0.2612  0.2549
33317ION     NA48448  14.748   5.091  13.763 -0.2606 -0.0029 -0.0828
33318ION     NA48449   3.747  13.187   3.035  0.2147  0.0795 -0.3425
33319ION     NA48450  16.820   7.162   5.986  0.0353 -0.0632  0.0308
33320ION     NA48451  13.982   7.698  15.486  0.0809 -0.1505  0.2889
33321ION     NA48452  15.582  10.751   5.901 -0.0263  0.2475 -0.0024
33322ION     NA48453  10.667   6.530   5.701 -0.1815  0.2300 -0.0111
33323ION     NA48454  16.352   6.918  14.829  0.3815  0.0706  0.0708
33324ION     NA48455  11.868  15.876   9.626 -0.2127 -0.2424  0.1762
33325ION     NA48456   2.662   5.469   5.383 -0.1060 -0.0765  0.0297
33326ION     NA48457   7.276   0.930   1.721  0.1605 -0.2307 -0.2827
33327ION     NA48458  14.923  18.252   9.930  0.3147 -0.1095  0.0365
33328ION     NA48459  10.279  13.292   9.678 -0.2050  0.2511 -0.0439
33329ION     NA48460   9.433   8.838  10.055 -0.0058 -0.1612  0.6020
33330ION     NA48461   6.954  16.068   3.184  0.2218  0.3165 -0.1065
33331ION     NA48462  13.420  14.687   9.723  0.0019 -0.1205  0.2117
33332ION     NA48463  16.546  10.848  10.194  0.2969  0.1039 -0.2466
33333ION     NA48464   1.984  11.564  10.307 -0.0383  0.2385 -0.0858
33334ION     NA48465   0.881  17.211   5.660 -0.1258  0.0656 -0.0371
33335ION     NA48466  14.362  16.867  15.441  0.1512  0.0532 -0.0642
33336ION     NA48467   1.720  12.852   5.702 -0.0289 -0.0825  0.0847
33337ION     NA48468  17.597   5.902   5.520 -0.0730 -0.2072  0.0396
33338ION     NA48469  11.338   1.148  15.435  0.1838  0.2178  0.0480
33339ION     NA48470   9.559  14.363   1.035  0.3593  0.0126  0.0276
33340ION     NA48471  15.030  11.523   9.652 -0.5317  0.1495 -0.2074
33341ION     NA48472  12.349  12.781   3.961 -0.3102 -0.0564  0.0666
33342ION     NA48473  12.246   0.693   2.408  0.2517  0.2568 -0.1715
33343ION     NA48474  16.702   4.037  13.469  0.1758  0.2027  0.2639
33344ION     NA48475  17.231   8.231  12.418  0.0371 -0.1049 -0.0462
33345ION     NA48476  16.447   6.500  10.456  0.1869  0.1096 -0.0231
33346ION     NA48477   9.458   6.287   3.988 -0.1108 -0.0382  0.2467
33347ION     NA48478  15.808   8.816   1.653 -0.2255 -0.1647  0.1634
33348ION     NA48479   7.104  16.647  12.557 -0.0757  0.2973 -0.2280
33349ION     NA48480  10.322  12.735   5.387  0.0480 -0.3625  0.1435
33350ION     NA48481   0.522  16.398   6.174  0.3080 -0.1180 -0.0366
33351ION     NA48482   2.459   6.896  10.018  0.4954 -0.0381 -0.0834
33352ION     NA48483   7.887   8.078   5.678 -0.1640 -0.0647  0.0434
33353ION     NA48484  15.800   2.754  10.752  0.1298 -0.1655  0.0171
33354ION     NA48485  13.963  10.144   9.707  0.0508 -0.0371  0.0101
33355ION     NA48486   8.913   4.376   5.977  0.1643 -0.0228 -0.2266
33356ION     NA48487  10.855  11.178   0.878 -0.2081 -0.0909 -0.0345
33357ION     NA48488  14.924   9.125  13.756  0.0711  0.0317  0.0976
33358ION     NA48489   9.813  17.690   9.626 -0.0263  0.1338  0.0830
33359ION     NA48490   1.826  17.114  14.115 -0.1280  0.1292 -0.2689
33360ION     NA48491  14.556  17.023   5.108  0.0782  0.0229  0.0159
33361ION     NA48492   2.315   9.917   5.186  0.2076  0.3736 -0.3937
33362ION     NA48493   8.671  10.044  12.252  0.0507  0.0484  0.2139
33363ION     NA48494   5.419   3.188   1.723  0.3004 -0.2161 -0.2062
33364ION     NA48495   1.466   7.651   0.845  0.0030  0.1722 -0.0533
33365ION     NA48496  17.061   3.206  14.782 -0.1012 -0.1352  0.0005
33366ION     NA48497   0.001   6.195  15.596  0.1017 -0.1398 -0.1257
33367ION     NA48498  16.288  16.974   6.164 -0.1405 -0.0560 -0.2015
33368ION     NA48499  18.227   8.108  10.582 -0.2418  0.1358  0.0141
33369ION     NA48500   2.743   8.616  10.436 -0.1040  0.0212 -0.1279
33370ION     NA48501   5.791  17.485   9.781  0.0452 -0.1514  0.2000
33371ION     NA48502   5.381  13.176   5.628 -0.1781  0.2833 -0.1150
33372ION     NA48503   1.936   4.373  14.508 -0.1473 -0.3663 -0.2461
33373ION     NA48504   1.073   0.215  10.114  0.1961  0.0119 -0.3292
33374ION     NA48505   4.460  15.778   9.890 -0.1006  0.0436  0.2567
33375ION     NA48506   7.709  13.532   9.954  0.1527  0.0786 -0.2345
33376ION     NA48507   4.257   5.377   5.943  0.1266  0.1611 -0.0431
33377ION     NA48508   1.986  17.542   5.959 -0.1603 -0.0720  0.4660
33378ION     NA48509   2.012  17.859   0.991  0.0309 -0.1633 -0.1620
33379ION     NA48510  16.864   2.708  14.092 -0.2231 -0.2318  0.0308
33380ION     NA48511   7.959  13.485   1.022 -0.1031  0.1023 -0.0983
33381ION     NA48512  12.721   9.078   5.528 -0.1207  0.4106  0.0685
33382ION     NA48513   6.928  10.152   5.909  0.1356 -0.1613 -0.2024
33383ION     NA48514  15.993   6.823   5.827 -0.2868 -0.3353  0.0968
33384ION     NA48515   4.215  10.657   6.042  0.1749 -0.3220 -0.3095
33385ION     NA48516   8.949   3.489   6.120  0.1204  0.0390  0.3484
33386ION     NA48517   7.273  13.197   9.908  0.1615  0.0378  0.0354
33387ION     NA48518   1.239   9.401   6.211 -0.1082 -0.1024  0.1394
33388ION     NA48519  17.042   3.596   5.713  0.3220 -0.0767  0.2277
33389ION     NA48520  12.876  11.036   9.800 -0.1568 -0.2191 -0.0028
33390ION     NA48521   2.454   3.479  11.612  0.3868  0.0417 -0.1236
33391ION     NA48522   7.017   1.715   4.450  0.3077 -0.2097 -0.0315
33392ION     NA48523   1.959   7.437   3.310 -0.1179  0.1319 -0.1314
33393ION     NA48524   1.793   6.007   9.829 -0.0229  0.1873 -0.1392
33394ION     NA48525  16.319   9.249  10.339 -0.2164 -0.1120 -0.0803
33395ION     NA48526   5.113   9.099  10.111 -0.2731 -0.0079  0.0263
33396ION     NA48527   2.875  17.200   9.826  0.1461 -0.2246 -0.0785
33397ION     NA48528  14.667  12.631   9.754 -0.1672  0.1012  0.0474
33398ION     NA48529   2.662   8.238   1.170 -0.0463 -0.2089 -0.0003
33399ION     NA48530  14.269   6.175  10.191 -0.0537 -0.1850  0.1166
33400ION     NA48531   8.003   5.987  10.105  0.2844 -0.3044 -0.0893
33401ION     NA48532  11.925  10.245   9.918  0.1338 -0.0228 -0.0278
33402ION     NA48533   3.175  11.668  10.171  0.3084 -0.0096  0.1545
33403ION     NA48534   5.247   5.547  10.290  0.0992  0.3413  0.0817
33404ION     NA48535  16.133   7.412  10.690 -0.0380 -0.0632 -0.4917
33405ION     NA48536   9.053   1.324   0.724  0.1265 -0.0262 -0.1608
33406ION     NA48537  17.844   3.560   5.355  0.2331  0.0855 -0.0778
33407ION     NA48538   6.598   4.710   6.170  0.1878 -0.1282 -0.0701
33408ION     NA48539   3.366   5.419   5.763  0.0429  0.1640  0.1560
33409ION     NA48540  10.349   7.473   2.061  0.1557 -0.1047  0.0729
33410ION     NA48541   7.320  16.007  11.072 -0.0990  0.1436  0.0105
33411ION     NA48542  11.057   7.543  14.253  0.0488 -0.3411 -0.0267
33412ION     NA48543   5.690  17.099  13.907  0.3509  0.0222 -0.2695
33413ION     NA48544   7.902   5.509   0.251  0.0387  0.0989  0.1340
33414ION     NA48545   9.397   8.856   2.059 -0.0923  0.2763  0.1451
33415ION     NA48546  11.621   3.507  11.532  0.4112  0.0392 -0.1056
33416ION     NA48547  17.611  18.508   6.248  0.2508  0.0421  0.2264
33417ION     NA48548  10.915   1.727   2.051  0.0167  0.0393  0.1845
33418ION     NA48549   9.086  13.210  14.001 -0.0813  0.0959 -0.3010
33419ION     NA48550   5.096  13.363   5.142  0.1826 -0.1250 -0.1187
33420ION     NA48551  12.540   4.765   5.079 -0.0145  0.0670 -0.3237
33421ION     NA48552   2.805   9.719   5.293 -0.0594 -0.0226  0.0729
33422ION     NA48553   4.499   8.838  12.696 -0.0865  0.0504  0.0297
33423ION     NA48554   8.052  11.421   6.082 -0.0055  0.0075  0.0723
33424ION     NA48555   6.485  17.116   2.990  0.2038  0.0263 -0.2282
33425ION     NA48556  16.974   4.956  10.259  0.2086  0.1191  0.0501
33426ION     NA48557  15.390   4.853   5.141  0.1049 -0.1773 -0.0392
33427ION     NA48558  12.953  15.165  13.549 -0.0463 -0.3289  0.0474
33428ION     NA48559  16.909  13.707   2.086  0.0211 -0.0199 -0.0350
33429ION     NA48560   8.081  16.847   4.941 -0.1777 -0.2667  0.0601
33430ION     NA48561   6.766   6.196   5.593 -0.0794 -0.3248  0.0550
33431ION     NA48562  11.014  14.990   9.250 -0.1329  0.2606 -0.1063
33432ION     NA48563   8.273   1.846  12.823  0.3778 -0.1289 -0.1915
33433ION     NA48564  16.845   1.759   5.763  0.0313 -0.4430  0.2157
33434ION     NA48565   1.545  17.648   9.986  0.1986 -0.0620  0.4043
33435ION     NA48566  13.643  18.009   1.259  0.2356  0.0899 -0.1726
33436ION     NA48567   4.969  16.328   5.695  0.0465 -0.0601  0.2729
33437ION     NA48568   1.546   1.196  10.268  0.5525  0.1474  0.0712
33438ION     NA48569   5.769   5.600  10.496  0.1242  0.1899  0.1282
33439ION     NA48570   5.304   0.988   3.788 -0.0879 -0.0045  0.0556
33440ION     NA48571   3.849  18.113  11.044  0.0225 -0.1646  0.1321
33441ION     NA48572  16.859  16.913   0.634 -0.0173  0.2155  0.1900
33442ION     NA48573   3.998   5.966  10.259 -0.0683 -0.2326  0.3104
33443ION     NA48574   8.904   0.744   5.415  0.0987  0.2216  0.0203
33444ION     NA48575   4.168  16.791  12.267  0.1634  0.1997 -0.1959
33445ION     NA48576   3.201  16.344   9.805  0.0080  0.1268 -0.3077
33446ION     NA48577  13.564  14.535   5.606 -0.1326 -0.0012 -0.1448
33447ION     NA48578  16.619   8.291   0.050  0.3306 -0.4020  0.3271
33448ION     NA48579  18.246   3.830  14.850 -0.1322  0.1647  0.0363
33449ION     NA48580  11.859   4.068   1.653 -0.2051  0.0795 -0.0530
33450ION     NA48581  11.539   8.709   5.316 -0.1026 -0.2917  0.1366
33451ION     NA48582  11.191   2.859  10.088  0.0313  0.2968  0.0385
33452ION     NA48583  18.170  11.398   5.284  0.0511  0.1118 -0.1206
33453ION     NA48584   5.076   2.152   1.310 -0.1102 -0.4058  0.1810
33454ION     NA48585   8.394   4.276   3.581 -0.0968  0.1278 -0.1261
33455ION     NA48586   5.857  18.280  13.877  0.3359 -0.1851 -0.0398
33456ION     NA48587   8.468  15.718   9.510  0.0321 -0.0668 -0.2310
33457ION     NA48588  16.224   3.399  15.321  0.0109  0.0402 -0.3176
33458ION     NA48589  15.220   9.218  10.764 -0.1802  0.0282 -0.1204
33459ION     NA48590   0.274  10.699  10.368 -0.0274 -0.0393 -0.0612
33460ION     NA48591  12.112   3.919   2.904 -0.1062 -0.2362  0.1047
33461ION     NA48592   7.057   6.945  10.367 -0.4829 -0.1786  0.2174
33462ION     NA48593  11.411   7.444  13.658  0.0703 -0.3481 -0.1625
33463ION     NA48594  16.996  17.282   3.775  0.0545 -0.0537  0.1362
33464ION     NA48595   3.415   7.258   9.948 -0.0418 -0.1902  0.2881
33465ION     NA48596  16.453   5.985   1.102 -0.0664  0.2577  0.2934
33466ION     NA48597  17.226  14.227   6.497 -0.1019 -0.1446 -0.0558
33467ION     NA48598   6.321  14.735   5.863  0.1992 -0.2968  0.3669
33468ION     NA48599   5.216  16.681   1.166  0.1873 -0.0136  0.2465
33469ION     NA48600  15.687  11.091   3.436  0.0603 -0.1356 -0.2979
33470ION     NA48601   5.464  18.146  13.108  0.3749  0.1168  0.1759
33471ION     NA48602   9.935  17.757  10.517 -0.0329  0.2290 -0.2370
33472ION     NA48603   1.263   0.623   4.055 -0.0360  0.1156  0.3065
33473ION     NA48604  16.981  12.582  14.675  0.0397 -0.0979 -0.3521
33474ION     NA48605  13.803  10.793   5.494  0.0890 -0.2105 -0.1003
33475ION     NA48606   0.709   2.459  10.174  0.3219 -0.1882 -0.0894
33476ION     NA48607  10.126   8.438   4.591  0.0875 -0.2445  0.0654
33477ION     NA48608  10.434   9.036   9.793  0.2077 -0.2024 -0.3447
33478ION     NA48609  11.340  11.049   9.877  0.2676 -0.1091 -0.2334
33479ION     NA48610   0.532  14.928   3.974  0.0833  0.0894 -0.1206
33480ION     NA48611  10.678  14.293   1.943  0.2542  0.0642 -0.2105
33481ION     NA48612  12.591   7.955   5.026 -0.0815  0.0002 -0.0948
33482ION     NA48613  14.991  15.597  10.177 -0.0867  0.0616 -0.1006
33483ION     NA48614  11.208  13.025   9.548  0.2332  0.1903 -0.0168
33484ION     NA48615   9.192  18.293   3.397 -0.0444  0.1217 -0.4372
33485ION     NA48616   3.624   5.315   0.699  0.1246  0.1430 -0.1263
33486ION     NA48617  11.148   6.891   9.952  0.1705  0.2583  0.2278
33487ION     NA48618   9.522   7.821  10.356  0.1651  0.1670 -0.0712
33488ION     NA48619  13.690   1.425  10.103  0.1119 -0.1123 -0.0545
33489ION     NA48620  13.117  18.527   5.101  0.0677  0.0794 -0.1137
33490ION     NA48621   7.064   8.815  13.224  0.2324 -0.1559 -0.0965
33491ION     NA48622   0.253   2.464   0.951 -0.2321  0.0373  0.3100
33492ION     NA48623  16.419  12.456   3.119 -0.1093  0.1415  0.1285
33493ION     NA48624   8.660  11.604  15.824  0.2825  0.0495  0.1228
33494ION     NA48625  18.359   6.784  10.397  0.2448  0.3363 -0.0634
33495ION     NA48626  16.192  10.801   2.096  0.3030 -0.1052  0.1791
33496ION     NA48627  13.175   2.857  12.114 -0.1046  0.0371  0.1270
33497ION     NA48628   1.691   1.971   5.797  0.3374 -0.2626  0.1087
33498ION     NA48629   2.629  13.383   2.005 -0.0901 -0.4609  0.0113
33499ION     NA48630   7.406  14.383  12.737 -0.1376  0.2954  0.2191
33500ION     NA48631  13.253  10.179  12.969  0.1793  0.1256  0.2994
33501ION     NA48632   5.651  14.414   2.663  0.1354 -0.2668 -0.0570
33502ION     NA48633  13.507  17.715   0.163 -0.1069 -0.1690  0.0873
33503ION     NA48634  16.089  12.329   5.892 -0.0094 -0.1159  0.1716
33504ION     NA48635   0.861   0.014  15.537 -0.1473  0.1412  0.0302
33505ION     NA48636  12.733  15.528   5.551 -0.1058 -0.1550  0.1607
33506ION     NA48637   4.349   3.473  14.748  0.1230 -0.2214 -0.1634
33507ION     NA48638  14.042   2.589   9.990  0.2143  0.0992  0.2392
33508ION     NA48639   8.281   6.257   2.262  0.1792  0.2346 -0.0627
33509ION     NA48640  10.142  15.073   9.345 -0.2767  0.0830  0.2557
33510ION     NA48641  16.966  15.139   3.432  0.1578 -0.1617  0.2428
33511ION     NA48642  17.500  18.105  10.265 -0.0414 -0.1320  0.0885
33512ION     NA48643  15.815  13.396  10.414  0.1392  0.1640  0.4728
33513ION     NA48644   1.771   8.789  10.385  0.4431 -0.0629  0.5768
33514ION     NA48645   4.529  18.141   5.066 -0.4934  0.0466  0.3129
33515ION     NA48646   0.361  10.278   5.107 -0.0215 -0.2630 -0.3459
33516ION     NA48647   0.226  11.170   4.245  0.1147  0.0458 -0.1847
33517ION     NA48648  12.450   0.105  12.806 -0.3565 -0.0217 -0.0545
33518ION     NA48649  11.515   6.771   5.713 -0.2333  0.3404 -0.0755
33519ION     NA48650  18.521   9.291   2.516  0.0339  0.1293  0.2195
33520ION     NA48651   0.216  15.793   6.106 -0.1336 -0.4625  0.0694
33521ION     NA48652  17.454   6.400   1.553 -0.3747  0.0810 -0.1438
33522ION     NA48653  18.425   5.434   4.167  0.1724  0.0957  0.1433
33523ION     NA48654   4.991  17.951   9.959 -0.0716 -0.2032 -0.1348
33524ION     NA48655  15.744   3.052   0.803  0.0125  0.0566  0.2520
33525ION     NA48656  15.775   3.749   4.339  0.1683 -0.0526  0.0349
33526ION     NA48657   4.072  12.579   2.082 -0.1729 -0.0260 -0.0674
33527ION     NA48658   4.002   6.790   9.930  0.3507 -0.0927  0.2950
33528ION     NA48659  10.721  15.571  13.935  0.0011  0.0978  0.1544
33529ION     NA48660  17.029   7.483   0.088 -0.0515 -0.0429  0.2699
33530ION     NA48661  13.774   5.855  10.058  0.3022  0.3728  0.0436
33531ION     NA48662  10.250  10.817   3.635  0.4243  0.2434  0.1382
33532ION     NA48663  10.011   5.326   3.205  0.4036  0.2857 -0.1996
33533ION     NA48664   2.815  17.518   5.972  0.0978 -0.3069 -0.1080
33534ION     NA48665   5.625  15.502  15.500  0.0269 -0.3442  0.0759
33535ION     NA48666   9.334  10.727  14.979 -0.0026  0.1608  0.1061
33536ION     NA48667  18.177   8.491   0.397  0.2276 -0.2229  0.0835
33537ION     NA48668   0.915  17.586   2.661 -0.0384 -0.2368 -0.3471
33538ION     NA48669   8.030  13.654   5.490  0.1061 -0.0142  0.0129
33539ION     NA48670   4.789  13.455  15.841 -0.1220  0.0350  0.0777
33540ION     NA48671  14.219  13.642  15.878  0.0563  0.3759  0.0527
33541ION     NA48672   2.177   0.492   9.853 -0.1300  0.1334 -0.0178
33542ION     NA48673  11.753  13.354  13.562  0.0400 -0.0482 -0.0334
33543ION     NA48674  13.516  11.337  15.139 -0.1726  0.0491  0.2832
33544ION     NA48675  11.408  17.966   0.346 -0.1089  0.4446 -0.0683
33545ION     NA48676   9.715   9.680   9.765 -0.2671 -0.3581  0.0285
33546ION     NA48677  11.644   9.232   3.212  0.0291  0.1290  0.1655
33547ION     NA48678  11.943  12.196   9.989 -0.0253 -0.0121  0.1857
33548ION     NA48679  13.214   5.537  14.668 -0.2093  0.0697  0.0579
33549ION     NA48680  16.366  13.231  12.109  0.1307 -0.0678 -0.2651
33550ION     NA48681   1.786   2.818   0.267 -0.1475  0.0377  0.0491
33551ION     NA48682  15.609  11.266   5.918  0.2262  0.0187 -0.2734
33552ION     NA48683  13.138  12.708   5.582  0.1190  0.1986  0.2117
33553ION     NA48684  10.066   7.344   5.531 -0.2273  0.0908 -0.0674
33554ION     NA48685   3.438   4.366   5.922 -0.0584 -0.0797  0.0729
33555ION     NA48686   7.277  12.224  13.757  0.0635 -0.3074  0.3128
33556ION     NA48687  14.105  12.315   5.652  0.1875  0.1719 -0.1800
33557ION     NA48688   1.969   1.921  10.264 -0.3528 -0.0746 -0.0068
33558ION     NA48689   8.121   9.037   5.274 -0.0520  0.1757  0.0467
33559ION     NA48690  17.873   8.142  12.089 -0.1675 -0.3491 -0.0014
33560ION     NA48691  12.199   1.991  11.865  0.2695  0.0398 -0.3060
33561ION     NA48692   5.056   6.469  10.849  0.0646  0.0372 -0.2605
33562ION     NA48693   8.045  16.582   9.867 -0.2573 -0.1327  0.2635
33563ION     NA48694  10.694  11.346  11.668  0.0081 -0.1035 -0.1097
33564ION     NA48695   8.841   2.271   2.104 -0.1822 -0.2290  0.1725
33565ION     NA48696  10.280  11.194   5.467 -0.1347  0.2970  0.2607
33566ION     NA48697   8.627   2.695  15.729 -0.0429 -0.0941  0.1099
33567ION     NA48698  15.941  11.397   9.872  0.0951  0.2610 -0.1315
33568ION     NA48699   5.409   2.058  10.220 -0.0142  0.0454 -0.2054
33569ION     NA48700  16.535  13.533   0.965  0.0185  0.0114 -0.3451
33570ION     NA48701   6.330   3.273   6.019 -0.1008 -0.2375  0.1120
33571ION     NA48702   6.974  16.798   1.496  0.2687 -0.5411 -0.2611
33572ION     NA48703   6.871  15.829   0.594  0.3016  0.0878 -0.0836
33573ION     NA48704  15.542   6.462  10.287 -0.1982  0.0999  0.3730
33574ION     NA48705  17.198  18.155  14.675  0.2538  0.2021  0.0263
33575ION     NA48706  15.266  14.066  10.196  0.0833 -0.1813 -0.0039
33576ION     NA48707  10.060  10.386  15.644 -0.2795  0.1132 -0.0366
33577ION     NA48708   7.326   9.410   5.602  0.0372 -0.0217  0.0012
33578ION     NA48709  17.204  14.550   0.382  0.5773 -0.0589  0.2463
33579ION     NA48710   6.394   0.777   2.360 -0.0487 -0.2653  0.1041
33580ION     NA48711   0.513   6.561   3.864  0.0533 -0.0136 -0.1589
33581ION     NA48712   5.013  11.195  13.639 -0.1068  0.0337  0.0824
33582ION     NA48713   8.577   4.576   5.227  0.0910 -0.0998  0.0925
33583ION     NA48714  11.185   8.788   0.502  0.0200 -0.2140  0.1023
33584ION     NA48715  10.509  11.135   9.840 -0.3594  0.3034  0.1207
33585ION     NA48716   0.556   9.819  13.833  0.2072  0.0319  0.1881
33586ION     NA48717   7.422   9.701   4.543  0.0712 -0.0474  0.0339
33587ION     NA48718   6.218  12.434   0.064 -0.1256  0.1802 -0.0638
33588ION     NA48719  12.310  14.258   5.583  0.2039 -0.0284 -0.0768
33589ION     NA48720  14.579  14.182   2.267  0.1146 -0.2267 -0.1002
33590ION     NA48721  14.726  15.180  14.803  0.1296  0.0891  0.4695
33591ION     NA48722   5.549   6.201  15.651  0.0680 -0.0277 -0.1468
33592ION     NA48723  13.015  16.167   4.305 -0.1826 -0.3961  0.2067
33593ION     NA48724   0.175  11.539  10.358 -0.0664 -0.0037  0.1468
33594ION     NA48725  13.997  13.894   3.351 -0.0268 -0.2413 -0.0890
33595ION     NA48726  11.953  14.849   9.407 -0.0594  0.2261 -0.0133
33596ION     NA48727  13.582   8.784   5.749  0.1969 -0.0030 -0.0389
33597ION     NA48728  14.073   7.560   3.262  0.1960  0.1597 -0.0628
33598ION     NA48729   2.128   5.709   3.127 -0.0888  0.2451 -0.1030
33599ION     NA48730  15.562  11.411  12.594  0.0368  0.1092 -0.1409
33600ION     NA48731  13.973  14.948   0.197  0.0220 -0.0174  0.1946
33601ION     NA48732  17.976  17.187   5.906  0.0276 -0.1821 -0.3729
33602ION     NA48733  16.101   3.417   5.808  0.0868 -0.0426 -0.2161
33603ION     NA48734  12.577  16.937   0.974 -0.4337 -0.1462  0.0291
33604ION     NA48735   8.216  17.321   4.499  0.0017 -0.3003  0.2280
33605ION     NA48736   1.373   1.967   2.932 -0.0273  0.0704  0.2754
33606ION     NA48737  16.463   1.920  10.715  0.1394  0.0173 -0.0597
33607ION     NA48738  12.868  16.414  15.231 -0.0059 -0.0183  0.0268
33608ION     NA48739   3.444   5.942  10.229 -0.0719 -0.0018  0.0824
33609ION     NA48740  13.716   5.659   4.767  0.0389  0.1788  0.0639
33610ION     NA48741   9.699   3.474   5.570 -0.1828  0.0006 -0.1344
33611ION     NA48742  13.682  12.707  10.151  0.0632  0.3612  0.1152
33612ION     NA48743   1.148  14.296  12.676  0.0449  0.1277 -0.0792
33613ION     NA48744   6.832   4.655   3.122  0.0046  0.1886  0.3767
33614ION     NA48745   5.765   7.481   0.782  0.0292 -0.3039 -0.1462
33615ION     NA48746   3.854  14.556   9.841 -0.0366  0.2808  0.3452
33616ION     NA48747  13.741  13.641  12.892  0.1311 -0.3911  0.1384
33617ION     NA48748   4.676  10.396  10.199  0.0982 -0.2275 -0.2059
33618ION     NA48749  15.719  16.807  10.398 -0.0778 -0.0380  0.2151
33619ION     NA48750  18.472  12.288   6.451 -0.0513  0.2181 -0.0564
33620ION     NA48751   3.633   4.867  10.211  0.1882  0.0407 -0.1063
33621ION     NA48752   7.333  12.772   2.074 -0.0272 -0.0342 -0.2795
33622ION     NA48753   9.128  15.136   9.571 -0.1773  0.3054 -0.0083
33623ION     NA48754   2.202  10.733   2.580 -0.2038 -0.0308 -0.3045
33624ION     NA48755   8.791   5.527  10.002 -0.0827  0.0387 -0.1103
33625ION     NA48756  10.314  13.911  12.839  0.0491  0.1941 -0.1895
33626ION     NA48757   3.672  16.600   1.307  0.1559 -0.0219  0.3359
33627ION     NA48758   6.891   0.685   4.855  0.0201  0.1881 -0.0439
33628ION     NA48759   9.427  14.689   2.077  0.0022  0.2761 -0.2275
33629ION     NA48760  16.227  13.988   6.190 -0.0220  0.4638 -0.0122
33630ION     NA48761  17.024   5.362   2.607  0.1440  0.1596  0.2167
33631ION     NA48762   2.375  15.828   4.080  0.2424 -0.1749 -0.0160
33632ION     NA48763  16.070   2.470   6.003 -0.0954  0.1774  0.0688
33633ION     NA48764   1.377   9.166  10.455 -0.0933  0.0616  0.1629
33634ION     NA48765  17.084  14.835   4.745  0.1908  0.1401  0.1370
33635ION     NA48766  11.120  13.795   9.924  0.2156  0.0106 -0.1467
33636ION     NA48767  17.762   3.754   1.071  0.1051 -0.0262 -0.0151
33637ION     NA48768   2.397  11.011  10.383 -0.2542  0.1539 -0.3768
33638ION     NA48769  12.796   2.414   4.428 -0.1197 -0.1043 -0.0052
33639ION     NA48770   3.047  10.510  10.118  0.0733 -0.0179 -0.0810
33640ION     NA48771   9.517  12.379  14.005 -0.3286  0.0779 -0.1890
33641ION     NA48772  17.782   9.357   3.783  0.0216  0.0051 -0.2373
33642ION     NA48773  15.216  14.865   4.957 -0.3580 -0.0875  0.4674
33643ION     NA48774   1.776  11.331   2.145  0.3859 -0.2668 -0.2209
33644ION     NA48775   9.801   2.768   2.776  0.0877 -0.1259 -0.1333
33645ION     NA48776  13.359  12.225   9.607 -0.0098  0.0379 -0.0800
33646ION     NA48777  16.781   5.806  10.162  0.1797  0.2428  0.2317
33647ION     NA48778   2.316   3.028   3.371  0.0467 -0.0901 -0.3263
33648ION     NA48779  17.931  12.859   0.708  0.1846  0.0523 -0.0960
33649ION     NA48780  12.474  10.266   9.895 -0.1761 -0.1014 -0.2198
33650ION     NA48781   4.883  12.884  10.086  0.0228  0.2569 -0.1595
33651ION     NA48782   7.202  18.420   5.417  0.1837 -0.1951  0.0353
33652ION     NA48783   2.593   9.791   3.545 -0.2598  0.1201 -0.3811
33653ION     NA48784   8.530   6.483  11.677 -0.0322 -0.0094 -0.2668
33654ION     NA48785   4.813   9.205   5.661  0.1184  0.2100 -0.0980
33655ION     NA48786   7.549   1.547   5.721 -0.0423 -0.0859  0.1842
33656ION     NA48787  12.353  11.071   3.127  0.0089 -0.0501  0.0349
33657ION     NA48788   6.722   0.569   9.793  0.0264  0.1831 -0.2543
33658ION     NA48789   6.206   3.530   1.943 -0.0481  0.4176 -0.0699
33659ION     NA48790   3.310   8.278   5.969  0.2757  0.3904  0.1245
33660ION     NA48791  17.752   5.445  10.199  0.0616  0.2919 -0.0274
33661ION     NA48792   6.443   2.424   3.133 -0.0455  0.2260  0.2057
33662ION     NA48793   2.898   3.304  14.940  0.2188  0.0779 -0.2445
33663ION     NA48794  12.683  15.952   2.530 -0.0603  0.0817 -0.0256
33664ION     NA48795  10.682  16.346   9.749  0.1351  0.0185 -0.0470
33665ION     NA48796   5.151  15.143   9.951 -0.0396 -0.0484 -0.1615
33666ION     NA48797  18.336   1.470  12.861 -0.3823 -0.0920  0.1939
33667ION     NA48798  12.532  13.999   9.839 -0.3151  0.1484  0.1197
33668ION     NA48799   2.539   9.297   5.889  0.1035 -0.0776 -0.1319
33669ION     NA48800   3.694  18.040   5.861 -0.1497  0.0593  0.2180
33670ION     NA48801  18.463   2.045  10.336  0.1833  0.0384 -0.1259
33671ION     NA48802   9.731  10.470   5.012  0.1745  0.2920 -0.1601
33672ION     NA48803   5.113  17.543  15.511 -0.3681 -0.2470 -0.0827
33673ION     NA48804   6.623   3.736   6.128 -0.0999 -0.0282  0.1007
33674ION     NA48805   0.406  16.844   1.005  0.1290 -0.1592  0.1876
33675ION     NA48806  10.354  17.170   9.999 -0.0536 -0.3401  0.0417
33676ION     NA48807   9.185   1.452   3.113 -0.3999  0.1087  0.3693
33677ION     NA48808   5.243   6.669  14.625  0.1701 -0.0461  0.1200
33678ION     NA48809   6.913  10.924   2.055 -0.4512 -0.1685 -0.1369
33679ION     NA48810  10.199   3.730   2.015  0.1461 -0.1451  0.2737
33680ION     NA48811  14.113  16.598   9.853 -0.3171  0.0740 -0.4440
33681ION     NA48812  18.049  11.594   0.399 -0.1094 -0.3007  0.1321
33682ION     NA48813  13.841   1.194   4.398 -0.1254  0.0165  0.1159
33683ION     NA48814  17.334   7.488  12.903 -0.3132  0.1562  0.5342
33684ION     NA48815  17.064  13.904  15.650 -0.3402 -0.1212 -0.0216
33685ION     NA48816   8.349  12.009   4.868 -0.0184 -0.2590 -0.0398
33686ION     NA48817  14.511   7.504  10.467 -0.2742  0.0237 -0.1817
33687ION     NA48818   2.049  13.062  10.637 -0.1184  0.0666  0.1261
33688ION     NA48819  16.507  16.020   6.019  0.0587  0.0886  0.2176
33689ION     NA48820   9.901  17.173   5.197 -0.0587  0.0170 -0.0490
33690ION     NA48821   6.941   2.431   5.875  0.0778 -0.1864  0.0216
33691ION     NA48822  10.981   0.717   4.526  0.0962  0.1424  0.2241
33692ION     NA48823   1.597  13.873   4.464 -0.1280 -0.0929  0.1164
33693ION     NA48824   6.384  11.453   4.171  0.1804  0.0048 -0.0941
33694ION     NA48825  15.442  13.798   0.216 -0.0146  0.0727  0.0613
33695ION     NA48826   0.192   4.294   1.797  0.2758  0.0276 -0.0517
33696ION     NA48827   1.147   6.633  10.038 -0.0742  0.0554 -0.0051
33697ION     NA48828   5.444   4.173  14.854  0.0936 -0.0082  0.1622
33698ION     NA48829   7.594  15.649   5.221  0.2209 -0.2186 -0.0233
33699ION     NA48830   6.709   9.850  10.147 -0.1305 -0.1081 -0.0120
33700ION     NA48831   1.948  10.616  13.086  0.0069 -0.2354  0.3593
33701ION     NA48832   3.629   0.980   4.808 -0.0290 -0.2565  0.0120
33702ION     NA48833  13.160  14.451   0.483  0.3343  0.0640 -0.1764
33703ION     NA48834   5.168   8.314   0.987  0.1398  0.0741 -0.0250
33704ION     NA48835   5.154  12.127  13.922 -0.1251  0.0677 -0.1592
33705ION     NA48836   8.714  14.587  15.215 -0.2029 -0.0722 -0.0845
33706ION     NA48837  12.409  14.831   5.002  0.1482  0.2929  0.0159
33707ION     NA48838   9.584   0.787  13.045  0.1021 -0.1844  0.0467
33708ION     NA48839   9.927   3.818  14.266 -0.0737 -0.0233  0.3865
33709ION     NA48840  13.213   1.164   5.970 -0.2459 -0.1139  0.1730
33710ION     NA48841   6.008  15.845  14.653 -0.1506 -0.0306 -0.1557
33711ION     NA48842   3.231   2.194  15.770 -0.1255  0.0647 -0.0852
33712ION     NA48843   4.306   8.686   3.652 -0.0777  0.0474  0.1109
33713ION     NA48844   7.029   5.605  10.282 -0.1301 -0.2912  0.0350
33714ION     NA48845   8.973   9.501   4.789  0.1309  0.0590  0.0851
33715ION     NA48846  15.811  12.272   5.344 -0.2084 -0.4552 -0.0182
33716ION     NA48847  13.666  14.510   4.556 -0.1851  0.1820 -0.0545
33717ION     NA48848   7.795   9.922  14.693 -0.1172 -0.1473 -0.2016
33718ION     NA48849  13.600  13.982   1.118 -0.1263  0.3111  0.2286
33719ION     NA48850  16.910   6.552   3.622  0.3451  0.0304  0.1654
33720ION     NA48851  18.420  12.964   6.427  0.2464 -0.0367 -0.5315
33721ION     NA48852   5.645  11.643   5.968  0.2754  0.1682  0.1879
33722ION     NA48853  15.636   0.141   9.946 -0.5341 -0.1509 -0.6168
33723ION     NA48854  13.151   5.030   2.012 -0.0387 -0.1844 -0.2853
33724ION     NA48855   5.566  18.426   4.554  0.0411 -0.1941 -0.0496
33725ION     NA48856   1.141   5.638  10.075  0.2117 -0.1709  0.2450
33726ION     NA48857   1.299  12.017  10.759 -0.0086 -0.0963 -0.2289
33727ION     NA48858  16.722  14.506  15.028 -0.3441 -0.2373  0.0290
33728ION     NA48859   0.360  12.111  14.522  0.2560 -0.1650  0.1088
33729ION     NA48860   5.534  15.536   5.772 -0.3402  0.1432  0.1322
33730ION     NA48861  12.375   5.907  10.053 -0.0169 -0.0061  0.1646
33731ION     NA48862   2.371  12.146   3.057  0.2243 -0.3627 -0.3277
33732ION     NA48863   7.349   8.408   2.493  0.4564  0.0047 -0.4162
33733ION     NA48864   7.123   4.639  10.208  0.0866  0.0373  0.1328
33734ION     NA48865  14.289  16.190   0.267 -0.4585 -0.0131  0.2484
33735ION     NA48866   7.538   3.452  15.522  0.0779  0.2408  0.3203
33736ION     NA48867   2.477  16.687  14.558  0.5474  0.0590 -0.2633
33737ION     NA48868  10.722   0.609   0.316 -0.0151 -0.2461 -0.4186
33738ION     NA48869  11.996  12.392  12.776 -0.1847  0.0701  0.2364
33739ION     NA48870  10.591   7.590  13.309 -0.1414 -0.1369  0.2561
33740ION     NA48871   7.896   0.606   5.508 -0.0104 -0.2298 -0.0646
33741ION     NA48872   7.805   4.233   2.916  0.0599  0.5149  0.0102
33742ION     NA48873   5.909  11.513   3.669 -0.1592  0.2743 -0.1708
33743ION     NA48874   6.180  13.629   0.965  0.0197 -0.0848 -0.2145
33744ION     NA48875   0.480   7.403  10.313 -0.0469  0.2212  0.0013
33745ION     NA48876  14.618   1.536  10.080 -0.1898  0.0690  0.1047
33746ION     NA48877  15.697   8.404  15.869 -0.1039 -0.0813 -0.0862
33747ION     NA48878  12.712   1.058  11.894  0.0098 -0.0469 -0.0759
33748ION     NA48879  18.042   5.128   5.639 -0.0358 -0.0315  0.1373
33749ION     NA48880   2.634   5.522   9.982 -0.0424  0.0684  0.2762
33750ION     NA48881   8.922   9.987  15.877 -0.1970 -0.3832  0.2472
33751ION     NA48882   3.515   1.310   9.924  0.0880 -0.0440  0.3472
33752ION     NA48883   8.981   4.599   0.320  0.0605 -0.2062 -0.0317
33753ION     NA48884   4.585  15.060  13.122 -0.0767 -0.0981 -0.0188
33754ION     NA48885  11.831  16.730  15.638  0.1591  0.0483 -0.0061
33755ION     NA48886   0.514   5.100   9.963 -0.0085  0.1524  0.0055
33756ION     NA48887   3.004  14.617   9.925 -0.4261  0.0159  0.1199
33757ION     NA48888   0.357   8.343  10.698  0.0346 -0.1065 -0.1079
33758ION     NA48889   6.631  16.903   9.510 -0.0254  0.0674 -0.3946
33759ION     NA48890   4.421   7.566   5.886  0.1822  0.0138 -0.2116
33760ION     NA48891   0.617   4.180   9.959 -0.0507  0.0340 -0.1210
33761ION     NA48892  16.122   9.342   5.955  0.0387  0.0401 -0.0492
33762ION     NA48893   5.259   8.187  10.598 -0.1068  0.2008  0.0964
33763ION     NA48894  12.668   8.472  10.048  0.1048 -0.0496  0.0757
33764ION     NA48895   5.686  14.557  10.240 -0.1463  0.1110  0.1196
33765ION     NA48896  13.979   8.075   6.101  0.1976 -0.3229  0.3915
33766ION     NA48897   1.515  17.789  13.280 -0.1382  0.0770  0.1750
33767ION     NA48898  13.092   0.104   5.857 -0.2806 -0.0370  0.0491
33768ION     NA48899   5.826  12.436   0.903  0.3182 -0.2089  0.0755
33769ION     NA48900  17.712  17.063  15.208 -0.4803  0.4250  0.1087
33770ION     NA48901   9.191   0.000  15.509 -0.1436  0.1349 -0.0795
33771ION     NA48902  17.971   8.401   4.869 -0.0893  0.0247  0.0058
33772ION     NA48903   2.058   0.995   5.930  0.2066 -0.1979 -0.0659
33773ION     NA48904  14.276   3.516   5.534 -0.1368  0.1082 -0.2403
33774ION     NA48905   3.945   7.349  15.742 -0.0793 -0.2202  0.0356
33775ION     NA48906  12.527   9.615  15.496 -0.0439  0.2490 -0.0711
33776ION     NA48907  15.852  14.990  13.981 -0.0435  0.3326 -0.2666
33777ION     NA48908  11.514  17.156   9.866  0.1720  0.4051 -0.1849
33778ION     NA48909  12.501   9.401   9.909 -0.1002 -0.0571  0.3893
33779ION     NA48910  16.727  17.922  11.317 -0.1382  0.3121  0.0813
33780ION     NA48911  13.695  13.961   9.837  0.3568 -0.0753 -0.0902
33781ION     NA48912   6.483  10.699   3.314 -0.1886 -0.3223  0.3375
33782ION     NA48913   3.399   6.807  13.968  0.3024 -0.0666  0.1855
33783ION     NA48914   8.412   7.167  10.079 -0.1642 -0.0168  0.1892
33784ION     NA48915  14.292   0.444   4.886  0.4044 -0.0711 -0.1887
33785ION     NA48916   6.565  17.618   5.477  0.4299 -0.0949 -0.0261
33786ION     NA48917   1.589   2.654  10.161  0.1060  0.0525  0.0075
33787ION     NA48918  18.472  15.108   5.715  0.0020 -0.1339  0.1602
33788ION     NA48919   5.650  10.002  14.179  0.0064  0.1832 -0.2360
33789ION     NA48920  18.373   0.095   9.953  0.4725 -0.3495 -0.1873
33790ION     NA48921  13.103   4.065   2.786 -0.2474  0.1106 -0.0617
33791ION     NA48922   3.659   2.220   5.690 -0.4783  0.0757  0.0665
33792ION     NA48923   8.956  10.362   3.466 -0.1902  0.3510 -0.1496
33793ION     NA48924   6.418  10.753  12.709  0.2142  0.1227  0.0825
33794ION     NA48925   1.877   4.645  10.015  0.1623 -0.1944 -0.1132
33795ION     NA48926  10.206  13.529   4.879  0.0887  0.3285  0.2701
33796ION     NA48927  16.078   0.058  13.695  0.0522 -0.1537  0.3469
33797ION     NA48928  17.334  17.052  10.051  0.2311  0.2760  0.2413
33798ION     NA48929   3.586  15.058   5.850  0.0167 -0.0940  0.1564
33799ION     NA48930  18.527   9.756  10.610  0.1708  0.2275 -0.1397
33800ION     NA48931   0.129  17.112  14.607  0.0863  0.1674  0.1607
33801ION     NA48932  10.298  10.611   0.640 -0.0875  0.1974  0.3020
33802ION     NA48933   6.564   3.906  10.007  0.1316 -0.0287  0.1303
33803ION     CL48934  14.660  15.530   2.909 -0.0466 -0.2448 -0.0336
33804ION     CL48935   5.784   3.611   1.584 -0.0862  0.1460 -0.1341
33805ION     CL48936   9.592   2.943   5.707  0.0431 -0.1876 -0.1469
33806ION     CL48937  11.304   7.865  13.954 -0.1016 -0.1797  0.1154
33807ION     CL48938  14.656   8.097  11.834 -0.1600  0.2682  0.2644
33808ION     CL48939  10.717   0.575   4.098 -0.1292 -0.1260  0.2592
33809ION     CL48940   7.199   8.488   0.953  0.0937 -0.0186  0.3218
33810ION     CL48941   4.758  12.319  11.360 -0.1255  0.0625  0.2948
33811ION     CL48942   8.664  14.005  14.822  0.1749  0.2313 -0.1655
33812ION     CL48943  12.790   3.636   0.785 -0.0154 -0.0227  0.0127
33813ION     CL48944  15.352  14.201  15.147 -0.0969 -0.1331  0.0668
33814ION     CL48945  18.471   2.971  12.948 -0.0902 -0.1489  0.1391
33815ION     CL48946  15.450   7.115  13.027  0.1360 -0.1445 -0.0718
33816ION     CL48947  18.303   5.859   3.873 -0.2268  0.0387  0.0431
  18.53190  18.53190  15.89884
